Title
55513
    1DOPE     N    1   3.649   3.854   7.431  0.3488 -0.2599  0.1299
    1DOPE   HN1    2   3.617   3.951   7.411  1.0913  0.0663  0.4882
    1DOPE   HN2    3   3.752   3.853   7.440  0.2881  1.3008  1.5928
    1DOPE   HN3    4   3.630   3.809   7.339  1.5353  0.3557 -0.4487
    1DOPE   C12    5   3.575   3.779   7.539 -0.4029  0.1873 -0.3257
    1DOPE  H12A    6   3.471   3.765   7.504 -0.2512  1.9618 -1.6439
    1DOPE  H12B    7   3.555   3.852   7.621 -1.7974  0.0654 -0.5351
    1DOPE   C11    8   3.647   3.651   7.578  0.7939  0.0576  0.4584
    1DOPE  H11A    9   3.583   3.587   7.642  0.2333  2.0213  1.9550
    1DOPE  H11B   10   3.729   3.694   7.638  2.3609  0.7002 -1.9842
    1DOPE     P   11   3.604   3.461   7.390 -0.2333  0.2682 -0.7717
    1DOPE   O13   12   3.463   3.497   7.403 -0.5050  0.4424  0.0310
    1DOPE   O14   13   3.640   3.326   7.441 -0.7005  0.2717 -0.0206
    1DOPE   O11   14   3.650   3.473   7.240  0.2766  0.1417  0.2753
    1DOPE   O12   15   3.692   3.571   7.463  0.3159 -0.2505 -0.1543
    1DOPE    C1   16   3.792   3.486   7.221  0.6705  0.2560 -0.7110
    1DOPE    HA   17   3.844   3.400   7.268 -0.9975  0.1552  1.0699
    1DOPE    HB   18   3.836   3.572   7.277 -1.6315  1.5560 -0.7612
    1DOPE    C2   19   3.836   3.494   7.072 -0.3046  0.0026 -0.6903
    1DOPE    HS   20   3.946   3.482   7.065 -0.2111 -0.0978  0.7328
    1DOPE   O21   21   3.787   3.617   7.018  0.4108 -0.2126  0.8197
    1DOPE   C21   22   3.833   3.655   6.900  0.4499  0.1788  1.0541
    1DOPE   O22   23   3.929   3.613   6.840  0.4526  0.6159  0.7516
    1DOPE   C22   24   3.742   3.765   6.848  0.9651  0.0141 -0.6751
    1DOPE   H2R   25   3.749   3.848   6.922 -2.8044 -0.7806  0.8096
    1DOPE   H2S   26   3.637   3.732   6.862  0.1084  2.9628  0.6580
    1DOPE    C3   27   3.772   3.378   6.985 -0.2258  0.0529  0.4506
    1DOPE    HX   28   3.663   3.398   6.996 -0.1107  0.4478  0.9000
    1DOPE    HY   29   3.794   3.274   7.019  0.3383  0.4340  1.2869
    1DOPE   O31   30   3.808   3.388   6.849  0.1532  0.7195 -0.0956
    1DOPE   C31   31   3.762   3.296   6.771 -0.1035  0.2757 -0.4430
    1DOPE   O32   32   3.682   3.210   6.804 -0.3516  0.1845 -0.9020
    1DOPE   C32   33   3.819   3.301   6.632 -1.1625 -0.9752 -0.1742
    1DOPE   H2X   34   3.818   3.405   6.592  0.6549 -0.0026  2.0594
    1DOPE   H2Y   35   3.929   3.288   6.636 -0.8951  1.1953  1.5933
    1DOPE   C23   36   3.784   3.805   6.703 -0.6270 -0.1153 -0.4371
    1DOPE   H3R   37   3.890   3.838   6.700  0.1783 -2.5713 -2.4986
    1DOPE   H3S   38   3.725   3.898   6.685 -0.1407  0.0950 -0.9860
    1DOPE   C24   39   3.747   3.704   6.597 -0.2321 -0.0965  0.1069
    1DOPE   H4R   40   3.637   3.694   6.589 -0.4334  1.9188 -0.2020
    1DOPE   H4S   41   3.791   3.606   6.626 -1.8577 -1.6539 -2.2802
    1DOPE   C25   42   3.792   3.736   6.458  0.6902 -0.3337 -0.0789
    1DOPE   H5R   43   3.899   3.744   6.429  0.4094 -1.5218 -1.6186
    1DOPE   H5S   44   3.746   3.834   6.437 -1.0114 -1.0697  0.0388
    1DOPE   C26   45   3.746   3.636   6.359  0.0362  0.2837  0.2372
    1DOPE   H6R   46   3.644   3.599   6.385 -0.1119 -0.5272 -1.3406
    1DOPE   H6S   47   3.806   3.543   6.351  1.1904  0.5773  3.8457
    1DOPE   C27   48   3.726   3.706   6.222  0.6526  0.4023 -0.1364
    1DOPE   H7R   49   3.815   3.756   6.179  0.7525 -0.8228 -1.4360
    1DOPE   H7S   50   3.659   3.792   6.242 -1.1740 -0.6364 -1.4308
    1DOPE   C28   51   3.649   3.625   6.114  0.7257 -0.0723  0.1137
    1DOPE   H8R   52   3.619   3.685   6.026  0.9024 -1.6223 -1.0402
    1DOPE   H8S   53   3.556   3.595   6.166  0.4856  0.0199 -0.2613
    1DOPE   C29   54   3.720   3.500   6.071  0.2519 -0.3034 -0.2830
    1DOPE   H9R   55   3.761   3.450   6.159  0.2066  3.1290  1.8779
    1DOPE  C210   56   3.753   3.462   5.947 -0.3529  0.8145 -0.4144
    1DOPE  H10R   57   3.815   3.373   5.927  0.0135  1.3676 -1.8291
    1DOPE  C211   58   3.713   3.530   5.820  0.3490  0.0584 -0.0322
    1DOPE  H11R   59   3.767   3.623   5.792 -1.7543  0.6034 -2.7276
    1DOPE  H11S   60   3.609   3.562   5.843  0.5744  1.0543 -0.3554
    1DOPE  C212   61   3.711   3.435   5.696 -0.0213  0.1516 -0.5146
    1DOPE  H12R   62   3.643   3.349   5.714  0.0806  0.3219  0.7919
    1DOPE  H12S   63   3.816   3.400   5.691 -0.1275 -0.2287 -0.0975
    1DOPE  C213   64   3.672   3.497   5.557 -0.4458  0.1355 -0.6824
    1DOPE  H13R   65   3.750   3.574   5.535  1.4222 -0.6274  2.6517
    1DOPE  H13S   66   3.570   3.540   5.560 -0.7123 -0.5357  0.2720
    1DOPE  C214   67   3.693   3.400   5.443  0.4087  0.0757 -0.4117
    1DOPE  H14R   68   3.635   3.308   5.466 -0.1139  0.3763 -0.5193
    1DOPE  H14S   69   3.800   3.370   5.429  0.6452  1.5071 -1.9094
    1DOPE  C215   70   3.640   3.473   5.311  0.4993 -0.0472  0.5592
    1DOPE  H15R   71   3.724   3.536   5.275  1.0482 -1.3583 -0.5256
    1DOPE  H15S   72   3.547   3.530   5.332  0.2430 -0.7281  1.3198
    1DOPE  C216   73   3.609   3.372   5.198  0.0076  0.3142 -0.4937
    1DOPE  H16R   74   3.541   3.295   5.239  0.8598 -1.0764 -1.6037
    1DOPE  H16S   75   3.703   3.315   5.179 -0.9350 -1.5355  0.2144
    1DOPE  C217   76   3.561   3.433   5.070 -0.4080 -0.1610 -0.3115
    1DOPE  H17R   77   3.646   3.492   5.031 -1.2366  1.3454  0.0704
    1DOPE  H17S   78   3.488   3.514   5.093 -0.4205 -0.4293  0.6395
    1DOPE  C218   79   3.495   3.335   4.970  0.0077  0.7305  0.2012
    1DOPE  H18R   80   3.390   3.308   4.993  0.5543  0.3462  2.4926
    1DOPE  H18S   81   3.546   3.237   4.963 -1.6538 -0.0635 -2.5998
    1DOPE  H18T   82   3.493   3.384   4.870 -0.4854  2.1248  0.8565
    1DOPE   C33   83   3.771   3.205   6.518 -0.1278 -0.1484  0.5092
    1DOPE   H3X   84   3.663   3.219   6.499 -0.2901 -0.8658  0.8840
    1DOPE   H3Y   85   3.766   3.101   6.557 -1.9820 -0.3424 -0.1391
    1DOPE   C34   86   3.853   3.204   6.387 -0.0149 -0.2600  0.1345
    1DOPE   H4X   87   3.903   3.304   6.382 -0.5218  0.0085  0.2971
    1DOPE   H4Y   88   3.933   3.128   6.399 -0.8394 -1.0682  0.5527
    1DOPE   C35   89   3.767   3.174   6.270 -0.4291  0.3104  0.0497
    1DOPE   H5X   90   3.686   3.250   6.262 -2.6544 -1.8677  0.3242
    1DOPE   H5Y   91   3.702   3.086   6.289 -1.2864  1.2260  1.5428
    1DOPE   C36   92   3.851   3.143   6.145 -0.0153  0.3994 -0.0908
    1DOPE   H6X   93   3.922   3.058   6.159  0.7826  1.1966  0.8382
    1DOPE   H6Y   94   3.911   3.232   6.117 -0.5256 -0.0349 -2.8634
    1DOPE   C37   95   3.759   3.115   6.025 -0.3157 -0.4150  0.4451
    1DOPE   H7X   96   3.687   3.033   6.042 -1.5884  0.4497 -0.5835
    1DOPE   H7Y   97   3.697   3.206   6.009  2.4996  1.5944  0.2522
    1DOPE   C38   98   3.843   3.074   5.897  1.1411  0.0930 -0.2224
    1DOPE   H8X   99   3.917   2.995   5.924  1.6825  0.8749  0.6648
    1DOPE   H8Y  100   3.896   3.168   5.870  2.3586 -0.8081 -1.1186
    1DOPE   C39  101   3.745   3.042   5.788 -0.0948 -0.3842  0.4240
    1DOPE   H9X  102   3.640   3.071   5.802  0.6147  1.2128  3.3808
    1DOPE  C310  103   3.790   3.016   5.667  0.1787  0.0652  0.0236
    1DOPE  H10X  104   3.715   2.990   5.591 -1.1924  0.1799  1.2850
    1DOPE  C311  105   3.933   2.995   5.628  0.3564  0.1317  0.1841
    1DOPE  H11X  106   3.998   3.010   5.716  0.5356 -2.4062  0.5611
    1DOPE  H11Y  107   3.953   2.892   5.591  1.1026  0.2870  0.1573
    1DOPE  C312  108   3.983   3.086   5.518 -0.3348 -0.5855  0.1912
    1DOPE  H12X  109   3.957   3.189   5.550 -0.3614 -1.0795  1.8373
    1DOPE  H12Y  110   3.927   3.078   5.422  3.6427  0.5809 -2.4856
    1DOPE  C313  111   4.134   3.090   5.480  0.0496 -0.5441 -0.2976
    1DOPE  H13X  112   4.194   3.124   5.567 -0.3026  0.0101 -0.2638
    1DOPE  H13Y  113   4.164   2.987   5.453 -0.8705 -0.5585 -1.3517
    1DOPE  C314  114   4.153   3.185   5.360 -0.3379  0.6506  0.0631
    1DOPE  H14X  115   4.119   3.286   5.392 -0.4270  1.1716 -1.5733
    1DOPE  H14Y  116   4.086   3.157   5.276  1.5995  1.1289 -1.7273
    1DOPE  C315  117   4.303   3.188   5.322  0.0514 -0.8608  0.1986
    1DOPE  H15X  118   4.332   3.082   5.306 -0.6355 -1.5554  2.9579
    1DOPE  H15Y  119   4.349   3.228   5.415  1.7399  1.9683 -1.6824
    1DOPE  C316  120   4.332   3.277   5.202 -0.0790  0.1142 -0.1289
    1DOPE  H16X  121   4.276   3.368   5.231 -0.1147  0.2707 -0.6694
    1DOPE  H16Y  122   4.291   3.224   5.113 -2.2400  0.0648  0.8405
    1DOPE  C317  123   4.485   3.318   5.195 -0.1101  0.4510 -0.5678
    1DOPE  H17X  124   4.508   3.390   5.114 -0.8979  0.1976 -1.0344
    1DOPE  H17Y  125   4.512   3.370   5.289 -1.9511  1.2532 -0.4411
    1DOPE  C318  126   4.567   3.191   5.188  0.0339  0.6619  0.4287
    1DOPE  H18X  127   4.668   3.233   5.206 -0.5536  1.5734  1.7304
    1DOPE  H18Y  128   4.537   3.116   5.264  1.5088 -0.6769 -0.2447
    1DOPE  H18Z  129   4.552   3.136   5.092 -0.8051 -0.6907  1.3017
    2DOPE     N  130   3.283   4.167   6.794  0.2291 -0.2935  0.3575
    2DOPE   HN1  131   3.242   4.202   6.883 -0.8771  0.1355 -0.2993
    2DOPE   HN2  132   3.218   4.183   6.714 -1.4692 -3.4117  0.9534
    2DOPE   HN3  133   3.286   4.067   6.822 -0.4947 -1.0428 -1.9778
    2DOPE   C12  134   3.413   4.226   6.774 -0.1693 -0.8264 -0.2681
    2DOPE  H12A  135   3.406   4.328   6.732  2.0431 -0.6451 -0.3245
    2DOPE  H12B  136   3.467   4.171   6.694 -1.2482 -0.6501 -1.1508
    2DOPE   C11  137   3.493   4.232   6.907 -0.4704  0.8312 -0.1306
    2DOPE  H11A  138   3.596   4.247   6.868 -0.9542  0.5723 -1.5535
    2DOPE  H11B  139   3.493   4.128   6.945  1.9821  1.0004  0.5370
    2DOPE     P  140   3.521   4.373   7.128  0.1736 -0.3329 -0.1433
    2DOPE   O13  141   3.592   4.267   7.198  0.6397  0.4158  0.0661
    2DOPE   O14  142   3.427   4.444   7.218 -0.2540 -0.2017  0.4446
    2DOPE   O11  143   3.633   4.466   7.064 -1.0717 -0.4757 -0.1151
    2DOPE   O12  144   3.437   4.313   7.010 -0.0371 -0.1822  0.1993
    2DOPE    C1  145   3.602   4.603   7.033  0.5706 -0.3348  0.6905
    2DOPE    HA  146   3.686   4.663   7.073  1.3655 -0.1160 -1.1906
    2DOPE    HB  147   3.512   4.632   7.092 -1.7517 -1.5862 -1.9531
    2DOPE    C2  148   3.585   4.619   6.882 -0.4279  0.1621 -0.1091
    2DOPE    HS  149   3.492   4.562   6.860  0.4144 -1.5248  0.5740
    2DOPE   O21  150   3.710   4.584   6.817 -0.0186 -0.0801  0.8667
    2DOPE   C21  151   3.696   4.511   6.707 -0.6911  0.0664 -0.2218
    2DOPE   O22  152   3.593   4.480   6.656  0.0522  0.7575  0.0308
    2DOPE   C22  153   3.834   4.468   6.651  0.5786 -0.0564 -0.6046
    2DOPE   H2R  154   3.908   4.504   6.725  1.6326 -0.4901 -1.4151
    2DOPE   H2S  155   3.851   4.523   6.555  0.2338 -0.4441 -0.8935
    2DOPE    C3  156   3.531   4.770   6.851 -0.4279  0.1415  0.2581
    2DOPE    HX  157   3.622   4.828   6.880 -0.1746 -0.3561  0.4831
    2DOPE    HY  158   3.444   4.791   6.917 -0.9422  0.4328 -0.4988
    2DOPE   O31  159   3.496   4.788   6.713 -0.3040 -0.5388  0.2757
    2DOPE   C31  160   3.394   4.722   6.679 -0.9714 -0.3617  0.3111
    2DOPE   O32  161   3.317   4.669   6.758 -0.5923 -0.0834 -0.0726
    2DOPE   C32  162   3.383   4.723   6.526  0.4275 -1.0837  0.0746
    2DOPE   H2X  163   3.373   4.830   6.496 -2.4517 -1.7481 -1.6952
    2DOPE   H2Y  164   3.471   4.668   6.488 -0.0826 -4.3676  3.1117
    2DOPE   C23  165   3.845   4.321   6.630 -0.1032  0.0149 -0.1787
    2DOPE   H3R  166   3.794   4.295   6.534 -0.5931 -0.9048  0.3226
    2DOPE   H3S  167   3.811   4.260   6.716  0.6313  0.9585  0.7976
    2DOPE   C24  168   3.993   4.282   6.605 -0.4033  0.3090  0.4456
    2DOPE   H4R  169   4.040   4.302   6.703 -0.9732  0.3075  0.7234
    2DOPE   H4S  170   4.043   4.352   6.533 -1.0279 -0.0679 -0.3776
    2DOPE   C25  171   4.001   4.132   6.576  0.3564  0.5326 -0.4243
    2DOPE   H5R  172   3.910   4.086   6.620  1.5338 -0.9530  0.5192
    2DOPE   H5S  173   4.086   4.082   6.628  0.9066  1.3989 -0.4637
    2DOPE   C26  174   4.021   4.101   6.428 -0.1740  0.4588  0.7225
    2DOPE   H6R  175   3.944   4.143   6.360 -1.6772 -0.5058  1.7491
    2DOPE   H6S  176   4.019   3.990   6.417 -3.7167  0.2533  2.1447
    2DOPE   C27  177   4.164   4.138   6.381  0.6919  0.5190  0.3354
    2DOPE   H7R  178   4.219   4.058   6.435  0.4078  1.0922  1.5049
    2DOPE   H7S  179   4.193   4.238   6.419  3.1852  0.3338 -0.8753
    2DOPE   C28  180   4.193   4.107   6.235 -0.8985 -0.0246 -0.2262
    2DOPE   H8R  181   4.147   4.010   6.209  2.3220 -1.4593 -1.0205
    2DOPE   H8S  182   4.303   4.088   6.229 -1.0297 -1.6644  1.4113
    2DOPE   C29  183   4.142   4.214   6.140 -0.1865 -0.4074 -0.1049
    2DOPE   H9R  184   4.195   4.310   6.151 -0.9652  0.2565 -1.7830
    2DOPE  C210  185   4.038   4.220   6.065  0.5708 -1.0381 -0.5746
    2DOPE  H10R  186   4.020   4.317   6.016  0.6632 -1.6035 -1.7661
    2DOPE  C211  187   3.946   4.108   6.033 -0.3344  0.1716  0.0080
    2DOPE  H11R  188   3.954   4.026   6.108  4.6325 -0.4069 -0.8073
    2DOPE  H11S  189   3.990   4.052   5.947 -1.0137  1.0659 -0.9491
    2DOPE  C212  190   3.797   4.130   6.014  0.7396 -0.0923  0.5648
    2DOPE  H12R  191   3.771   4.208   5.938 -0.1116 -1.3852 -0.5292
    2DOPE  H12S  192   3.752   4.179   6.103 -1.7813 -0.4351 -0.4360
    2DOPE  C213  193   3.711   4.006   5.974  0.1864 -0.3623 -0.3927
    2DOPE  H13R  194   3.638   4.005   6.058  0.0424  2.4808 -0.3923
    2DOPE  H13S  195   3.760   3.907   5.983  2.7236  0.9396  1.5780
    2DOPE  C214  196   3.633   4.016   5.843  0.6050 -0.4915 -0.0837
    2DOPE  H14R  197   3.695   4.013   5.751 -0.3523  0.1762 -0.7729
    2DOPE  H14S  198   3.583   4.115   5.840 -0.3325 -0.9501  0.0419
    2DOPE  C215  199   3.515   3.923   5.835 -0.1436 -0.1037  0.3053
    2DOPE  H15R  200   3.561   3.824   5.816  0.8885  0.4920 -0.4294
    2DOPE  H15S  201   3.453   3.949   5.746  1.0542 -2.2886 -1.2600
    2DOPE  C216  202   3.427   3.919   5.952  0.1095 -0.2747  0.3223
    2DOPE  H16R  203   3.396   4.018   5.992  0.0556 -0.5117  0.8836
    2DOPE  H16S  204   3.470   3.863   6.038 -1.0146 -1.8613 -0.0851
    2DOPE  C217  205   3.291   3.837   5.927  0.0163  0.0276 -0.2700
    2DOPE  H17R  206   3.246   3.817   6.027 -0.3309  0.2616 -0.3807
    2DOPE  H17S  207   3.311   3.732   5.897  2.2779 -0.4042  2.3225
    2DOPE  C218  208   3.187   3.888   5.829  0.1709 -0.0953  0.3832
    2DOPE  H18R  209   3.147   3.982   5.873 -0.8586  0.1541 -1.0326
    2DOPE  H18S  210   3.107   3.815   5.803  0.1730  1.1586 -3.8059
    2DOPE  H18T  211   3.245   3.912   5.737 -1.3265 -0.7461 -0.7716
    2DOPE   C33  212   3.252   4.666   6.480  0.2323  0.2210  0.4373
    2DOPE   H3X  213   3.169   4.693   6.548 -1.1445 -0.9414 -0.7296
    2DOPE   H3Y  214   3.250   4.555   6.495 -0.0053  0.2296  0.4659
    2DOPE   C34  215   3.207   4.714   6.344  0.0142  0.4620 -0.2728
    2DOPE   H4X  216   3.189   4.824   6.342  0.5256  0.6065  1.3663
    2DOPE   H4Y  217   3.271   4.695   6.255 -2.0666  1.2145 -2.0109
    2DOPE   C35  218   3.063   4.648   6.311 -0.1248 -0.6805  0.4183
    2DOPE   H5X  219   3.010   4.644   6.408 -0.7123  2.2198  0.3163
    2DOPE   H5Y  220   3.087   4.548   6.268 -0.1805 -0.7465  0.5391
    2DOPE   C36  221   2.977   4.723   6.213 -0.3521  0.5285 -0.2477
    2DOPE   H6X  222   2.892   4.654   6.194  0.5702 -0.6906 -0.0464
    2DOPE   H6Y  223   3.022   4.739   6.113 -0.5798  3.4106  0.0352
    2DOPE   C37  224   2.914   4.850   6.264  0.1043 -0.1201  0.5063
    2DOPE   H7X  225   2.840   4.835   6.346  1.4481 -1.8211  1.4641
    2DOPE   H7Y  226   2.988   4.921   6.305  1.0983 -0.8813  0.0657
    2DOPE   C38  227   2.835   4.919   6.148 -0.2354 -0.4785  0.2978
    2DOPE   H8X  228   2.916   4.961   6.085 -0.0693 -1.1904  0.0358
    2DOPE   H8Y  229   2.783   5.002   6.200 -1.1456 -0.7086 -0.2254
    2DOPE   C39  230   2.727   4.848   6.072 -0.0544 -0.2972  0.3991
    2DOPE   H9X  231   2.628   4.880   6.108 -0.8103 -3.2550  1.2488
    2DOPE  C310  232   2.741   4.773   5.964  0.7085  0.6380  0.9847
    2DOPE  H10X  233   2.647   4.721   5.940  0.4310  2.2344 -1.8050
    2DOPE  C311  234   2.866   4.734   5.885  0.0617 -0.5202 -0.1459
    2DOPE  H11X  235   2.871   4.783   5.785 -1.1252  2.0454  0.9419
    2DOPE  H11Y  236   2.962   4.768   5.931  0.0257  1.3705 -1.3410
    2DOPE  C312  237   2.872   4.583   5.862  0.1388  0.0171  0.6948
    2DOPE  H12X  238   2.792   4.556   5.790  1.9584  1.6909 -2.1040
    2DOPE  H12Y  239   2.847   4.529   5.956 -0.0452  0.2710  0.7931
    2DOPE  C313  240   2.996   4.529   5.797  0.1767  0.3801 -0.0033
    2DOPE  H13X  241   2.974   4.433   5.746 -0.5042  1.1547 -1.2479
    2DOPE  H13Y  242   3.044   4.599   5.725  0.7588  0.1813  0.1934
    2DOPE  C314  243   3.112   4.494   5.891  0.2321 -0.1484 -0.3668
    2DOPE  H14X  244   3.081   4.410   5.956  0.9539 -1.8967 -2.2035
    2DOPE  H14Y  245   3.125   4.586   5.952  1.6447 -1.2039  0.9702
    2DOPE  C315  246   3.241   4.455   5.811 -0.3699 -0.0547 -0.0636
    2DOPE  H15X  247   3.216   4.398   5.719  0.5417 -0.4671 -0.0662
    2DOPE  H15Y  248   3.307   4.386   5.868  0.0000  0.1276 -0.2667
    2DOPE  C316  249   3.325   4.572   5.772  0.6334  0.0151 -0.6082
    2DOPE  H16X  250   3.345   4.616   5.872 -5.4314 -1.6856  1.8082
    2DOPE  H16Y  251   3.267   4.641   5.708 -0.3096 -0.5490 -0.3812
    2DOPE  C317  252   3.453   4.532   5.694  0.0284 -0.2340  0.1599
    2DOPE  H17X  253   3.500   4.432   5.710  0.5212 -0.1617 -0.7950
    2DOPE  H17Y  254   3.426   4.513   5.588  0.3224 -2.5068  0.4343
    2DOPE  C318  255   3.565   4.629   5.726 -0.2924 -0.0131 -0.3870
    2DOPE  H18X  256   3.574   4.635   5.837  1.0844 -2.1601 -0.3183
    2DOPE  H18Y  257   3.656   4.587   5.676 -1.4769 -1.6546 -1.2528
    2DOPE  H18Z  258   3.547   4.734   5.698  0.0989  0.5945  1.5017
    3DOPE     N  259   1.794   3.040   7.390 -0.1439 -0.0597 -0.3709
    3DOPE   HN1  260   1.766   2.967   7.459 -0.4032 -1.5242 -1.9554
    3DOPE   HN2  261   1.893   3.025   7.365  0.4876  0.5562  1.5513
    3DOPE   HN3  262   1.788   3.131   7.441 -0.8652  0.3671 -1.1931
    3DOPE   C12  263   1.700   3.056   7.274 -0.2589 -0.2608  0.1691
    3DOPE  H12A  264   1.605   3.100   7.312  0.1274 -0.2024  1.1007
    3DOPE  H12B  265   1.675   2.953   7.240 -2.2575 -0.0451  0.8650
    3DOPE   C11  266   1.761   3.136   7.156  0.2912 -1.0252  0.4584
    3DOPE  H11A  267   1.689   3.144   7.072 -0.2956  0.3678  1.0673
    3DOPE  H11B  268   1.852   3.077   7.132  0.9719 -0.1638  0.8671
    3DOPE     P  269   1.722   3.402   7.188  0.6674  0.3581  0.1702
    3DOPE   O13  270   1.805   3.519   7.214  0.3979 -0.4579  0.9402
    3DOPE   O14  271   1.612   3.366   7.281  0.2034  0.3653 -0.1059
    3DOPE   O11  272   1.671   3.399   7.041 -0.0500  0.7788 -0.1759
    3DOPE   O12  273   1.815   3.270   7.186  0.1221 -0.1950 -0.2469
    3DOPE    C1  274   1.766   3.427   6.938 -0.2199 -0.1867  0.5858
    3DOPE    HA  275   1.743   3.356   6.855  1.0642  0.0260  0.0265
    3DOPE    HB  276   1.870   3.393   6.955  0.4227  1.6898  0.6355
    3DOPE    C2  277   1.762   3.577   6.897 -0.8287 -0.8686  0.4509
    3DOPE    HS  278   1.802   3.628   6.987  1.4476  0.3958 -1.1785
    3DOPE   O21  279   1.626   3.627   6.879  0.4168 -0.3110 -0.1554
    3DOPE   C21  280   1.614   3.757   6.859 -0.0394  0.0835 -0.3972
    3DOPE   O22  281   1.680   3.842   6.915  0.2474 -0.3100 -0.2043
    3DOPE   C22  282   1.493   3.797   6.766  0.8294  0.8065 -0.8838
    3DOPE   H2R  283   1.414   3.848   6.825 -0.3004  1.0255 -2.5173
    3DOPE   H2S  284   1.437   3.714   6.717 -0.3970  0.7489  0.5615
    3DOPE    C3  285   1.851   3.618   6.776 -0.0381  0.5862  0.5533
    3DOPE    HX  286   1.958   3.596   6.797 -0.0442  1.3716  1.4742
    3DOPE    HY  287   1.842   3.725   6.747 -1.7301  0.2780 -0.1972
    3DOPE   O31  288   1.800   3.546   6.659 -0.5253 -0.0511  0.1461
    3DOPE   C31  289   1.896   3.498   6.582  0.5859 -0.5595  0.1307
    3DOPE   O32  290   2.015   3.503   6.600  0.6597 -0.1251  0.6855
    3DOPE   C32  291   1.831   3.440   6.457 -0.8447 -0.0811  0.3979
    3DOPE   H2X  292   1.784   3.344   6.486  1.4788 -0.5805  2.9054
    3DOPE   H2Y  293   1.761   3.514   6.414  0.1455  0.5944 -0.1125
    3DOPE   C23  294   1.531   3.907   6.666  0.1368 -0.0939 -0.1000
    3DOPE   H3R  295   1.604   3.862   6.595 -1.5219 -0.5950 -1.5717
    3DOPE   H3S  296   1.583   3.986   6.724 -0.0679  0.3114 -0.4576
    3DOPE   C24  297   1.408   3.966   6.594 -0.4249  0.2079 -0.7128
    3DOPE   H4R  298   1.358   4.021   6.676  0.5194  0.4929 -0.3218
    3DOPE   H4S  299   1.344   3.891   6.542 -0.9316  0.5596 -0.6141
    3DOPE   C25  300   1.464   4.058   6.485  0.9165 -0.4295 -0.6223
    3DOPE   H5R  301   1.515   3.995   6.410  0.3179 -0.2680 -1.1725
    3DOPE   H5S  302   1.530   4.131   6.536 -0.6698  0.4942  0.1976
    3DOPE   C26  303   1.351   4.145   6.414 -0.5200  1.0288 -0.5942
    3DOPE   H6R  304   1.397   4.219   6.344 -1.6300  2.0969 -0.2307
    3DOPE   H6S  305   1.292   4.209   6.483 -0.9150 -1.1410  1.1733
    3DOPE   C27  306   1.252   4.062   6.337  0.0945  0.0093  0.8578
    3DOPE   H7R  307   1.166   4.130   6.321 -1.6325 -1.9647  1.3682
    3DOPE   H7S  308   1.224   3.968   6.390  0.2046  0.4934  1.7918
    3DOPE   C28  309   1.302   4.025   6.198  0.6820 -0.6127  0.2949
    3DOPE   H8R  310   1.368   3.936   6.192  0.6487 -0.5554 -1.2553
    3DOPE   H8S  311   1.364   4.110   6.164 -0.9291 -0.8055 -3.6986
    3DOPE   C29  312   1.197   4.023   6.092  0.2353  0.0547 -0.4161
    3DOPE   H9R  313   1.145   3.926   6.100 -1.5674  1.1079  1.9158
    3DOPE  C210  314   1.149   4.124   6.018  0.4187 -0.0267  0.6840
    3DOPE  H10R  315   1.063   4.102   5.952  2.8991 -0.9629 -2.5028
    3DOPE  C211  316   1.201   4.265   6.020 -0.7119  0.4440 -0.0291
    3DOPE  H11R  317   1.289   4.273   5.952 -1.5954  1.4303 -1.0991
    3DOPE  H11S  318   1.230   4.301   6.121 -1.8957 -0.0661  0.5006
    3DOPE  C212  319   1.108   4.368   5.937 -0.6895 -0.2434 -0.1256
    3DOPE  H12R  320   1.160   4.465   5.940 -0.0565 -0.5498 -0.9451
    3DOPE  H12S  321   1.009   4.376   5.986 -1.3409 -0.2159 -1.3989
    3DOPE  C213  322   1.083   4.339   5.786  0.2094 -0.4314 -0.3216
    3DOPE  H13R  323   1.054   4.231   5.785 -0.2088 -0.3149 -0.7208
    3DOPE  H13S  324   1.180   4.352   5.733 -0.2638 -1.6637 -1.5663
    3DOPE  C214  325   0.980   4.426   5.720 -0.0586 -0.4599  0.2255
    3DOPE  H14R  326   0.924   4.486   5.796  1.0297 -1.1755  1.6311
    3DOPE  H14S  327   0.907   4.364   5.664 -2.0407  2.8494 -1.1648
    3DOPE  C215  328   1.046   4.517   5.620 -0.3039  0.3313  0.1072
    3DOPE  H15R  329   1.089   4.459   5.535  0.7380  2.8692 -1.1964
    3DOPE  H15S  330   1.126   4.572   5.672  0.6634  1.2160 -2.1874
    3DOPE  C216  331   0.944   4.614   5.551  0.3258 -0.2082  0.5303
    3DOPE  H16R  332   0.896   4.689   5.618 -1.4096 -0.8509  0.0671
    3DOPE  H16S  333   0.871   4.544   5.506  1.7094 -0.8216 -0.8766
    3DOPE  C217  334   0.999   4.694   5.432  0.0402  0.1736  0.3176
    3DOPE  H17R  335   0.919   4.721   5.360 -1.4337 -2.4973  0.8299
    3DOPE  H17S  336   1.082   4.633   5.389  2.4084  2.4798  1.3207
    3DOPE  C218  337   1.065   4.822   5.483  0.2080 -0.2486 -0.0349
    3DOPE  H18R  338   0.991   4.875   5.547 -0.0198 -0.8383  0.2021
    3DOPE  H18S  339   1.088   4.890   5.399 -0.0040 -0.0841  0.0381
    3DOPE  H18T  340   1.157   4.798   5.540  1.0545 -0.3725 -1.4176
    3DOPE   C33  341   1.926   3.419   6.338 -0.6695  0.5256  0.0660
    3DOPE   H3X  342   1.996   3.335   6.361 -2.5893 -1.2353 -0.2469
    3DOPE   H3Y  343   1.978   3.515   6.317 -2.1081  1.3825  0.3258
    3DOPE   C34  344   1.857   3.364   6.211 -0.2881  0.8911 -0.2602
    3DOPE   H4X  345   1.793   3.443   6.164  0.8717  1.6096 -0.6762
    3DOPE   H4Y  346   1.936   3.336   6.139  0.8309  0.6306  1.0397
    3DOPE   C35  347   1.782   3.230   6.233 -0.9039  0.0828 -0.0161
    3DOPE   H5X  348   1.681   3.263   6.268 -0.6263  0.6079  0.3137
    3DOPE   H5Y  349   1.827   3.171   6.316  0.2005 -0.0656 -0.6996
    3DOPE   C36  350   1.782   3.145   6.107 -0.0372  0.0737  0.2652
    3DOPE   H6X  351   1.737   3.044   6.121  2.9284 -1.1783  1.6498
    3DOPE   H6Y  352   1.886   3.131   6.072 -0.5753 -3.1911 -0.3988
    3DOPE   C37  353   1.695   3.214   5.998  0.3418  0.0688 -0.5185
    3DOPE   H7X  354   1.591   3.235   6.030 -0.8168  0.2969 -4.0140
    3DOPE   H7Y  355   1.729   3.316   5.972  0.9663  0.1110  0.4177
    3DOPE   C38  356   1.675   3.140   5.864  0.0466  0.4971  0.6108
    3DOPE   H8X  357   1.772   3.140   5.811 -0.0307 -0.4490  0.4416
    3DOPE   H8Y  358   1.599   3.207   5.817 -0.7371 -0.0857  1.0142
    3DOPE   C39  359   1.625   2.998   5.877  0.0444 -0.3012 -0.1575
    3DOPE   H9X  360   1.669   2.948   5.964 -1.1124  1.3203  1.4233
    3DOPE  C310  361   1.547   2.930   5.785 -0.1689  0.1085  0.2710
    3DOPE  H10X  362   1.517   2.827   5.807 -1.6360  0.2146 -1.0426
    3DOPE  C311  363   1.491   2.986   5.659 -0.9191 -0.6026 -0.4897
    3DOPE  H11X  364   1.380   2.994   5.669 -0.5965  1.9869  3.1976
    3DOPE  H11Y  365   1.526   3.091   5.648 -1.8122 -0.2852 -0.3996
    3DOPE  C312  366   1.523   2.899   5.543  0.8119  0.4949 -0.0248
    3DOPE  H12X  367   1.466   2.805   5.557  0.0628  1.2709  2.6165
    3DOPE  H12Y  368   1.631   2.871   5.536  0.6137 -0.3410  0.1756
    3DOPE  C313  369   1.471   2.951   5.410  0.1353 -0.0637 -0.7185
    3DOPE  H13X  370   1.486   3.061   5.399 -0.0974  0.0617  0.2147
    3DOPE  H13Y  371   1.533   2.900   5.333  1.7909  0.1149  0.4503
    3DOPE  C314  372   1.325   2.909   5.377  0.3227  0.4173  0.7110
    3DOPE  H14X  373   1.262   2.955   5.456 -0.2398  0.1464  0.4287
    3DOPE  H14Y  374   1.307   2.800   5.379 -0.5555  0.5629  0.9618
    3DOPE  C315  375   1.274   2.946   5.235 -0.0347 -0.2481  0.2704
    3DOPE  H15X  376   1.324   2.901   5.146  0.7552  2.2968 -0.6546
    3DOPE  H15Y  377   1.279   3.055   5.217  0.4366 -0.3532 -0.2902
    3DOPE  C316  378   1.126   2.916   5.211 -0.0053 -0.0010  0.4176
    3DOPE  H16X  379   1.058   2.965   5.284 -1.0762  1.6340 -1.5469
    3DOPE  H16Y  380   1.111   2.807   5.228 -5.1849 -0.4037 -3.9316
    3DOPE  C317  381   1.079   2.945   5.067 -0.7041 -0.1960 -0.1025
    3DOPE  H17X  382   1.107   3.050   5.043 -0.9008 -0.2679 -0.6829
    3DOPE  H17Y  383   1.132   2.869   5.006 -1.6894 -1.8177  0.9791
    3DOPE  C318  384   0.927   2.928   5.055 -0.3001  0.9269 -0.2588
    3DOPE  H18X  385   0.893   2.824   5.077  1.0099  0.3112 -1.0468
    3DOPE  H18Y  386   0.874   2.994   5.127 -0.1719 -0.0621  0.7605
    3DOPE  H18Z  387   0.880   2.958   4.958  0.4855  3.2819  0.0402
    4DOPE     N  388   3.603   1.572   7.313  0.0346  0.4756 -0.0645
    4DOPE   HN1  389   3.588   1.666   7.271  1.5874  0.4508 -0.7645
    4DOPE   HN2  390   3.666   1.521   7.248  1.4047  0.7255  1.0138
    4DOPE   HN3  391   3.513   1.521   7.315  0.0250  0.4815  1.8859
    4DOPE   C12  392   3.664   1.604   7.446 -0.5073  0.6250  0.4151
    4DOPE  H12A  393   3.673   1.503   7.490 -0.8815 -0.8068 -2.5220
    4DOPE  H12B  394   3.594   1.675   7.496 -0.3427  0.6202  0.6497
    4DOPE   C11  395   3.791   1.684   7.407 -0.1034  0.4134 -0.4861
    4DOPE  H11A  396   3.851   1.622   7.337 -0.3288 -0.3930  0.0247
    4DOPE  H11B  397   3.842   1.710   7.502 -0.3084  0.9326 -0.5146
    4DOPE     P  398   3.861   1.920   7.301 -0.1093 -0.1744  0.5350
    4DOPE   O13  399   3.959   1.931   7.410  0.9357  0.1286 -0.2157
    4DOPE   O14  400   3.786   2.040   7.250 -0.2327  0.0295 -0.2791
    4DOPE   O11  401   3.932   1.852   7.176  0.1690 -0.2153  0.2802
    4DOPE   O12  402   3.750   1.804   7.340 -0.1323  0.1169  0.3347
    4DOPE    C1  403   3.861   1.834   7.056 -0.1916  0.1739  0.4973
    4DOPE    HA  404   3.862   1.923   6.989  1.3121 -1.7000 -2.1671
    4DOPE    HB  405   3.753   1.815   7.073 -0.1112  0.3140  1.1911
    4DOPE    C2  406   3.896   1.708   6.980  0.0280 -0.5969 -0.7288
    4DOPE    HS  407   3.906   1.626   7.055 -0.0384  0.8966  0.9644
    4DOPE   O21  408   4.027   1.730   6.929  0.3657  0.0746 -0.4969
    4DOPE   C21  409   4.104   1.617   6.917 -0.3784  0.2971 -0.3413
    4DOPE   O22  410   4.066   1.506   6.961  0.0300 -0.5794 -0.2376
    4DOPE   C22  411   4.235   1.634   6.839 -0.7979  0.0379 -0.7691
    4DOPE   H2R  412   4.284   1.535   6.827  1.9801  1.1448  0.6708
    4DOPE   H2S  413   4.293   1.709   6.896 -1.1855 -0.1221 -0.1464
    4DOPE    C3  414   3.792   1.655   6.873 -0.0015  0.0032 -0.1230
    4DOPE    HX  415   3.697   1.666   6.930  1.9382  2.1018  2.9697
    4DOPE    HY  416   3.818   1.551   6.845 -1.2393  0.2358 -2.4631
    4DOPE   O31  417   3.792   1.729   6.749  0.4167 -0.7597 -0.0982
    4DOPE   C31  418   3.681   1.722   6.686  1.0048  0.1229 -0.0486
    4DOPE   O32  419   3.575   1.667   6.719 -0.4440  0.7604  0.1927
    4DOPE   C32  420   3.704   1.798   6.546  0.0223 -0.1017  0.3666
    4DOPE   H2X  421   3.727   1.904   6.573  1.1675  0.1904 -1.5680
    4DOPE   H2Y  422   3.788   1.752   6.490 -0.9697 -1.4829 -0.0161
    4DOPE   C23  423   4.209   1.690   6.696 -0.3424  0.1232 -0.0755
    4DOPE   H3R  424   4.305   1.715   6.648  0.6016  0.6756  1.9848
    4DOPE   H3S  425   4.151   1.785   6.706  0.2433  0.5245 -0.4495
    4DOPE   C24  426   4.119   1.601   6.609 -0.3517 -0.7132  0.1212
    4DOPE   H4R  427   4.014   1.602   6.646 -0.7933  1.4177 -1.0302
    4DOPE   H4S  428   4.161   1.499   6.601  3.0365  0.6223 -0.8623
    4DOPE   C25  429   4.111   1.652   6.468  0.3361  0.4535 -0.3274
    4DOPE   H5R  430   4.205   1.638   6.410  1.1777  2.4432  0.4422
    4DOPE   H5S  431   4.081   1.759   6.475  2.4232  1.0057  1.2636
    4DOPE   C26  432   4.014   1.567   6.388 -0.4160 -0.4143 -0.4343
    4DOPE   H6R  433   3.915   1.574   6.438  0.3342  3.0738  0.8110
    4DOPE   H6S  434   4.055   1.466   6.369 -0.9892 -0.6565 -0.4040
    4DOPE   C27  435   4.021   1.632   6.249 -0.8515  0.0525  0.1213
    4DOPE   H7R  436   4.124   1.665   6.225  0.0370 -3.1817 -1.0690
    4DOPE   H7S  437   3.958   1.724   6.252 -0.2552  0.4578  2.9029
    4DOPE   C28  438   3.976   1.547   6.131 -0.1029 -0.0718 -0.4142
    4DOPE   H8R  439   4.051   1.465   6.133  0.8430  0.7713 -0.5175
    4DOPE   H8S  440   4.000   1.605   6.040 -0.0483  1.0053  0.2726
    4DOPE   C29  441   3.835   1.497   6.146 -0.3065 -0.4185  0.4774
    4DOPE   H9R  442   3.817   1.435   6.235 -0.7832 -2.0792 -0.7234
    4DOPE  C210  443   3.733   1.520   6.063 -0.2184 -0.7946 -0.2582
    4DOPE  H10R  444   3.634   1.477   6.084 -0.7355 -0.3646 -1.7095
    4DOPE  C211  445   3.751   1.585   5.926  0.8888  0.5611  0.2633
    4DOPE  H11R  446   3.812   1.675   5.944 -1.2763  1.9106  1.3598
    4DOPE  H11S  447   3.652   1.621   5.889  0.1824 -0.5336  0.9882
    4DOPE  C212  448   3.803   1.483   5.824  0.5190  0.0099  0.2304
    4DOPE  H12R  449   3.732   1.398   5.814 -1.5181  1.3871  2.0255
    4DOPE  H12S  450   3.901   1.437   5.850 -1.5753 -5.6738 -0.3834
    4DOPE  C213  451   3.802   1.534   5.681 -0.5664 -0.1905  0.0138
    4DOPE  H13R  452   3.901   1.584   5.673 -0.2599 -0.6149  0.9571
    4DOPE  H13S  453   3.719   1.605   5.659  1.2047  1.9007 -0.2700
    4DOPE  C214  454   3.798   1.416   5.583 -0.3152  0.7366 -0.4804
    4DOPE  H14R  455   3.703   1.363   5.606  0.0153  0.2244 -0.2710
    4DOPE  H14S  456   3.873   1.336   5.603  0.2909  1.5501  0.5994
    4DOPE  C215  457   3.813   1.462   5.441 -0.5997  0.1425 -0.8440
    4DOPE  H15R  458   3.887   1.544   5.451 -2.1943  1.5821 -0.2439
    4DOPE  H15S  459   3.722   1.520   5.418 -0.9563 -0.0616 -0.0025
    4DOPE  C216  460   3.864   1.366   5.336  0.4480 -0.2602  0.3456
    4DOPE  H16R  461   3.776   1.312   5.295  0.0499  0.3335  0.4073
    4DOPE  H16S  462   3.936   1.298   5.386  1.4587 -0.1460 -0.9020
    4DOPE  C217  463   3.937   1.443   5.225 -0.7927 -0.8014  0.1908
    4DOPE  H17R  464   4.018   1.495   5.280 -1.0325  0.4172 -0.5622
    4DOPE  H17S  465   3.868   1.511   5.171 -0.2356 -2.1061 -2.3536
    4DOPE  C218  466   3.986   1.339   5.120  0.2421 -0.1279 -0.3898
    4DOPE  H18R  467   4.074   1.291   5.168 -0.6495  1.3196  2.9591
    4DOPE  H18S  468   4.019   1.389   5.026  2.3178 -2.2675 -0.8802
    4DOPE  H18T  469   3.911   1.265   5.086  0.8913 -1.1298  0.3051
    4DOPE   C33  470   3.587   1.809   6.449  0.4245 -0.3324  0.4348
    4DOPE   H3X  471   3.597   1.898   6.382  0.2671  0.8721  1.9575
    4DOPE   H3Y  472   3.490   1.832   6.498 -0.9845 -2.1548 -1.3365
    4DOPE   C34  473   3.577   1.699   6.354  0.1750 -0.3173  0.2878
    4DOPE   H4X  474   3.661   1.701   6.282 -1.2747  2.3774 -1.4842
    4DOPE   H4Y  475   3.567   1.603   6.409 -0.7807 -0.1387  0.4403
    4DOPE   C35  476   3.449   1.726   6.269  0.5046  0.8193 -0.4701
    4DOPE   H5X  477   3.361   1.732   6.337 -0.5821  1.0888 -1.8487
    4DOPE   H5Y  478   3.425   1.631   6.216 -1.8261 -0.0134  1.8495
    4DOPE   C36  479   3.451   1.835   6.162  0.1613  0.5739 -0.2338
    4DOPE   H6X  480   3.521   1.799   6.084  0.1874  0.6407 -0.2414
    4DOPE   H6Y  481   3.485   1.937   6.191  1.9046  0.0508 -0.3384
    4DOPE   C37  482   3.314   1.857   6.099 -0.2286  0.0204 -0.7218
    4DOPE   H7X  483   3.280   1.759   6.060 -0.3120 -1.0895  1.9394
    4DOPE   H7Y  484   3.238   1.903   6.165 -0.7859  1.9950 -2.6115
    4DOPE   C38  485   3.327   1.956   5.982 -0.2579 -0.2630  0.6801
    4DOPE   H8X  486   3.417   1.922   5.927 -1.5975 -3.5562  0.2894
    4DOPE   H8Y  487   3.345   2.055   6.029  1.7919 -0.0010 -0.5569
    4DOPE   C39  488   3.212   1.951   5.886  0.3183  0.0686 -0.1258
    4DOPE   H9X  489   3.166   1.852   5.904 -1.2685  0.9958  1.1513
    4DOPE  C310  490   3.157   2.037   5.803 -0.1868  0.1178  0.2433
    4DOPE  H10X  491   3.070   2.008   5.742 -1.9285  1.7530  1.7947
    4DOPE  C311  492   3.221   2.172   5.775  0.9600  0.2143  0.1718
    4DOPE  H11X  493   3.307   2.187   5.843  1.4736  0.1484 -0.4470
    4DOPE  H11Y  494   3.249   2.184   5.668 -0.8250 -3.3041 -0.8506
    4DOPE  C312  495   3.120   2.288   5.804  0.3434 -0.4970  0.5739
    4DOPE  H12X  496   3.166   2.390   5.808  0.4880 -0.5009 -0.5867
    4DOPE  H12Y  497   3.079   2.284   5.907 -1.4698  3.1194  0.1653
    4DOPE  C313  498   3.000   2.282   5.706 -0.4850 -0.6879  0.1335
    4DOPE  H13X  499   3.029   2.319   5.606 -2.3520  0.8653  0.1133
    4DOPE  H13Y  500   2.964   2.179   5.685  1.1947 -1.1674 -0.5345
    4DOPE  C314  501   2.894   2.372   5.745  0.6554 -0.0154 -0.5699
    4DOPE  H14X  502   2.865   2.339   5.847  0.4151 -1.2062 -1.0124
    4DOPE  H14Y  503   2.798   2.347   5.695 -0.3234  0.9641  0.7424
    4DOPE  C315  504   2.918   2.521   5.741 -0.3544  0.2487 -0.0542
    4DOPE  H15X  505   3.002   2.550   5.808  0.7634  2.0516 -2.0791
    4DOPE  H15Y  506   2.832   2.569   5.792  1.1315 -0.2862  3.2028
    4DOPE  C316  507   2.954   2.567   5.598  0.3603  0.6830  0.4886
    4DOPE  H16X  508   3.029   2.507   5.542 -0.8047 -0.3410 -0.0129
    4DOPE  H16Y  509   2.991   2.672   5.593 -0.2324  0.8570 -0.6995
    4DOPE  C317  510   2.829   2.580   5.503 -0.3070 -0.3198 -0.6145
    4DOPE  H17X  511   2.786   2.477   5.504  1.6172 -1.1537 -0.0687
    4DOPE  H17Y  512   2.754   2.649   5.549 -0.6908 -1.1804  0.0881
    4DOPE  C318  513   2.876   2.628   5.366 -0.2771 -1.0624  0.2857
    4DOPE  H18X  514   2.921   2.727   5.390 -1.8026 -0.4183  0.5847
    4DOPE  H18Y  515   2.947   2.552   5.328  0.6554 -0.0150 -0.1440
    4DOPE  H18Z  516   2.793   2.645   5.296 -1.1460 -0.3410  1.4540
    5DOPE     N  517   0.201   3.260   6.863 -0.0251  0.0075 -0.4739
    5DOPE   HN1  518   0.129   3.185   6.855  2.0384 -2.0413 -0.8629
    5DOPE   HN2  519   0.203   3.327   6.784  0.1796 -0.9948 -1.3359
    5DOPE   HN3  520   0.288   3.203   6.861  0.5276  0.8425 -0.8076
    5DOPE   C12  521   0.197   3.336   6.996  0.1631  0.2994  0.2449
    5DOPE  H12A  522   0.211   3.255   7.071 -2.1620 -2.1297 -1.7589
    5DOPE  H12B  523   0.103   3.393   7.008  0.9840  2.4276 -2.4463
    5DOPE   C11  524   0.312   3.439   6.986 -0.1896 -0.1262 -0.3794
    5DOPE  H11A  525   0.308   3.495   7.082 -2.2776 -1.2870  0.2809
    5DOPE  H11B  526   0.291   3.513   6.906  1.6926 -0.6569 -1.4293
    5DOPE     P  527   0.543   3.350   7.088  0.3713 -0.3137  0.0941
    5DOPE   O13  528   0.543   3.204   7.104 -0.2684 -0.0371  0.0859
    5DOPE   O14  529   0.508   3.426   7.212 -0.4862  0.1385 -0.0925
    5DOPE   O11  530   0.682   3.395   7.022  0.0447  0.6293  0.0791
    5DOPE   O12  531   0.446   3.385   6.968  0.6453 -0.1318 -0.1283
    5DOPE    C1  532   0.686   3.506   6.934  0.5039 -0.7559 -0.2706
    5DOPE    HA  533   0.785   3.555   6.950  0.8524 -1.6203  0.3000
    5DOPE    HB  534   0.607   3.583   6.949  2.1394  1.0666 -0.4746
    5DOPE    C2  535   0.673   3.464   6.785  0.2666  0.1947 -0.1616
    5DOPE    HS  536   0.573   3.415   6.775  0.2757  0.3554 -1.0767
    5DOPE   O21  537   0.786   3.377   6.769  0.1738  0.6815 -0.4761
    5DOPE   C21  538   0.774   3.280   6.686  0.4882 -0.6290  0.7301
    5DOPE   O22  539   0.667   3.234   6.647 -0.0030 -0.1677  0.2673
    5DOPE   C22  540   0.909   3.226   6.664 -0.4299  0.1051  0.3049
    5DOPE   H2R  541   0.915   3.130   6.719 -0.5273  0.7359  1.4560
    5DOPE   H2S  542   0.996   3.282   6.707  0.6501 -0.2139 -1.3710
    5DOPE    C3  543   0.664   3.582   6.690 -0.6974 -0.1404  0.1169
    5DOPE    HX  544   0.752   3.639   6.726 -0.6852  1.1938 -1.8881
    5DOPE    HY  545   0.573   3.644   6.706 -1.6440 -1.7742  1.3965
    5DOPE   O31  546   0.679   3.545   6.549  0.3825 -0.0412  0.9078
    5DOPE   C31  547   0.560   3.496   6.494  0.9241  0.1048  0.0325
    5DOPE   O32  548   0.455   3.498   6.559 -0.4469  0.4253  0.2580
    5DOPE   C32  549   0.576   3.466   6.352  0.0160  0.0567  0.0033
    5DOPE   H2X  550   0.543   3.555   6.294 -2.9714 -0.7298  0.3197
    5DOPE   H2Y  551   0.680   3.429   6.338  0.7600  1.4794  1.4708
    5DOPE   C23  552   0.944   3.189   6.516  0.4245 -0.2184  0.5929
    5DOPE   H3R  553   0.883   3.104   6.479  0.9690 -1.0437  1.5477
    5DOPE   H3S  554   1.046   3.149   6.526  0.0826 -1.2823 -0.0649
    5DOPE   C24  555   0.949   3.302   6.420 -0.2683 -0.4797 -0.4262
    5DOPE   H4R  556   1.021   3.381   6.449  2.0578 -0.7823 -4.6126
    5DOPE   H4S  557   0.853   3.358   6.415 -0.6343 -1.2073 -2.7552
    5DOPE   C25  558   0.966   3.272   6.274 -0.2789  0.4353 -0.5002
    5DOPE   H5R  559   1.064   3.223   6.260  0.1367  1.1382 -0.1343
    5DOPE   H5S  560   0.965   3.367   6.216 -3.1484 -0.1149 -1.5235
    5DOPE   C26  561   0.862   3.177   6.208  0.1170  1.0782  0.8094
    5DOPE   H6R  562   0.758   3.217   6.220 -0.9589 -0.9795 -0.9337
    5DOPE   H6S  563   0.863   3.070   6.237  1.7001  0.8978  0.1952
    5DOPE   C27  564   0.891   3.157   6.057 -0.2253  0.2288 -0.1159
    5DOPE   H7R  565   0.990   3.109   6.041 -0.2967  0.5217 -1.6711
    5DOPE   H7S  566   0.893   3.252   5.999  0.6022 -0.1886 -0.8118
    5DOPE   C28  567   0.790   3.063   5.989  0.1747  0.1244 -0.5672
    5DOPE   H8R  568   0.774   2.968   6.043 -4.1604  1.8937  1.7751
    5DOPE   H8S  569   0.842   3.044   5.893  1.0708  0.5633 -0.1909
    5DOPE   C29  570   0.658   3.129   5.974  0.3394  0.0326  0.5525
    5DOPE   H9R  571   0.594   3.144   6.063 -0.0485  0.1916  0.2470
    5DOPE  C210  572   0.606   3.179   5.859  0.3572  1.0630 -0.4979
    5DOPE  H10R  573   0.522   3.249   5.865 -0.4601 -0.0150  2.4000
    5DOPE  C211  574   0.652   3.170   5.716  0.3187 -0.1739  0.5598
    5DOPE  H11R  575   0.763   3.180   5.724  0.4922 -1.4966  0.1819
    5DOPE  H11S  576   0.624   3.260   5.658 -3.0840 -0.7010  1.1714
    5DOPE  C212  577   0.607   3.042   5.643  0.7573  0.1076  0.0566
    5DOPE  H12R  578   0.496   3.039   5.641  0.5714  0.9936  3.0878
    5DOPE  H12S  579   0.642   2.961   5.711 -1.7569 -0.0782  1.2779
    5DOPE  C213  580   0.666   3.032   5.508 -0.1460  0.2080 -0.6188
    5DOPE  H13R  581   0.674   2.927   5.472 -1.5693 -0.3140  0.4949
    5DOPE  H13S  582   0.764   3.083   5.494 -1.1459  1.8937 -1.8826
    5DOPE  C214  583   0.583   3.108   5.405 -0.3063 -0.2843  1.2144
    5DOPE  H14R  584   0.597   3.217   5.421 -1.6109  0.2798 -0.9729
    5DOPE  H14S  585   0.478   3.078   5.426 -0.5123 -1.9228 -1.5772
    5DOPE  C215  586   0.618   3.078   5.261  0.0927  0.1063 -0.3113
    5DOPE  H15R  587   0.625   2.968   5.251 -0.5812  0.1951 -2.2407
    5DOPE  H15S  588   0.715   3.129   5.241 -0.8976  1.9471 -0.6109
    5DOPE  C216  589   0.499   3.129   5.170  0.1331  0.5778  0.5211
    5DOPE  H16R  590   0.504   3.240   5.169  2.5600  0.5622 -1.9647
    5DOPE  H16S  591   0.404   3.106   5.222  1.0322 -0.0520  1.9746
    5DOPE  C217  592   0.498   3.066   5.029 -0.3450 -0.4508  0.4326
    5DOPE  H17R  593   0.393   3.063   4.993 -0.4489  1.2983  0.5167
    5DOPE  H17S  594   0.532   2.960   5.032 -0.3101 -0.4728 -0.3994
    5DOPE  C218  595   0.587   3.131   4.918 -0.2201 -0.0434  0.2878
    5DOPE  H18R  596   0.536   3.160   4.824 -0.1167 -0.4903  0.0961
    5DOPE  H18S  597   0.676   3.067   4.899 -1.1410 -1.1540 -0.4214
    5DOPE  H18T  598   0.627   3.227   4.957 -0.5830  0.8519 -1.4389
    5DOPE   C33  599   0.481   3.346   6.310  0.0223  0.2027 -0.6672
    5DOPE   H3X  600   0.405   3.335   6.390 -0.6379 -1.3092 -1.4787
    5DOPE   H3Y  601   0.547   3.257   6.302  1.3957  1.3333 -2.7183
    5DOPE   C34  602   0.410   3.362   6.176 -0.1168  0.4015  0.0234
    5DOPE   H4X  603   0.375   3.467   6.165  0.0205  0.3320 -1.3552
    5DOPE   H4Y  604   0.473   3.350   6.085 -1.5657 -0.6131 -0.8960
    5DOPE   C35  605   0.294   3.265   6.163  0.2012 -0.3127 -0.2855
    5DOPE   H5X  606   0.203   3.284   6.225 -1.7633 -2.5401 -2.2514
    5DOPE   H5Y  607   0.331   3.169   6.202 -1.0199 -0.5013  0.4800
    5DOPE   C36  608   0.238   3.240   6.022  0.5383 -0.3509 -0.2092
    5DOPE   H6X  609   0.313   3.189   5.958 -1.3267 -2.6542 -0.7336
    5DOPE   H6Y  610   0.210   3.336   5.973  0.1027  0.0078  0.7252
    5DOPE   C37  611   0.101   3.171   6.012  0.1069  0.4183 -0.3336
    5DOPE   H7X  612   0.115   3.075   6.065 -2.6912  1.2070  2.1079
    5DOPE   H7Y  613   0.029   3.231   6.071  1.0487  0.2670  1.0299
    5DOPE   C38  614   0.043   3.160   5.871  0.3754  0.5441 -0.4716
    5DOPE   H8X  615   0.039   3.262   5.828  0.5153  1.1312  0.8625
    5DOPE   H8Y  616  -0.063   3.126   5.877  0.6180 -0.5371 -1.8121
    5DOPE   C39  617   0.122   3.055   5.793  0.3605  0.5225 -0.3343
    5DOPE   H9X  618   0.143   2.959   5.842 -0.1382 -0.0369 -1.1843
    5DOPE  C310  619   0.190   3.078   5.678 -0.1325 -0.2921  0.0124
    5DOPE  H10X  620   0.251   2.992   5.646 -0.1827 -0.6508  0.8386
    5DOPE  C311  621   0.194   3.206   5.595 -0.0827 -0.4906 -0.0282
    5DOPE  H11X  622   0.121   3.281   5.631  1.7133  2.0579 -1.3882
    5DOPE  H11Y  623   0.294   3.251   5.614 -1.0131  1.5807  0.1981
    5DOPE  C312  624   0.177   3.198   5.445  0.4380 -0.4515 -0.3816
    5DOPE  H12X  625   0.072   3.168   5.423 -0.0856  1.3510 -0.5136
    5DOPE  H12Y  626   0.239   3.121   5.394 -1.2822 -0.7292 -2.1956
    5DOPE  C313  627   0.196   3.332   5.369 -0.1880  0.4508  0.2295
    5DOPE  H13X  628   0.136   3.413   5.416 -1.0234  1.4404 -2.3793
    5DOPE  H13Y  629   0.301   3.363   5.384 -0.6897  1.4104  2.0757
    5DOPE  C314  630   0.179   3.324   5.220  0.9895 -0.4890 -0.0756
    5DOPE  H14X  631   0.074   3.302   5.192  1.4419 -1.3943 -1.1565
    5DOPE  H14Y  632   0.246   3.242   5.186 -1.0781 -2.5573  0.5287
    5DOPE  C315  633   0.217   3.449   5.143  0.1804  0.3576  0.0149
    5DOPE  H15X  634   0.324   3.470   5.167  0.2438  1.0609 -0.8458
    5DOPE  H15Y  635   0.170   3.540   5.186  1.3259  0.9133  0.1395
    5DOPE  C316  636   0.193   3.441   4.993 -0.5416  0.0317  0.5698
    5DOPE  H16X  637   0.200   3.542   4.948 -0.2697 -1.4330 -3.0189
    5DOPE  H16Y  638   0.091   3.406   4.966  0.2317 -0.3320 -2.1313
    5DOPE  C317  639   0.301   3.350   4.925 -0.1468 -0.5575 -0.0873
    5DOPE  H17X  640   0.401   3.391   4.950 -0.9007  1.2478  0.1470
    5DOPE  H17Y  641   0.294   3.251   4.974  0.2462 -0.4080  0.2748
    5DOPE  C318  642   0.279   3.335   4.780  0.5011 -0.6088 -0.2420
    5DOPE  H18X  643   0.335   3.414   4.726  0.5821 -2.1178 -2.5044
    5DOPE  H18Y  644   0.323   3.242   4.737  0.7570  0.7403 -3.1132
    5DOPE  H18Z  645   0.170   3.332   4.759  0.9166 -0.1217 -2.7171
    6DOPE     N  646   2.073   3.520   7.257 -0.2703  0.0652  0.1999
    6DOPE   HN1  647   2.113   3.585   7.187 -1.5974  0.0890 -0.5650
    6DOPE   HN2  648   1.970   3.510   7.254 -0.3682  1.0453  0.0001
    6DOPE   HN3  649   2.092   3.561   7.351 -4.6843  1.0114  0.9136
    6DOPE   C12  650   2.129   3.386   7.246  0.5465 -0.1532  0.1504
    6DOPE  H12A  651   2.124   3.354   7.140  1.0319 -1.7480  0.5813
    6DOPE  H12B  652   2.060   3.316   7.299  1.8639 -0.5361  1.4054
    6DOPE   C11  653   2.274   3.374   7.296  0.2915  0.6494 -0.4499
    6DOPE  H11A  654   2.298   3.272   7.333  1.0287  1.0171  0.1060
    6DOPE  H11B  655   2.266   3.441   7.384 -3.3719  0.0724 -0.1801
    6DOPE     P  656   2.474   3.321   7.124  0.1945 -0.2850  0.1813
    6DOPE   O13  657   2.567   3.277   7.228  0.2005  0.0480  0.0700
    6DOPE   O14  658   2.536   3.398   7.012  0.1102 -0.0906 -0.1924
    6DOPE   O11  659   2.396   3.198   7.067 -0.3211  0.2679 -0.1664
    6DOPE   O12  660   2.360   3.412   7.190 -0.4577 -0.0387 -0.5778
    6DOPE    C1  661   2.347   3.200   6.932 -0.7666  0.0753 -0.0760
    6DOPE    HA  662   2.434   3.198   6.864  0.2163  1.5784  1.0551
    6DOPE    HB  663   2.285   3.292   6.922 -1.6051 -0.2123  1.8858
    6DOPE    C2  664   2.256   3.082   6.894  0.2270  0.4725 -0.2352
    6DOPE    HS  665   2.301   2.982   6.912 -0.5341  0.5176  2.1567
    6DOPE   O21  666   2.220   3.102   6.757 -0.8110 -0.3007 -0.0757
    6DOPE   C21  667   2.316   3.071   6.667 -0.7745  0.4689  0.4266
    6DOPE   O22  668   2.423   3.024   6.695 -0.6309 -0.2583 -0.7960
    6DOPE   C22  669   2.260   3.091   6.530  0.0982  0.1484  0.1489
    6DOPE   H2R  670   2.316   3.158   6.461 -1.6197 -1.8306 -3.4734
    6DOPE   H2S  671   2.160   3.138   6.523 -0.1764 -0.4642 -0.1325
    6DOPE    C3  672   2.123   3.079   6.981  0.1978  0.4702  0.6407
    6DOPE    HX  673   2.089   3.183   7.002 -2.0698  0.0129 -0.4335
    6DOPE    HY  674   2.147   3.045   7.084 -0.6845  0.4379  0.8430
    6DOPE   O31  675   2.009   3.019   6.920 -0.0477  0.1817  0.5128
    6DOPE   C31  676   1.942   3.088   6.832 -0.3425  0.4680 -0.5526
    6DOPE   O32  677   1.974   3.193   6.779 -0.1312 -0.0147 -0.4834
    6DOPE   C32  678   1.802   3.034   6.809 -0.8776  0.0980 -0.3730
    6DOPE   H2X  679   1.797   2.925   6.832 -0.0701 -0.2564 -1.7464
    6DOPE   H2Y  680   1.738   3.094   6.877  0.5059  1.0293  0.1507
    6DOPE   C23  681   2.261   2.963   6.437  0.6399  0.4104  0.4401
    6DOPE   H3R  682   2.208   2.885   6.494 -0.7889  1.0524  0.0310
    6DOPE   H3S  683   2.365   2.925   6.425  0.7663  0.7467  0.4482
    6DOPE   C24  684   2.183   2.988   6.306 -0.1531 -0.1919 -0.0339
    6DOPE   H4R  685   2.238   3.067   6.251  0.7203  1.1888  2.6457
    6DOPE   H4S  686   2.084   3.037   6.312  1.2488  3.0817 -1.2025
    6DOPE   C25  687   2.167   2.868   6.224 -0.2190 -0.1011 -0.6498
    6DOPE   H5R  688   2.099   2.790   6.264 -0.1538  1.9086  3.9764
    6DOPE   H5S  689   2.265   2.816   6.216  0.5268  1.0736  0.4425
    6DOPE   C26  690   2.136   2.918   6.086 -0.7362 -0.3385  0.3082
    6DOPE   H6R  691   2.200   3.006   6.058 -0.6033 -1.1449 -2.2158
    6DOPE   H6S  692   2.042   2.976   6.095  0.1536  1.4526 -1.0368
    6DOPE   C27  693   2.137   2.808   5.982 -0.0174  0.4040  1.0560
    6DOPE   H7R  694   2.056   2.736   6.008  0.4633 -0.8120 -0.6075
    6DOPE   H7S  695   2.234   2.755   5.977  0.4493  1.3479 -2.3690
    6DOPE   C28  696   2.127   2.843   5.833  0.7384  0.0812  0.2648
    6DOPE   H8R  697   2.109   2.745   5.783  2.4056 -0.1983  0.1455
    6DOPE   H8S  698   2.224   2.872   5.789  0.7353 -0.5409 -0.1665
    6DOPE   C29  699   2.023   2.938   5.781  0.8199 -0.2410  0.2132
    6DOPE   H9R  700   1.951   2.975   5.856 -0.5951 -2.7061  0.1553
    6DOPE  C210  701   2.000   2.969   5.651  0.5643  0.4755  0.6031
    6DOPE  H10R  702   1.926   3.046   5.625  2.9121  2.9167  0.7675
    6DOPE  C211  703   2.082   2.925   5.533 -0.2399 -0.0566 -0.3623
    6DOPE  H11R  704   2.165   2.858   5.563 -0.0274  0.3730  0.0423
    6DOPE  H11S  705   2.127   3.019   5.492 -2.1989  1.1631  0.1377
    6DOPE  C212  706   2.013   2.858   5.410 -0.3978  0.2357 -0.2647
    6DOPE  H12R  707   1.950   2.776   5.450  0.0078 -0.3649 -0.8385
    6DOPE  H12S  708   2.093   2.819   5.343 -1.5607 -2.8200 -0.0014
    6DOPE  C213  709   1.912   2.947   5.334  0.1614 -0.2650  0.1944
    6DOPE  H13R  710   1.987   3.024   5.304  0.7612 -1.1083 -0.5337
    6DOPE  H13S  711   1.842   2.988   5.410  3.0085  0.8852  2.3839
    6DOPE  C214  712   1.846   2.858   5.225 -0.6089 -0.1884  0.5062
    6DOPE  H14R  713   1.788   2.778   5.274 -1.2966 -0.0312 -0.0357
    6DOPE  H14S  714   1.931   2.821   5.164 -0.3570  1.1605  0.0023
    6DOPE  C215  715   1.748   2.934   5.131  0.2812  0.2425  0.3183
    6DOPE  H15R  716   1.671   2.990   5.188  1.6092  3.5442 -0.9155
    6DOPE  H15S  717   1.698   2.860   5.064  2.3297 -1.6767  0.7897
    6DOPE  C216  718   1.828   3.036   5.048  0.6474 -0.1688 -0.0678
    6DOPE  H16R  719   1.897   2.980   4.981 -0.6745 -0.3517 -1.3283
    6DOPE  H16S  720   1.886   3.107   5.110  0.3241 -1.5477  1.9181
    6DOPE  C217  721   1.730   3.119   4.960 -0.3947  0.6286  0.3431
    6DOPE  H17R  722   1.789   3.183   4.891  1.2993 -1.7733 -0.5733
    6DOPE  H17S  723   1.682   3.193   5.028  0.7512  0.9877  0.7862
    6DOPE  C218  724   1.624   3.039   4.884 -0.1859 -1.0015 -0.2019
    6DOPE  H18R  725   1.664   2.952   4.827 -0.0621  0.6999 -2.9039
    6DOPE  H18S  726   1.577   3.108   4.811  0.3171 -0.0013  0.4126
    6DOPE  H18T  727   1.547   3.007   4.958 -0.3658  0.0384  0.0743
    6DOPE   C33  728   1.756   3.055   6.661  0.3464  0.1284  0.6304
    6DOPE   H3X  729   1.791   2.973   6.595 -0.8269  0.0900  0.0250
    6DOPE   H3Y  730   1.794   3.147   6.612  1.8559 -0.6226  0.3334
    6DOPE   C34  731   1.601   3.057   6.656 -0.1546 -0.0507  0.1947
    6DOPE   H4X  732   1.557   2.972   6.713  0.2169  1.7552  3.4607
    6DOPE   H4Y  733   1.562   3.147   6.708 -0.2824  0.9245 -1.5252
    6DOPE   C35  734   1.548   3.049   6.508 -0.5513  0.4052  0.6374
    6DOPE   H5X  735   1.598   2.969   6.450  0.2687  1.2169  0.1979
    6DOPE   H5Y  736   1.592   3.145   6.475  0.1072  0.5977  2.0122
    6DOPE   C36  737   1.399   3.044   6.505 -0.0960  0.1842 -0.3843
    6DOPE   H6X  738   1.360   3.121   6.574  0.8026 -0.7810  1.2632
    6DOPE   H6Y  739   1.369   2.946   6.548  3.2488 -0.8632 -0.1077
    6DOPE   C37  740   1.330   3.068   6.370 -0.0200 -0.6478 -0.0845
    6DOPE   H7X  741   1.219   3.070   6.382  0.1457 -0.1676  1.7220
    6DOPE   H7Y  742   1.368   3.167   6.337 -0.8117  0.0699  1.0685
    6DOPE   C38  743   1.356   2.953   6.278 -0.4412 -0.2644 -0.6156
    6DOPE   H8X  744   1.291   2.873   6.318 -0.3391 -0.3302 -0.5787
    6DOPE   H8Y  745   1.460   2.914   6.284 -0.0977  0.8101  1.2185
    6DOPE   C39  746   1.320   2.990   6.133 -0.6010 -0.3678  0.3955
    6DOPE   H9X  747   1.346   3.093   6.103 -0.2291 -1.0269 -1.7519
    6DOPE  C310  748   1.265   2.917   6.039  0.0132  0.4972  0.2637
    6DOPE  H10X  749   1.254   2.975   5.946  0.0483 -0.8981 -0.6389
    6DOPE  C311  750   1.222   2.774   6.039 -0.1533  0.3284 -0.5282
    6DOPE  H11X  751   1.275   2.709   5.966 -0.8853 -1.5230  0.5132
    6DOPE  H11Y  752   1.246   2.721   6.134 -0.8721  0.8357 -0.0480
    6DOPE  C312  753   1.072   2.770   6.005 -0.3113  0.2324  0.1836
    6DOPE  H12X  754   1.012   2.838   6.070  0.4328 -0.0438  1.1751
    6DOPE  H12Y  755   1.039   2.666   6.023 -0.2595 -0.6999 -4.0881
    6DOPE  C313  756   1.054   2.805   5.857  0.5492 -0.8951  0.3504
    6DOPE  H13X  757   1.049   2.914   5.836 -1.6277 -1.0043 -0.0269
    6DOPE  H13Y  758   1.139   2.773   5.794 -0.1972 -0.6737 -0.7861
    6DOPE  C314  759   0.940   2.735   5.785 -0.1274  0.0941  0.2319
    6DOPE  H14X  760   0.849   2.771   5.838 -1.5349 -0.5032 -1.6691
    6DOPE  H14Y  761   0.937   2.625   5.797  0.7694  0.2316  2.0203
    6DOPE  C315  762   0.944   2.765   5.635  0.9140  0.2035 -0.3264
    6DOPE  H15X  763   1.046   2.730   5.609  1.3918  1.0969  0.3110
    6DOPE  H15Y  764   0.950   2.874   5.612  0.7316  0.1731 -0.5151
    6DOPE  C316  765   0.839   2.693   5.547  0.8003  0.5610 -0.3954
    6DOPE  H16X  766   0.731   2.708   5.567  0.0846 -4.4411  0.8656
    6DOPE  H16Y  767   0.842   2.583   5.563  2.3371  0.8656  1.8456
    6DOPE  C317  768   0.862   2.719   5.394  0.1454 -0.4422 -1.0058
    6DOPE  H17X  769   0.857   2.829   5.375 -0.6768 -0.1626  0.6475
    6DOPE  H17Y  770   0.959   2.678   5.359  0.1563 -1.4786  0.1511
    6DOPE  C318  771   0.749   2.659   5.307 -0.1312 -0.5119  0.5597
    6DOPE  H18X  772   0.648   2.696   5.332 -0.0915  1.7804 -2.2029
    6DOPE  H18Y  773   0.774   2.676   5.200  0.8588 -4.0030  0.0935
    6DOPE  H18Z  774   0.741   2.550   5.326 -3.1199 -0.1250  2.0514
    7DOPE     N  775   2.509   5.121   7.352  0.0961  0.6748 -0.2218
    7DOPE   HN1  776   2.461   5.187   7.288  1.0900  1.7826  0.1415
    7DOPE   HN2  777   2.437   5.102   7.425  1.0581  1.1123  0.8865
    7DOPE   HN3  778   2.590   5.174   7.390 -0.0584  0.6654  0.1327
    7DOPE   C12  779   2.558   4.995   7.280  0.6712  0.0664  0.3244
    7DOPE  H12A  780   2.472   4.927   7.298 -0.5278  1.0099 -1.5707
    7DOPE  H12B  781   2.644   4.956   7.338  1.4847  0.6678 -0.4471
    7DOPE   C11  782   2.593   5.013   7.133  0.7734 -0.3716 -0.3755
    7DOPE  H11A  783   2.652   4.929   7.091  1.3544  1.2839 -3.0865
    7DOPE  H11B  784   2.655   5.105   7.130 -0.8664  0.7690 -0.3351
    7DOPE     P  785   2.482   5.103   6.911  0.0488  0.2720  0.1523
    7DOPE   O13  786   2.610   5.176   6.893 -0.4979 -0.4753  0.3952
    7DOPE   O14  787   2.356   5.176   6.877 -0.2858 -0.3450 -0.4435
    7DOPE   O11  788   2.482   4.973   6.828 -0.3411  0.7864  0.1853
    7DOPE   O12  789   2.475   5.041   7.055  0.2821  0.7547  0.4561
    7DOPE    C1  790   2.489   4.963   6.681  0.9240 -0.2729  0.3582
    7DOPE    HA  791   2.584   4.997   6.633 -0.3790  0.5011 -1.8236
    7DOPE    HB  792   2.413   5.027   6.632  1.0858 -1.9447 -2.2498
    7DOPE    C2  793   2.466   4.812   6.651  0.1520 -0.2056  0.3133
    7DOPE    HS  794   2.517   4.749   6.727  1.9118  0.4183 -0.3157
    7DOPE   O21  795   2.524   4.790   6.522  0.1636 -0.3088 -0.0878
    7DOPE   C21  796   2.542   4.661   6.490 -0.2978  0.0776 -0.3195
    7DOPE   O22  797   2.533   4.568   6.568 -0.5643 -0.1842 -0.0166
    7DOPE   C22  798   2.568   4.654   6.337 -0.7624 -0.2978  0.0211
    7DOPE   H2R  799   2.673   4.677   6.307 -0.2907 -2.2640  0.0373
    7DOPE   H2S  800   2.500   4.724   6.284 -0.4095  0.4654  0.5497
    7DOPE    C3  801   2.317   4.768   6.652 -0.1757  0.3242  0.0328
    7DOPE    HX  802   2.289   4.777   6.759  1.7495 -2.4331  0.8645
    7DOPE    HY  803   2.289   4.667   6.614 -2.2372  0.8451  0.0405
    7DOPE   O31  804   2.238   4.869   6.580 -0.2932  0.1757  0.0664
    7DOPE   C31  805   2.233   4.853   6.448  0.3846  1.1683 -0.3189
    7DOPE   O32  806   2.265   4.750   6.394 -0.4508  0.6168 -0.0341
    7DOPE   C32  807   2.176   4.964   6.369  0.4555  0.3608 -0.0054
    7DOPE   H2X  808   2.093   4.930   6.303  1.8188  1.6616 -2.5611
    7DOPE   H2Y  809   2.128   5.044   6.429  0.5917  2.7277 -2.7963
    7DOPE   C23  810   2.555   4.513   6.271  0.0261 -0.5201 -0.7973
    7DOPE   H3R  811   2.454   4.479   6.300 -0.2411  0.3783 -0.6631
    7DOPE   H3S  812   2.627   4.441   6.318 -1.9254 -0.1030  3.2875
    7DOPE   C24  813   2.561   4.503   6.123 -0.4414  0.6779  0.1633
    7DOPE   H4R  814   2.665   4.506   6.084 -1.0158  0.0070 -1.5570
    7DOPE   H4S  815   2.503   4.589   6.083 -1.2229  0.5452  0.9929
    7DOPE   C25  816   2.498   4.377   6.060 -0.1958  0.5246 -0.7720
    7DOPE   H5R  817   2.394   4.355   6.091 -0.2428 -0.0928 -1.3438
    7DOPE   H5S  818   2.559   4.291   6.095  0.0379  1.0447  0.1524
    7DOPE   C26  819   2.496   4.396   5.908  0.3081  1.5096 -1.3748
    7DOPE   H6R  820   2.467   4.296   5.867 -1.3132  2.1102 -1.7613
    7DOPE   H6S  821   2.596   4.413   5.864  2.8128 -0.6892  2.7863
    7DOPE   C27  822   2.398   4.498   5.852 -0.1970 -0.1404  0.0270
    7DOPE   H7R  823   2.412   4.603   5.886  0.7798 -0.5573  0.9536
    7DOPE   H7S  824   2.298   4.466   5.888  0.8520 -2.6018  0.8873
    7DOPE   C28  825   2.382   4.505   5.698 -0.2923 -0.0466 -0.2260
    7DOPE   H8R  826   2.303   4.580   5.678  1.1843  2.4669  2.6037
    7DOPE   H8S  827   2.332   4.409   5.672  0.8243 -1.2085  1.6570
    7DOPE   C29  828   2.507   4.520   5.614 -0.2598 -0.3544  0.2906
    7DOPE   H9R  829   2.549   4.619   5.634 -0.3102  0.0314 -1.3296
    7DOPE  C210  830   2.581   4.433   5.545 -0.5245 -0.5560 -0.0054
    7DOPE  H10R  831   2.671   4.476   5.499 -0.6406 -1.6408 -1.3242
    7DOPE  C211  832   2.546   4.287   5.519  0.7833 -0.1927 -0.5886
    7DOPE  H11R  833   2.440   4.254   5.527  0.7830 -0.5832 -1.9313
    7DOPE  H11S  834   2.610   4.215   5.574 -0.8100 -1.7541 -0.6707
    7DOPE  C212  835   2.569   4.254   5.375  0.8903  0.4967  0.3484
    7DOPE  H12R  836   2.677   4.264   5.349  0.3247  0.5895 -2.1518
    7DOPE  H12S  837   2.512   4.328   5.316 -0.6506 -0.8440  0.0916
    7DOPE  C213  838   2.520   4.113   5.342 -0.3260  0.0346 -0.0842
    7DOPE  H13R  839   2.409   4.103   5.340 -0.2174 -1.4538  0.4716
    7DOPE  H13S  840   2.562   4.036   5.411 -0.2364  1.3623  1.4175
    7DOPE  C214  841   2.557   4.071   5.202  0.2831  0.5641  0.4981
    7DOPE  H14R  842   2.513   4.141   5.128 -0.3990 -0.8414 -0.4711
    7DOPE  H14S  843   2.505   3.973   5.192  0.6891  0.2173  1.5944
    7DOPE  C215  844   2.706   4.038   5.203 -0.0181  0.1659  0.0168
    7DOPE  H15R  845   2.735   3.958   5.275  1.5416 -0.9508 -1.7627
    7DOPE  H15S  846   2.760   4.130   5.232 -0.6831 -0.0480  2.0741
    7DOPE  C216  847   2.765   3.997   5.064  0.1459  0.1655 -1.0582
    7DOPE  H16R  848   2.767   4.086   4.998  0.1015  1.6775  0.8793
    7DOPE  H16S  849   2.706   3.911   5.025 -2.0976  0.3358  1.5984
    7DOPE  C217  850   2.908   3.948   5.079  0.2781  0.3674  0.0511
    7DOPE  H17R  851   2.945   3.928   4.975  1.0655  4.3264 -0.5839
    7DOPE  H17S  852   2.890   3.858   5.141  0.0550  1.6802  1.9547
    7DOPE  C218  853   3.002   4.053   5.148  0.3302 -0.5273 -0.0570
    7DOPE  H18R  854   3.105   4.012   5.152  0.1848 -0.7939  2.3193
    7DOPE  H18S  855   2.973   4.067   5.254 -2.5503 -1.0446 -0.6961
    7DOPE  H18T  856   3.007   4.145   5.086  2.5294  0.1386  1.0196
    7DOPE   C33  857   2.285   5.026   6.275  0.6685 -1.0112  0.4035
    7DOPE   H3X  858   2.383   5.040   6.325  1.7150  0.4648 -1.8857
    7DOPE   H3Y  859   2.250   5.127   6.248  0.3089 -1.0304  0.8059
    7DOPE   C34  860   2.301   4.943   6.140 -0.3931 -0.6248  0.6308
    7DOPE   H4X  861   2.336   4.843   6.174  3.1853  0.2597  0.0185
    7DOPE   H4Y  862   2.198   4.926   6.102 -0.3709  0.7640 -0.1145
    7DOPE   C35  863   2.388   5.016   6.038 -0.0982  0.2027 -0.4594
    7DOPE   H5X  864   2.496   5.018   6.064 -0.4326  1.2088  0.9901
    7DOPE   H5Y  865   2.367   5.125   6.033  0.8404  0.7957  4.0136
    7DOPE   C36  866   2.360   4.953   5.902 -0.0662  0.2275  0.1307
    7DOPE   H6X  867   2.252   4.958   5.873  0.0203 -0.8187 -0.3942
    7DOPE   H6Y  868   2.375   4.844   5.917 -2.0575  0.0763  1.5119
    7DOPE   C37  869   2.446   5.011   5.780  0.1673  0.2029 -0.0774
    7DOPE   H7X  870   2.404   5.113   5.768 -0.4941  0.1451  1.5188
    7DOPE   H7Y  871   2.553   5.025   5.809 -0.5149  0.1524  2.7518
    7DOPE   C38  872   2.438   4.932   5.650  0.4703  0.6403 -0.3058
    7DOPE   H8X  873   2.330   4.923   5.625  0.6198 -2.2370 -0.1791
    7DOPE   H8Y  874   2.471   4.832   5.686 -1.3779  0.2281  0.3828
    7DOPE   C39  875   2.533   4.991   5.550 -0.3159  0.0986 -0.6993
    7DOPE   H9X  876   2.584   5.085   5.573 -0.5050 -0.1175  0.6359
    7DOPE  C310  877   2.547   4.937   5.428  0.2432  0.0710  0.0564
    7DOPE  H10X  878   2.606   4.981   5.346  3.1754 -0.9589  1.4837
    7DOPE  C311  879   2.474   4.815   5.376  0.6818  0.2868  0.0734
    7DOPE  H11X  880   2.419   4.756   5.452 -0.8824 -0.9065 -1.8883
    7DOPE  H11Y  881   2.401   4.850   5.300  1.4005  1.0283 -0.2921
    7DOPE  C312  882   2.564   4.721   5.294  0.2032 -0.5223 -0.3404
    7DOPE  H12X  883   2.507   4.627   5.276  0.9648 -1.0932  0.1246
    7DOPE  H12Y  884   2.660   4.707   5.348  0.6087  2.6484 -0.0964
    7DOPE  C313  885   2.597   4.775   5.152  0.2423  0.4925  0.0313
    7DOPE  H13X  886   2.503   4.774   5.093  1.1468 -1.8171 -1.5161
    7DOPE  H13Y  887   2.620   4.884   5.156  0.3603  0.4338  2.8062
    7DOPE  C314  888   2.698   4.698   5.074 -0.3109 -0.2158 -1.1811
    7DOPE  H14X  889   2.788   4.760   5.094 -0.3692 -0.1028 -1.2702
    7DOPE  H14Y  890   2.684   4.720   4.966  0.4188  0.3358 -1.1703
    7DOPE  C315  891   2.720   4.559   5.124 -0.3361  0.3722  0.1786
    7DOPE  H15X  892   2.622   4.508   5.121 -1.0318  1.6517  0.6219
    7DOPE  H15Y  893   2.764   4.574   5.225 -0.4132  1.8846  0.0094
    7DOPE  C316  894   2.818   4.470   5.041  0.1955 -0.6080  0.1864
    7DOPE  H16X  895   2.786   4.471   4.935 -0.6026  5.2337  0.1584
    7DOPE  H16Y  896   2.824   4.368   5.085 -0.1252  0.5201  3.0398
    7DOPE  C317  897   2.961   4.522   5.037 -0.1609  0.7270 -0.0432
    7DOPE  H17X  898   2.968   4.627   5.001 -1.3693  1.2153  1.0922
    7DOPE  H17Y  899   2.997   4.529   5.143  0.5430  2.0480 -0.3380
    7DOPE  C318  900   3.054   4.419   4.970 -0.7791  0.2063 -1.0978
    7DOPE  H18X  901   3.059   4.321   5.022 -1.4959  0.2582 -0.9266
    7DOPE  H18Y  902   3.029   4.405   4.863  1.0987 -0.7218 -1.4583
    7DOPE  H18Z  903   3.154   4.466   4.960 -1.2462  1.6435  0.4325
    8DOPE     N  904   4.325   6.214   7.345 -0.1281 -0.2022  0.2349
    8DOPE   HN1  905   4.408   6.205   7.284 -0.0799 -0.4749  0.3399
    8DOPE   HN2  906   4.289   6.122   7.378 -3.8918  1.7330  2.1616
    8DOPE   HN3  907   4.246   6.260   7.295  0.9530 -0.2716 -1.6374
    8DOPE   C12  908   4.358   6.294   7.470  0.1191 -0.6022  0.2822
    8DOPE  H12A  909   4.431   6.235   7.529  2.9868  0.8710 -1.5320
    8DOPE  H12B  910   4.262   6.313   7.522 -0.1640 -2.0903  0.3447
    8DOPE   C11  911   4.422   6.432   7.431  0.4544 -0.0751 -0.3694
    8DOPE  H11A  912   4.463   6.474   7.526  0.3303 -1.3657  0.2749
    8DOPE  H11B  913   4.349   6.501   7.384  1.1353  1.9217  1.2927
    8DOPE     P  914   4.635   6.506   7.298 -0.2621 -0.3340 -0.0435
    8DOPE   O13  915   4.769   6.457   7.323 -0.5064 -0.5795  0.0245
    8DOPE   O14  916   4.610   6.641   7.347 -0.1203 -0.5323  0.2327
    8DOPE   O11  917   4.616   6.511   7.139  0.3392 -0.4689  0.6601
    8DOPE   O12  918   4.526   6.405   7.337 -0.0958  0.0019  0.2911
    8DOPE    C1  919   4.489   6.511   7.086  0.0529  0.1678  0.1430
    8DOPE    HA  920   4.429   6.589   7.137 -0.1154  1.7477 -2.3204
    8DOPE    HB  921   4.434   6.417   7.111 -1.0078  1.0811  1.4006
    8DOPE    C2  922   4.510   6.526   6.939 -0.3923  0.0638  0.3293
    8DOPE    HS  923   4.409   6.506   6.898 -0.0560  1.5091 -1.3376
    8DOPE   O21  924   4.595   6.427   6.879 -0.3894 -0.1760  0.3249
    8DOPE   C21  925   4.541   6.311   6.860  0.2963  0.5565  0.5005
    8DOPE   O22  926   4.437   6.274   6.904 -0.2013 -0.0326 -0.0531
    8DOPE   C22  927   4.626   6.228   6.771 -0.0164 -0.1863  0.4175
    8DOPE   H2R  928   4.721   6.193   6.817  0.8143  1.2086 -0.1582
    8DOPE   H2S  929   4.671   6.289   6.689  0.1027 -1.6795 -0.6846
    8DOPE    C3  930   4.549   6.672   6.896  0.3190 -0.2416  0.3145
    8DOPE    HX  931   4.624   6.717   6.964 -0.5948 -0.3727  1.4407
    8DOPE    HY  932   4.455   6.730   6.906  0.6071  0.8594 -2.4776
    8DOPE   O31  933   4.604   6.672   6.759  0.1495  0.0217  0.0024
    8DOPE   C31  934   4.497   6.666   6.672 -0.3909 -0.7876 -0.2330
    8DOPE   O32  935   4.376   6.677   6.698 -0.4151  0.1126 -0.0131
    8DOPE   C32  936   4.553   6.651   6.529  0.7416 -0.2141 -0.3191
    8DOPE   H2X  937   4.657   6.616   6.544  1.0642  1.1375  0.9076
    8DOPE   H2Y  938   4.478   6.584   6.482  0.2807  1.2844 -1.8117
    8DOPE   C23  939   4.544   6.122   6.692  0.2568  0.9018 -0.5343
    8DOPE   H3R  940   4.448   6.169   6.660  0.5789  1.7232 -0.3292
    8DOPE   H3S  941   4.536   6.036   6.761  0.8055  1.3609  0.1165
    8DOPE   C24  942   4.616   6.082   6.566 -0.7094  0.0118 -0.0248
    8DOPE   H4R  943   4.700   6.017   6.599 -1.4716 -0.9093  0.1371
    8DOPE   H4S  944   4.643   6.171   6.504  1.9044  1.6713  3.1473
    8DOPE   C25  945   4.518   6.003   6.477  0.5865  0.4679  0.1224
    8DOPE   H5R  946   4.435   6.062   6.431  0.2055 -1.1252 -1.3418
    8DOPE   H5S  947   4.480   5.916   6.534  0.1396  0.5480 -0.0489
    8DOPE   C26  948   4.592   5.950   6.353 -0.5536  0.4417  0.5689
    8DOPE   H6R  949   4.664   5.877   6.395 -2.5287 -0.9395  1.7304
    8DOPE   H6S  950   4.638   6.038   6.303 -0.2685 -0.3742 -0.6627
    8DOPE   C27  951   4.497   5.871   6.260  0.6024  0.4506  0.3344
    8DOPE   H7R  952   4.419   5.944   6.227 -0.8328 -0.7206  1.0236
    8DOPE   H7S  953   4.449   5.792   6.320 -0.8760  0.3823 -0.8598
    8DOPE   C28  954   4.556   5.801   6.135  0.2326  0.6405 -0.1165
    8DOPE   H8R  955   4.476   5.741   6.088  1.1070 -0.5865 -0.0769
    8DOPE   H8S  956   4.629   5.722   6.163 -0.2296  0.1216 -0.3708
    8DOPE   C29  957   4.600   5.895   6.026  0.0680 -0.3470 -0.2175
    8DOPE   H9R  958   4.515   5.913   5.958 -1.9090 -3.1226  1.3248
    8DOPE  C210  959   4.724   5.903   5.974  0.9363 -0.0100  0.0008
    8DOPE  H10R  960   4.735   5.970   5.887  3.3447  2.2425  1.8988
    8DOPE  C211  961   4.844   5.838   6.042 -0.0732 -0.8402 -0.2006
    8DOPE  H11R  962   4.824   5.732   6.068  1.9677 -0.9312  1.2230
    8DOPE  H11S  963   4.865   5.893   6.136  1.0739 -1.6651  0.0564
    8DOPE  C212  964   4.969   5.825   5.950  0.5651 -0.9038 -0.6095
    8DOPE  H12R  965   5.058   5.781   6.000  0.9591  0.9280  0.4022
    8DOPE  H12S  966   4.997   5.924   5.908  1.6228 -1.1543 -0.5298
    8DOPE  C213  967   4.961   5.724   5.835  0.0727 -0.2468  0.2480
    8DOPE  H13R  968   5.048   5.747   5.770 -0.4446  0.8703 -0.0744
    8DOPE  H13S  969   4.875   5.741   5.767 -1.2138 -1.0676  1.6248
    8DOPE  C214  970   4.971   5.573   5.865 -0.1140  0.1255 -0.3890
    8DOPE  H14R  971   4.915   5.555   5.960  2.6987  0.0562  1.3732
    8DOPE  H14S  972   5.074   5.546   5.896  0.1680  0.4667 -1.0125
    8DOPE  C215  973   4.905   5.492   5.753 -0.4077  0.4846  0.0714
    8DOPE  H15R  974   4.934   5.526   5.651 -0.7809  1.2547  0.2161
    8DOPE  H15S  975   4.795   5.511   5.753 -0.3650  0.8237  1.6421
    8DOPE  C216  976   4.933   5.342   5.763  0.4154  0.0278 -0.6954
    8DOPE  H16R  977   4.906   5.312   5.866 -0.7708 -0.6239 -1.1729
    8DOPE  H16S  978   5.042   5.323   5.750  0.5387  0.8519 -0.9478
    8DOPE  C217  979   4.844   5.257   5.669  0.5491 -0.4719  0.2132
    8DOPE  H17R  980   4.739   5.289   5.687  0.4847  0.0459 -1.0175
    8DOPE  H17S  981   4.862   5.152   5.703  0.5261 -0.9312 -1.1388
    8DOPE  C218  982   4.881   5.274   5.522  0.3299  0.3608  0.1024
    8DOPE  H18R  983   4.825   5.351   5.467 -0.0013  0.3449  0.4118
    8DOPE  H18S  984   4.844   5.185   5.467  1.4464  0.4076 -0.7614
    8DOPE  H18T  985   4.989   5.280   5.495  0.0505  0.1923 -1.0843
    8DOPE   C33  986   4.562   6.785   6.459 -0.0561 -0.0611  0.2101
    8DOPE   H3X  987   4.635   6.849   6.513  3.5134  0.2559 -4.3918
    8DOPE   H3Y  988   4.464   6.834   6.441 -0.7103 -1.4737 -0.2538
    8DOPE   C34  989   4.626   6.771   6.326 -0.5194  0.0065 -0.0272
    8DOPE   H4X  990   4.650   6.867   6.275 -0.6112 -0.4640 -0.9656
    8DOPE   H4Y  991   4.713   6.703   6.329 -0.2853  0.2670 -0.6877
    8DOPE   C35  992   4.538   6.706   6.224 -0.2153  0.0583 -0.5954
    8DOPE   H5X  993   4.433   6.741   6.229 -0.2795 -0.0709 -0.9866
    8DOPE   H5Y  994   4.553   6.598   6.243 -1.5952  0.2658  2.0905
    8DOPE   C36  995   4.586   6.739   6.077 -0.6297 -0.1552 -0.2777
    8DOPE   H6X  996   4.692   6.706   6.080  0.0270  1.7102 -1.1358
    8DOPE   H6Y  997   4.567   6.848   6.065 -0.7710 -0.0230  1.0411
    8DOPE   C37  998   4.526   6.647   5.968 -0.2292  0.0957  0.4086
    8DOPE   H7X  999   4.544   6.541   5.994  0.1992  0.0644  0.0177
    8DOPE   H7Y 1000   4.420   6.679   5.958  0.5127  2.2472 -1.4599
    8DOPE   C38 1001   4.594   6.690   5.829 -0.0934 -0.0140 -0.3373
    8DOPE   H8X 1002   4.702   6.693   5.854 -0.1433 -0.4363 -0.0658
    8DOPE   H8Y 1003   4.555   6.790   5.803  1.5405 -0.0120 -3.2719
    8DOPE   C39 1004   4.576   6.581   5.721 -0.3902 -0.5899 -0.1214
    8DOPE   H9X 1005   4.635   6.488   5.727 -0.3647 -0.5782 -0.1999
    8DOPE  C310 1006   4.491   6.589   5.612 -0.7548 -0.1709 -0.1571
    8DOPE  H10X 1007   4.491   6.501   5.546  0.0253 -0.7555  0.5934
    8DOPE  C311 1008   4.395   6.700   5.576 -0.4884  0.2504 -0.0248
    8DOPE  H11X 1009   4.296   6.661   5.544  0.8641 -1.8535 -2.0438
    8DOPE  H11Y 1010   4.384   6.757   5.671  2.6955  0.8578  0.1155
    8DOPE  C312 1011   4.436   6.809   5.474  0.2672  0.2006  1.0931
    8DOPE  H12X 1012   4.539   6.842   5.499  1.0643  0.1691 -1.8880
    8DOPE  H12Y 1013   4.371   6.897   5.491 -0.6993  0.0573 -1.5189
    8DOPE  C313 1014   4.437   6.772   5.325 -0.5600 -0.0059 -0.7509
    8DOPE  H13X 1015   4.527   6.709   5.304 -0.6517 -1.3879  2.4950
    8DOPE  H13Y 1016   4.353   6.708   5.293 -0.7374  0.2824 -0.8672
    8DOPE  C314 1017   4.441   6.890   5.232 -0.1553  0.5111 -0.5245
    8DOPE  H14X 1018   4.536   6.946   5.246 -0.0893  0.6952 -1.6445
    8DOPE  H14Y 1019   4.362   6.956   5.276  1.5712  0.7567  2.5057
    8DOPE  C315 1020   4.420   6.850   5.082  0.2521  0.2011  0.7546
    8DOPE  H15X 1021   4.339   6.774   5.087  0.7175 -0.3619 -0.0211
    8DOPE  H15Y 1022   4.516   6.799   5.060 -0.2292 -0.5488  0.3542
    8DOPE  C316 1023   4.375   6.959   4.991  0.4940 -0.0869 -0.4150
    8DOPE  H16X 1024   4.287   7.012   5.034  0.7334 -1.4189  1.9133
    8DOPE  H16Y 1025   4.356   6.922   4.889  1.3631  1.5579 -1.2087
    8DOPE  C317 1026   4.487   7.072   4.974  0.0208 -0.0016  0.3976
    8DOPE  H17X 1027   4.525   7.115   5.069 -0.0877 -0.8808  0.8561
    8DOPE  H17Y 1028   4.572   7.016   4.927  2.1434  0.5097  3.3663
    8DOPE  C318 1029   4.453   7.177   4.880 -0.1080  0.0367  0.4202
    8DOPE  H18X 1030   4.421   7.143   4.780 -0.5508  0.3244  0.4614
    8DOPE  H18Y 1031   4.529   7.257   4.870  2.4382 -2.4992 -2.4717
    8DOPE  H18Z 1032   4.358   7.212   4.925 -0.6547 -0.9706  0.0637
    9DOPE     N 1033   5.974   3.701   7.321 -0.1009  0.0647 -0.2642
    9DOPE   HN1 1034   6.066   3.685   7.366 -0.7083  0.1629  1.0723
    9DOPE   HN2 1035   5.954   3.803   7.312 -1.3995 -0.0722  0.7115
    9DOPE   HN3 1036   5.895   3.672   7.382 -1.6258  0.9648 -1.7043
    9DOPE   C12 1037   5.944   3.630   7.192 -0.0736  0.0538  0.2904
    9DOPE  H12A 1038   5.843   3.665   7.163  0.2372  0.4032 -0.4175
    9DOPE  H12B 1039   5.951   3.520   7.205 -2.4154  0.0143  1.7717
    9DOPE   C11 1040   6.039   3.666   7.077  0.2840 -0.1506 -0.0676
    9DOPE  H11A 1041   6.002   3.762   7.036 -1.7914 -0.4986  0.8400
    9DOPE  H11B 1042   6.035   3.584   7.003 -2.1308 -0.4756  0.3298
    9DOPE     P 1043   6.284   3.584   7.078  0.3726 -0.0149 -0.2472
    9DOPE   O13 1044   6.264   3.479   7.179 -0.3685  0.4444 -0.1173
    9DOPE   O14 1045   6.411   3.657   7.070 -0.1401  0.7288 -0.2605
    9DOPE   O11 1046   6.241   3.520   6.945  0.0118 -0.4360  0.2302
    9DOPE   O12 1047   6.170   3.684   7.117 -0.7123 -0.2844 -0.5056
    9DOPE    C1 1048   6.301   3.539   6.814 -0.1227  0.1879 -0.1826
    9DOPE    HA 1049   6.400   3.487   6.811  0.1112  0.3139  2.5354
    9DOPE    HB 1050   6.323   3.645   6.792  0.2335 -0.0153 -0.8196
    9DOPE    C2 1051   6.213   3.486   6.699 -0.0418  0.1706 -0.5910
    9DOPE    HS 1052   6.193   3.379   6.720  1.6612 -0.0291  0.1880
    9DOPE   O21 1053   6.296   3.514   6.586 -0.3347 -0.3246  0.3032
    9DOPE   C21 1054   6.277   3.424   6.485 -0.6317 -1.0762 -0.2786
    9DOPE   O22 1055   6.207   3.322   6.490  0.0207 -0.2916  0.4599
    9DOPE   C22 1056   6.381   3.464   6.374 -0.2828  0.1911 -0.5178
    9DOPE   H2R 1057   6.474   3.414   6.409 -1.5831 -0.9948  1.4483
    9DOPE   H2S 1058   6.398   3.574   6.381 -1.0447  0.2195  1.4375
    9DOPE    C3 1059   6.076   3.560   6.700  0.1288  0.1691  0.6965
    9DOPE    HX 1060   6.109   3.666   6.696  1.7768 -0.3224 -2.3849
    9DOPE    HY 1061   6.012   3.537   6.788 -0.3641  0.8513  0.5239
    9DOPE   O31 1062   5.995   3.535   6.586  0.2947  0.5682  0.1524
    9DOPE   C31 1063   5.909   3.432   6.589 -0.0140  0.4518  0.2642
    9DOPE   O32 1064   5.895   3.351   6.681 -0.0533  0.0829 -0.1673
    9DOPE   C32 1065   5.820   3.434   6.465  0.1161 -0.0694 -0.1792
    9DOPE   H2X 1066   5.889   3.439   6.378 -0.5114  1.1177 -0.6426
    9DOPE   H2Y 1067   5.772   3.334   6.470  0.3586 -0.2841 -1.7756
    9DOPE   C23 1068   6.349   3.420   6.237 -0.1889  0.5038  0.8221
    9DOPE   H3R 1069   6.340   3.309   6.240  0.4613  0.4677  2.1025
    9DOPE   H3S 1070   6.433   3.425   6.163 -1.1349 -1.2142 -0.4552
    9DOPE   C24 1071   6.224   3.468   6.160  0.4723  0.0023 -0.1982
    9DOPE   H4R 1072   6.259   3.466   6.055 -1.9231 -0.1458 -1.0393
    9DOPE   H4S 1073   6.209   3.575   6.186  1.3093  0.2597 -0.7049
    9DOPE   C25 1074   6.107   3.380   6.180 -0.0126  0.9585  0.3225
    9DOPE   H5R 1075   6.072   3.370   6.286 -3.4137  0.1149 -0.7497
    9DOPE   H5S 1076   6.136   3.277   6.151  1.7167  1.8707 -1.3458
    9DOPE   C26 1077   5.983   3.441   6.111 -1.0896  0.5196  0.1163
    9DOPE   H6R 1078   5.987   3.547   6.144  1.1439  0.0347  1.6384
    9DOPE   H6S 1079   5.885   3.398   6.141 -0.5398 -0.8131  0.0815
    9DOPE   C27 1080   5.989   3.437   5.963 -0.2018 -0.7003 -0.0574
    9DOPE   H7R 1081   5.931   3.349   5.928 -0.4708 -0.2283 -0.8216
    9DOPE   H7S 1082   6.096   3.431   5.935  0.0512  1.0371  0.4616
    9DOPE   C28 1083   5.932   3.561   5.889 -0.7772 -0.6888  0.2560
    9DOPE   H8R 1084   5.991   3.649   5.922  2.1131 -1.2602 -2.8693
    9DOPE   H8S 1085   5.836   3.583   5.940 -2.1471 -1.2773 -1.9449
    9DOPE   C29 1086   5.915   3.561   5.740 -0.2085  0.1200  0.5783
    9DOPE   H9R 1087   5.817   3.527   5.704 -0.0989  0.1244  0.2720
    9DOPE  C210 1088   6.014   3.593   5.650  0.2282  0.0585 -0.1295
    9DOPE  H10R 1089   5.996   3.591   5.542  0.5149  1.2227 -0.2108
    9DOPE  C211 1090   6.158   3.633   5.680 -0.3183  0.7609  0.2656
    9DOPE  H11R 1091   6.223   3.549   5.649 -1.3322  0.4502 -1.0885
    9DOPE  H11S 1092   6.166   3.650   5.790 -0.6758  0.1128  0.3960
    9DOPE  C212 1093   6.214   3.753   5.597  1.0974 -0.7584 -0.2062
    9DOPE  H12R 1094   6.193   3.847   5.652 -0.9742 -1.0386 -0.4275
    9DOPE  H12S 1095   6.166   3.753   5.497 -0.1227 -2.7750  0.3197
    9DOPE  C213 1096   6.367   3.743   5.574 -0.3466 -0.3185 -0.8641
    9DOPE  H13R 1097   6.388   3.640   5.537 -1.6824 -1.2095  0.7349
    9DOPE  H13S 1098   6.419   3.758   5.671 -1.6014  0.3568 -0.2700
    9DOPE  C214 1099   6.420   3.837   5.471 -0.0445 -0.6146 -0.0964
    9DOPE  H14R 1100   6.530   3.833   5.460 -0.0070  1.5720 -0.9329
    9DOPE  H14S 1101   6.390   3.939   5.504 -0.9357 -1.2555  1.1854
    9DOPE  C215 1102   6.376   3.804   5.333  0.3942 -0.1040 -0.4677
    9DOPE  H15R 1103   6.265   3.805   5.345  0.4400 -2.6484  0.6437
    9DOPE  H15S 1104   6.402   3.701   5.303  1.3067 -0.2076  0.6308
    9DOPE  C216 1105   6.417   3.906   5.221  0.0351 -0.0000  0.3161
    9DOPE  H16R 1106   6.396   3.860   5.122  0.9486  0.3025 -0.0369
    9DOPE  H16S 1107   6.527   3.924   5.217  0.3098 -1.7613 -1.6105
    9DOPE  C217 1108   6.332   4.037   5.222  0.6135  0.2599 -0.1155
    9DOPE  H17R 1109   6.373   4.101   5.303 -0.2617  2.2660 -1.1838
    9DOPE  H17S 1110   6.229   4.006   5.249  0.6074  0.6020  0.2611
    9DOPE  C218 1111   6.338   4.124   5.093  0.5199  0.7093  0.1406
    9DOPE  H18R 1112   6.444   4.149   5.069  1.2024 -2.2284 -0.3510
    9DOPE  H18S 1113   6.265   4.208   5.098  0.9678  1.0936  0.2833
    9DOPE  H18T 1114   6.309   4.057   5.008 -0.2754 -1.2127  1.8463
    9DOPE   C33 1115   5.713   3.542   6.475  0.8253 -0.7085  0.3274
    9DOPE   H3X 1116   5.749   3.645   6.451 -1.5967  0.4403  1.2358
    9DOPE   H3Y 1117   5.665   3.547   6.575 -1.2010  0.1036 -0.6195
    9DOPE   C34 1118   5.602   3.518   6.364  0.0626  0.0022  0.0344
    9DOPE   H4X 1119   5.636   3.514   6.259 -3.4293  0.3616 -1.2308
    9DOPE   H4Y 1120   5.564   3.415   6.382  1.1537 -0.2292  1.1308
    9DOPE   C35 1121   5.485   3.617   6.384 -0.7432 -0.7615 -0.3977
    9DOPE   H5X 1122   5.525   3.721   6.389  0.5941 -1.2720 -0.0069
    9DOPE   H5Y 1123   5.428   3.596   6.476 -0.6594  2.2495  0.4335
    9DOPE   C36 1124   5.386   3.637   6.268  0.8452  0.2507 -0.1181
    9DOPE   H6X 1125   5.355   3.533   6.246  0.0867  0.7149 -1.3082
    9DOPE   H6Y 1126   5.428   3.671   6.171 -0.2402 -1.8047 -1.3695
    9DOPE   C37 1127   5.271   3.736   6.306 -0.0778  0.5383  1.2848
    9DOPE   H7X 1128   5.224   3.706   6.403 -0.2291  0.1463  1.0928
    9DOPE   H7Y 1129   5.321   3.834   6.319  0.5521 -0.0089  3.3669
    9DOPE   C38 1130   5.160   3.748   6.209  0.5458  0.4774  0.1051
    9DOPE   H8X 1131   5.202   3.764   6.107  1.3454  0.5365  0.4417
    9DOPE   H8Y 1132   5.088   3.829   6.233  0.5218  0.6905 -0.6473
    9DOPE   C39 1133   5.082   3.617   6.223  0.2391  0.3317 -0.3298
    9DOPE   H9X 1134   5.039   3.600   6.323 -2.5961 -0.5368 -1.5803
    9DOPE  C310 1135   5.056   3.532   6.124 -0.3933 -0.4488 -0.2136
    9DOPE  H10X 1136   5.020   3.433   6.157 -1.8297  0.5281  1.2666
    9DOPE  C311 1137   5.093   3.543   5.979 -0.3328 -1.4210  0.0618
    9DOPE  H11X 1138   5.010   3.509   5.913 -0.5170 -0.2183 -0.3622
    9DOPE  H11Y 1139   5.096   3.652   5.956 -0.1339 -1.3468  0.4332
    9DOPE  C312 1140   5.231   3.494   5.935 -0.7396 -0.4816  0.3992
    9DOPE  H12X 1141   5.239   3.387   5.965  1.3591 -0.4053  0.2533
    9DOPE  H12Y 1142   5.317   3.539   5.989 -1.3368 -0.5847  1.4856
    9DOPE  C313 1143   5.261   3.504   5.783 -0.7017  0.4322 -0.3481
    9DOPE  H13X 1144   5.351   3.442   5.764 -1.5888 -1.4889  1.3728
    9DOPE  H13Y 1145   5.175   3.454   5.735  1.7082 -3.6387 -0.8787
    9DOPE  C314 1146   5.278   3.648   5.730 -0.0482  0.2482 -0.7245
    9DOPE  H14X 1147   5.377   3.683   5.766  0.2499 -0.1204 -1.1687
    9DOPE  H14Y 1148   5.192   3.714   5.755 -0.7116 -1.0455  0.5441
    9DOPE  C315 1149   5.292   3.654   5.577 -0.4572 -0.0991  0.3121
    9DOPE  H15X 1150   5.335   3.754   5.551  0.9600 -0.8065 -0.1881
    9DOPE  H15Y 1151   5.184   3.654   5.554 -0.6764 -1.0641  1.2833
    9DOPE  C316 1152   5.375   3.527   5.524  0.5358  0.5915  0.2774
    9DOPE  H16X 1153   5.306   3.440   5.525  2.9510 -1.4482  1.9079
    9DOPE  H16Y 1154   5.466   3.508   5.586  1.0069 -1.0477 -0.8396
    9DOPE  C317 1155   5.418   3.545   5.377 -0.7829  0.4479 -0.3700
    9DOPE  H17X 1156   5.332   3.577   5.314 -1.5508 -0.2992  0.2677
    9DOPE  H17Y 1157   5.487   3.631   5.388  0.7963 -1.0459  3.2351
    9DOPE  C318 1158   5.497   3.430   5.310  0.0786  0.2790 -0.2528
    9DOPE  H18X 1159   5.511   3.439   5.200  0.8993 -1.0306 -0.2801
    9DOPE  H18Y 1160   5.594   3.426   5.364 -0.5884 -0.3156  0.9300
    9DOPE  H18Z 1161   5.442   3.335   5.295 -0.1481  0.2227  0.8248
   10DOPE     N 1162   0.313   3.745   6.682  0.0200  0.0705 -0.1038
   10DOPE   HN1 1163   0.362   3.824   6.635  0.9036 -0.3081  0.1569
   10DOPE   HN2 1164   0.361   3.751   6.774  2.2958  0.1591 -1.2288
   10DOPE   HN3 1165   0.356   3.659   6.643  0.7828 -0.3577  1.6089
   10DOPE   C12 1166   0.167   3.766   6.662 -0.2311 -0.4368 -0.2833
   10DOPE  H12A 1167   0.114   3.677   6.703 -0.4732 -1.3702 -2.4844
   10DOPE  H12B 1168   0.146   3.761   6.553 -1.8697 -1.2234  0.0478
   10DOPE   C11 1169   0.129   3.903   6.719  0.0759  1.0763 -0.1295
   10DOPE  H11A 1170   0.153   3.899   6.828  0.7088 -0.3306 -0.3145
   10DOPE  H11B 1171   0.020   3.910   6.699  0.3749  1.0988 -1.8222
   10DOPE     P 1172   0.152   4.155   6.644  0.3736  0.5200 -0.1019
   10DOPE   O13 1173   0.250   4.222   6.564  0.2138  0.4813 -0.2865
   10DOPE   O14 1174   0.111   4.207   6.784  0.0709 -0.4552  0.2719
   10DOPE   O11 1175   0.017   4.129   6.562 -0.2890  0.2927 -0.1832
   10DOPE   O12 1176   0.202   4.009   6.658 -0.0275 -0.1840  0.2900
   10DOPE    C1 1177  -0.004   4.034   6.461 -0.6700 -0.1480 -0.3448
   10DOPE    HA 1178  -0.092   3.974   6.493  0.2733 -0.2004  2.3839
   10DOPE    HB 1179   0.071   3.952   6.455 -1.7993 -1.1772 -0.8560
   10DOPE    C2 1180  -0.019   4.083   6.315 -0.0933 -0.0592 -0.2269
   10DOPE    HS 1181  -0.021   4.002   6.239  2.2654  1.5744 -2.1571
   10DOPE   O21 1182   0.091   4.173   6.280  0.4850  0.1635  0.2114
   10DOPE   C21 1183   0.197   4.111   6.229 -0.6822 -0.4274 -0.1117
   10DOPE   O22 1184   0.217   3.993   6.227 -0.2936 -0.1707  0.2387
   10DOPE   C22 1185   0.291   4.214   6.157  0.3181  0.8493 -0.1434
   10DOPE   H2R 1186   0.333   4.277   6.239  2.2914  1.0590 -1.2631
   10DOPE   H2S 1187   0.228   4.270   6.085  0.3037  0.2653 -0.5863
   10DOPE    C3 1188  -0.148   4.167   6.314  0.5534 -0.0326 -0.4119
   10DOPE    HX 1189  -0.132   4.265   6.364  0.0103  1.7950 -3.5091
   10DOPE    HY 1190  -0.221   4.101   6.366 -0.2225  1.6032  0.6765
   10DOPE   O31 1191  -0.179   4.193   6.175 -0.0773 -0.2992  0.0130
   10DOPE   C31 1192  -0.263   4.297   6.149  0.0804  0.7142  0.3810
   10DOPE   O32 1193  -0.309   4.366   6.238  0.5855 -0.2958  0.3846
   10DOPE   C32 1194  -0.287   4.312   6.002 -0.6172  0.1325 -0.1278
   10DOPE   H2X 1195  -0.371   4.243   5.980  0.1290 -0.7431 -0.2584
   10DOPE   H2Y 1196  -0.311   4.418   5.979  1.7098  1.2507  2.1092
   10DOPE   C23 1197   0.413   4.146   6.093 -0.2988  0.4896  0.6049
   10DOPE   H3R 1198   0.392   4.075   6.010 -0.0704  1.3596 -0.2047
   10DOPE   H3S 1199   0.471   4.093   6.172 -1.7321  1.3967  2.3436
   10DOPE   C24 1200   0.504   4.253   6.035 -0.4501  0.4795  0.4395
   10DOPE   H4R 1201   0.538   4.317   6.119 -0.8136  1.8919 -0.4643
   10DOPE   H4S 1202   0.443   4.309   5.961  0.2784  4.8011  2.7598
   10DOPE   C25 1203   0.636   4.206   5.963 -0.4442  0.6371 -0.5788
   10DOPE   H5R 1204   0.703   4.158   6.038 -1.1186 -0.1126 -0.4534
   10DOPE   H5S 1205   0.683   4.300   5.927 -0.0774  0.7229  0.0939
   10DOPE   C26 1206   0.612   4.114   5.842 -0.1413 -0.5829 -0.7011
   10DOPE   H6R 1207   0.551   4.168   5.766 -1.1734 -1.7681 -0.7501
   10DOPE   H6S 1208   0.564   4.022   5.879 -0.8146  0.5457  1.3681
   10DOPE   C27 1209   0.747   4.078   5.769 -0.2344  0.6674 -0.5482
   10DOPE   H7R 1210   0.827   4.043   5.838 -0.9635  0.0777  0.0202
   10DOPE   H7S 1211   0.791   4.174   5.733  1.5826  1.1189  2.5239
   10DOPE   C28 1212   0.730   3.971   5.659  0.0802 -0.0558  0.3113
   10DOPE   H8R 1213   0.689   3.879   5.705 -0.3454 -0.5993 -1.1230
   10DOPE   H8S 1214   0.825   3.937   5.613 -0.3879 -1.1062  0.1046
   10DOPE   C29 1215   0.629   4.007   5.551 -0.5185 -0.4123  0.2639
   10DOPE   H9R 1216   0.524   4.021   5.580  0.0907  1.2456  1.8512
   10DOPE  C210 1217   0.650   4.063   5.432 -0.0289  0.4266  0.1714
   10DOPE  H10R 1218   0.566   4.068   5.361 -1.3646  0.6938  1.7208
   10DOPE  C211 1219   0.778   4.093   5.361 -0.4438 -0.2065 -0.0740
   10DOPE  H11R 1220   0.772   4.068   5.253  1.7586  1.1720 -0.5793
   10DOPE  H11S 1221   0.860   4.028   5.398  1.9175  2.2772 -0.5782
   10DOPE  C212 1222   0.828   4.240   5.368 -0.0111 -0.7890 -1.3483
   10DOPE  H12R 1223   0.825   4.286   5.469 -2.6154 -1.7593 -0.8970
   10DOPE  H12S 1224   0.750   4.297   5.314 -1.7310 -2.8236 -1.1436
   10DOPE  C213 1225   0.962   4.269   5.304  0.5030 -0.0753 -0.1100
   10DOPE  H13R 1226   1.030   4.184   5.325  2.2181  1.3937  0.6014
   10DOPE  H13S 1227   1.018   4.362   5.329  2.7907 -1.0180 -1.3520
   10DOPE  C214 1228   0.951   4.271   5.147  0.6194 -0.2139 -0.7024
   10DOPE  H14R 1229   0.883   4.357   5.126  0.2652  0.0204  1.2722
   10DOPE  H14S 1230   0.908   4.171   5.122  1.8850 -1.5956  2.1795
   10DOPE  C215 1231   1.080   4.278   5.067  0.7890  0.0886 -0.2983
   10DOPE  H15R 1232   1.069   4.247   4.961  1.1292 -1.1774  0.0156
   10DOPE  H15S 1233   1.134   4.192   5.113 -1.1678 -1.9746 -1.6388
   10DOPE  C216 1234   1.163   4.403   5.092  0.2923 -0.4092  0.3367
   10DOPE  H16R 1235   1.171   4.416   5.202 -0.5728  2.0852  0.1561
   10DOPE  H16S 1236   1.112   4.497   5.062  0.7329  0.6891  2.7801
   10DOPE  C217 1237   1.294   4.393   5.017 -0.3347 -0.3561 -0.3585
   10DOPE  H17R 1238   1.282   4.411   4.908  0.6974  0.2670 -0.3905
   10DOPE  H17S 1239   1.336   4.291   5.021  1.0518  0.2143  2.0304
   10DOPE  C218 1240   1.397   4.494   5.063  0.3253 -0.6629  0.2789
   10DOPE  H18R 1241   1.439   4.461   5.160 -1.6021  0.1188  1.4413
   10DOPE  H18S 1242   1.359   4.597   5.082 -1.2038 -1.4105  1.4353
   10DOPE  H18T 1243   1.483   4.499   4.993  0.7433  0.9889  0.8506
   10DOPE   C33 1244  -0.168   4.272   5.916  0.4591  0.0803  0.3359
   10DOPE   H3X 1245  -0.209   4.262   5.813 -0.1988 -1.7987  0.7295
   10DOPE   H3Y 1246  -0.142   4.165   5.931  1.6479  0.1670 -0.9502
   10DOPE   C34 1247  -0.052   4.362   5.931 -0.6827  0.4461  0.0619
   10DOPE   H4X 1248  -0.085   4.466   5.909 -2.5424  0.1537  1.2022
   10DOPE   H4Y 1249  -0.006   4.374   6.031 -0.1079  3.1784 -0.4294
   10DOPE   C35 1250   0.056   4.326   5.831 -0.0105  0.8517 -0.1627
   10DOPE   H5X 1251   0.017   4.308   5.728  0.2838 -1.3750  0.0671
   10DOPE   H5Y 1252   0.111   4.242   5.878  0.1928  2.2009  2.1727
   10DOPE   C36 1253   0.159   4.436   5.823  0.1136  0.4685 -0.3258
   10DOPE   H6X 1254   0.205   4.445   5.924  0.6537  1.2072 -0.6333
   10DOPE   H6Y 1255   0.122   4.533   5.782 -2.4337 -0.4065 -0.2657
   10DOPE   C37 1256   0.271   4.392   5.721 -0.6907 -0.9825 -0.1631
   10DOPE   H7X 1257   0.320   4.305   5.772 -0.5234 -0.4122  0.6698
   10DOPE   H7Y 1258   0.224   4.347   5.631 -1.2650 -0.5392 -0.0901
   10DOPE   C38 1259   0.380   4.498   5.689 -0.3247 -0.1769  0.6851
   10DOPE   H8X 1260   0.426   4.543   5.780 -1.6292 -2.0223  2.3442
   10DOPE   H8Y 1261   0.335   4.583   5.633  0.3862  1.3033  2.2394
   10DOPE   C39 1262   0.486   4.431   5.612 -0.0941  0.4057  0.2578
   10DOPE   H9X 1263   0.495   4.324   5.636  1.1304  0.4495  0.0279
   10DOPE  C310 1264   0.542   4.478   5.501  0.0096 -0.2982 -0.0511
   10DOPE  H10X 1265   0.604   4.414   5.437  0.7604  0.6745 -0.3209
   10DOPE  C311 1266   0.514   4.613   5.451  0.3502 -0.4770 -0.5071
   10DOPE  H11X 1267   0.427   4.602   5.384 -0.7145 -1.3887  0.9518
   10DOPE  H11Y 1268   0.487   4.687   5.529  4.3452 -0.0764  0.7595
   10DOPE  C312 1269   0.623   4.687   5.376  0.1031  0.1605  0.4481
   10DOPE  H12X 1270   0.680   4.604   5.329  0.3036  1.1039 -1.0169
   10DOPE  H12Y 1271   0.692   4.748   5.438  0.2796  0.6448 -0.2268
   10DOPE  C313 1272   0.563   4.786   5.276 -0.1100  0.4309  0.1277
   10DOPE  H13X 1273   0.473   4.734   5.236 -0.4125 -0.7740  2.2201
   10DOPE  H13Y 1274   0.529   4.882   5.320 -0.4284 -0.1063  1.0943
   10DOPE  C314 1275   0.664   4.820   5.166  0.0411  0.0852  0.6059
   10DOPE  H14X 1276   0.631   4.793   5.064 -1.2603 -0.0547  1.0450
   10DOPE  H14Y 1277   0.755   4.758   5.171  1.4717  2.1245  1.4253
   10DOPE  C315 1278   0.721   4.962   5.167 -0.7226  0.4748 -0.3678
   10DOPE  H15X 1279   0.806   4.970   5.095  0.0294  0.0747  0.4664
   10DOPE  H15Y 1280   0.757   5.003   5.263 -2.7360  2.2302 -0.3041
   10DOPE  C316 1281   0.610   5.067   5.120 -0.3511  0.3766  0.3569
   10DOPE  H16X 1282   0.543   5.089   5.205 -1.2912  0.9070 -0.4974
   10DOPE  H16Y 1283   0.546   5.039   5.034  0.3894 -0.1487 -0.0330
   10DOPE  C317 1284   0.660   5.206   5.082 -0.1320 -0.5663  0.4748
   10DOPE  H17X 1285   0.572   5.273   5.074 -0.5235 -1.1113  0.0755
   10DOPE  H17Y 1286   0.731   5.243   5.159  1.5804  0.5509 -1.5380
   10DOPE  C318 1287   0.730   5.217   4.948  0.5882  0.0444  0.0514
   10DOPE  H18X 1288   0.646   5.252   4.884 -0.6659 -0.7483  1.2109
   10DOPE  H18Y 1289   0.802   5.301   4.947 -0.7259  1.2163 -0.4321
   10DOPE  H18Z 1290   0.772   5.124   4.904  3.2972  0.7272  1.0262
   11DOPE     N 1291   7.307   2.036   7.141  0.3173  0.3270 -0.1565
   11DOPE   HN1 1292   7.298   2.140   7.146  0.8779  0.4052 -0.6332
   11DOPE   HN2 1293   7.238   1.997   7.073  0.5872  0.6373 -0.6160
   11DOPE   HN3 1294   7.282   1.999   7.235  0.8565  0.6134  0.1039
   11DOPE   C12 1295   7.437   1.996   7.081 -0.2557 -0.4445 -0.3599
   11DOPE  H12A 1296   7.435   1.885   7.088  1.0577 -0.3810  1.8490
   11DOPE  H12B 1297   7.521   2.038   7.140 -2.4710  0.0623  2.7021
   11DOPE   C11 1298   7.433   2.034   6.929  0.3156  0.2358 -0.7729
   11DOPE  H11A 1299   7.334   2.012   6.884 -0.0990  1.4694 -0.5192
   11DOPE  H11B 1300   7.513   1.969   6.887  0.6263  0.6023 -0.7593
   11DOPE     P 1301   7.406   2.269   6.809  0.1478 -0.1835 -0.5460
   11DOPE   O13 1302   7.476   2.399   6.816 -0.6423 -0.4842  0.3151
   11DOPE   O14 1303   7.256   2.277   6.816 -0.5245  0.0892  0.2135
   11DOPE   O11 1304   7.459   2.179   6.682 -0.6124  0.3826 -0.0684
   11DOPE   O12 1305   7.467   2.176   6.923  0.0904  0.7156 -0.3969
   11DOPE    C1 1306   7.604   2.159   6.684 -0.0713 -0.5683 -0.3518
   11DOPE    HA 1307   7.615   2.057   6.726  1.3582  0.2204  1.2868
   11DOPE    HB 1308   7.663   2.235   6.739  1.5276 -1.2318 -1.0844
   11DOPE    C2 1309   7.665   2.149   6.543 -0.0164  0.2889 -0.1221
   11DOPE    HS 1310   7.772   2.118   6.547  0.3162  1.2371 -1.0490
   11DOPE   O21 1311   7.654   2.277   6.478  0.0467  0.1072  0.3351
   11DOPE   C21 1312   7.756   2.354   6.490 -0.5227  0.6675  0.5522
   11DOPE   O22 1313   7.854   2.328   6.563  0.4104 -0.3268  0.0604
   11DOPE   C22 1314   7.758   2.480   6.412  0.8475 -0.0867 -0.4086
   11DOPE   H2R 1315   7.820   2.557   6.463 -0.6764  2.7185 -2.4829
   11DOPE   H2S 1316   7.655   2.521   6.422  0.7791 -0.5937  1.3696
   11DOPE    C3 1317   7.585   2.035   6.473 -0.8578  0.7091  0.5412
   11DOPE    HX 1318   7.480   2.069   6.469 -1.4408 -1.1167 -1.8124
   11DOPE    HY 1319   7.593   1.940   6.530 -0.0472  1.3291  1.5025
   11DOPE   O31 1320   7.632   2.020   6.338 -0.4327  0.0237  0.1180
   11DOPE   C31 1321   7.544   1.950   6.265  0.1619 -0.3610  0.0119
   11DOPE   O32 1322   7.441   1.902   6.303  0.2955  0.3485  0.2941
   11DOPE   C32 1323   7.597   1.966   6.114 -0.4790 -0.7780  0.4469
   11DOPE   H2X 1324   7.603   2.074   6.089 -0.0566 -0.3006  2.4154
   11DOPE   H2Y 1325   7.697   1.918   6.115 -0.3768 -0.7471  3.4230
   11DOPE   C23 1326   7.817   2.462   6.274 -0.3596 -0.0702  1.0457
   11DOPE   H3R 1327   7.923   2.430   6.281 -0.1884  0.4021  0.6785
   11DOPE   H3S 1328   7.804   2.560   6.223 -0.0618 -0.3952  0.3328
   11DOPE   C24 1329   7.734   2.379   6.174  0.1482 -0.4532 -0.6887
   11DOPE   H4R 1330   7.636   2.430   6.160 -0.3974 -0.9591  1.0379
   11DOPE   H4S 1331   7.716   2.277   6.214 -2.3794  0.2957  0.2593
   11DOPE   C25 1332   7.800   2.378   6.031  0.3097  0.0497  0.9520
   11DOPE   H5R 1333   7.900   2.332   6.047  1.2705  0.8910 -1.9935
   11DOPE   H5S 1334   7.825   2.484   6.011 -0.9272  0.2713  0.5190
   11DOPE   C26 1335   7.722   2.311   5.919 -0.0194  0.1291  0.1535
   11DOPE   H6R 1336   7.651   2.385   5.878 -0.6095 -0.1841  0.6003
   11DOPE   H6S 1337   7.671   2.218   5.950 -1.4551  0.2872 -1.6281
   11DOPE   C27 1338   7.804   2.287   5.788 -0.0627  1.1467  0.2379
   11DOPE   H7R 1339   7.895   2.229   5.813  0.2560  1.4305 -0.2378
   11DOPE   H7S 1340   7.843   2.386   5.755  1.2204  0.7015  0.3420
   11DOPE   C28 1341   7.736   2.209   5.676 -0.4590 -0.7237  0.3892
   11DOPE   H8R 1342   7.712   2.108   5.714 -1.8109 -0.6355 -0.1668
   11DOPE   H8S 1343   7.794   2.204   5.581 -0.3341  1.2788  0.3053
   11DOPE   C29 1344   7.605   2.272   5.638  0.3671 -0.0060 -0.5859
   11DOPE   H9R 1345   7.518   2.228   5.687  1.5605 -1.2821  0.4675
   11DOPE  C210 1346   7.592   2.381   5.557 -0.5027  0.4954 -0.6820
   11DOPE  H10R 1347   7.485   2.400   5.540 -1.3649 -3.4223 -0.6938
   11DOPE  C211 1348   7.699   2.459   5.477  0.5741  0.5644 -0.4598
   11DOPE  H11R 1349   7.801   2.433   5.514 -0.0526 -0.5704  0.5724
   11DOPE  H11S 1350   7.694   2.570   5.480 -4.2423  0.5216  1.9454
   11DOPE  C212 1351   7.698   2.409   5.328  0.1797 -0.1665 -0.5011
   11DOPE  H12R 1352   7.713   2.299   5.327 -0.8679 -0.3156 -1.5750
   11DOPE  H12S 1353   7.792   2.446   5.282  1.0751 -0.2865  1.1467
   11DOPE  C213 1354   7.572   2.439   5.250  0.1418  0.1043  0.1725
   11DOPE  H13R 1355   7.490   2.407   5.318  0.3060 -1.7608 -0.4411
   11DOPE  H13S 1356   7.572   2.375   5.159  0.9968  1.8290 -1.1110
   11DOPE  C214 1357   7.552   2.586   5.226  0.8681  0.3364  0.2329
   11DOPE  H14R 1358   7.640   2.622   5.168  0.4550 -0.1939 -0.7391
   11DOPE  H14S 1359   7.552   2.641   5.323 -0.8123  1.2008 -0.2350
   11DOPE  C215 1360   7.441   2.635   5.128  0.1371 -0.3823 -0.5815
   11DOPE  H15R 1361   7.426   2.573   5.036  2.0437  0.2755 -1.3902
   11DOPE  H15S 1362   7.466   2.736   5.090 -1.6166  0.3841  0.1865
   11DOPE  C216 1363   7.308   2.648   5.199 -0.2166 -0.9723 -0.3008
   11DOPE  H16R 1364   7.314   2.721   5.283  1.9379 -0.9253 -0.4431
   11DOPE  H16S 1365   7.280   2.551   5.247 -1.3987 -0.9312 -0.8738
   11DOPE  C217 1366   7.188   2.680   5.110 -0.1599  0.4735  0.3135
   11DOPE  H17R 1367   7.157   2.587   5.057  1.8998  0.4080 -0.8516
   11DOPE  H17S 1368   7.227   2.752   5.035  0.2245  0.4643  0.5040
   11DOPE  C218 1369   7.064   2.727   5.182  0.0858  0.0974  0.7915
   11DOPE  H18R 1370   6.993   2.781   5.116 -1.1184  1.6783  3.2298
   11DOPE  H18S 1371   7.084   2.799   5.264 -2.5111  1.3842  0.4196
   11DOPE  H18T 1372   7.007   2.640   5.221  0.1617 -0.3329 -0.0488
   11DOPE   C33 1373   7.510   1.892   6.005  0.4294  0.4581  0.3205
   11DOPE   H3X 1374   7.410   1.940   5.995  0.3548  0.0317 -1.4545
   11DOPE   H3Y 1375   7.497   1.786   6.035 -0.6866  0.1988 -0.9485
   11DOPE   C34 1376   7.555   1.908   5.862  0.5210 -0.1116 -0.7963
   11DOPE   H4X 1377   7.577   2.017   5.851 -1.6259  0.2180 -2.5114
   11DOPE   H4Y 1378   7.649   1.850   5.857  0.7660  0.3768 -3.7697
   11DOPE   C35 1379   7.451   1.858   5.767 -0.3673  1.1821  0.0590
   11DOPE   H5X 1380   7.355   1.912   5.755 -1.2614 -0.3365  0.1317
   11DOPE   H5Y 1381   7.421   1.759   5.806  1.5320  0.2630 -0.6936
   11DOPE   C36 1382   7.504   1.839   5.628  0.2173  0.0806  0.0163
   11DOPE   H6X 1383   7.574   1.752   5.628 -1.2446 -1.1305 -0.4372
   11DOPE   H6Y 1384   7.549   1.938   5.606  0.5576  0.0244  0.4440
   11DOPE   C37 1385   7.398   1.797   5.517  0.0831  0.1779  0.1157
   11DOPE   H7X 1386   7.440   1.713   5.458 -1.6482 -1.3555  0.9620
   11DOPE   H7Y 1387   7.305   1.770   5.572 -1.3256  1.5762 -1.4945
   11DOPE   C38 1388   7.370   1.919   5.418 -0.0751 -0.5556  0.0425
   11DOPE   H8X 1389   7.467   1.945   5.370 -0.8028  0.2284 -1.0302
   11DOPE   H8Y 1390   7.337   2.000   5.486  0.6515 -1.2690  1.2896
   11DOPE   C39 1391   7.261   1.891   5.312 -0.8744 -0.4175 -0.6759
   11DOPE   H9X 1392   7.166   1.847   5.347 -0.4181 -1.8496 -1.1668
   11DOPE  C310 1393   7.256   1.940   5.189  0.3358  0.0690  0.2198
   11DOPE  H10X 1394   7.177   1.894   5.127  1.0438 -3.1750  1.5005
   11DOPE  C311 1395   7.365   2.016   5.114 -0.5455  0.3614 -0.5086
   11DOPE  H11X 1396   7.429   2.072   5.185 -1.2430  0.0294  0.3956
   11DOPE  H11Y 1397   7.439   1.950   5.062  0.0347 -0.2661  1.0481
   11DOPE  C312 1398   7.299   2.112   5.022  0.0729  0.2631  0.3841
   11DOPE  H12X 1399   7.239   2.188   5.076 -0.2233  0.5866 -0.3973
   11DOPE  H12Y 1400   7.214   2.080   4.958 -2.6841 -0.4221  4.0638
   11DOPE  C313 1401   7.397   2.189   4.930 -0.4876 -0.2831  0.7219
   11DOPE  H13X 1402   7.492   2.214   4.983 -0.6690 -0.5885  1.1938
   11DOPE  H13Y 1403   7.423   2.115   4.851 -0.7038  0.1555  0.2334
   11DOPE  C314 1404   7.344   2.313   4.868  0.4252  0.1643 -0.7156
   11DOPE  H14X 1405   7.309   2.381   4.949 -0.4225 -1.4408  0.3252
   11DOPE  H14Y 1406   7.268   2.295   4.789 -0.6328 -0.0578  0.3202
   11DOPE  C315 1407   7.451   2.397   4.795  0.5377  0.5164 -0.5874
   11DOPE  H15X 1408   7.502   2.320   4.733  1.5812 -0.9450  1.9394
   11DOPE  H15Y 1409   7.523   2.434   4.871 -1.3101 -1.0019  2.0507
   11DOPE  C316 1410   7.400   2.509   4.708  0.3349 -0.5377 -0.7496
   11DOPE  H16X 1411   7.351   2.581   4.776 -0.6990  0.0839 -2.0929
   11DOPE  H16Y 1412   7.320   2.467   4.643  0.7445 -1.4209 -0.7047
   11DOPE  C317 1413   7.502   2.590   4.630  0.1313 -1.3397  0.0784
   11DOPE  H17X 1414   7.572   2.526   4.573  1.6271  0.0116  0.3324
   11DOPE  H17Y 1415   7.447   2.650   4.554  0.4788 -0.6661  0.3509
   11DOPE  C318 1416   7.595   2.671   4.715  0.1649  0.2748  0.7803
   11DOPE  H18X 1417   7.638   2.760   4.664 -0.3492  0.9502  1.5163
   11DOPE  H18Y 1418   7.536   2.710   4.800 -0.1454 -0.0280  0.7050
   11DOPE  H18Z 1419   7.674   2.603   4.754  0.8934 -1.1938 -2.8005
   12DOPE     N 1420   2.794   6.531   7.597 -0.0029 -0.3108 -0.4323
   12DOPE   HN1 1421   2.805   6.623   7.645  0.9001  1.0408 -3.0168
   12DOPE   HN2 1422   2.711   6.481   7.635  0.2745 -0.9094 -0.5960
   12DOPE   HN3 1423   2.872   6.465   7.615  1.6579  1.7027  0.0979
   12DOPE   C12 1424   2.804   6.563   7.448 -0.9873  0.5043 -0.0006
   12DOPE  H12A 1425   2.724   6.638   7.438 -2.1720 -0.6491  0.4850
   12DOPE  H12B 1426   2.767   6.464   7.414 -0.6446  0.2726  0.2805
   12DOPE   C11 1427   2.942   6.608   7.396 -0.0987 -0.5808 -0.9225
   12DOPE  H11A 1428   2.964   6.708   7.440  0.0997 -0.9079 -0.2570
   12DOPE  H11B 1429   2.944   6.620   7.286 -0.0610 -0.5442 -0.9185
   12DOPE     P 1430   3.193   6.511   7.381  0.1338 -0.0455  0.6926
   12DOPE   O13 1431   3.278   6.442   7.484 -0.5936  0.1671  0.5069
   12DOPE   O14 1432   3.227   6.649   7.334  0.0685  0.9611 -0.1336
   12DOPE   O11 1433   3.180   6.406   7.265  0.0888  0.3240  0.3512
   12DOPE   O12 1434   3.042   6.519   7.441  0.1089  0.9647  0.3467
   12DOPE    C1 1435   3.199   6.442   7.128  0.0584 -0.5224 -0.1099
   12DOPE    HA 1436   3.294   6.399   7.089 -1.0551 -2.3549 -0.9340
   12DOPE    HB 1437   3.202   6.552   7.111 -2.3332  0.1298  2.9058
   12DOPE    C2 1438   3.087   6.400   7.034  0.5332 -0.1703 -0.0373
   12DOPE    HS 1439   2.994   6.450   7.068  0.6594  0.5240 -0.6626
   12DOPE   O21 1440   3.076   6.258   7.046 -0.4018  0.4973  0.2675
   12DOPE   C21 1441   2.960   6.206   7.028 -0.5981 -0.8287  0.6061
   12DOPE   O22 1442   2.857   6.272   7.016  0.3956  0.3036 -0.1725
   12DOPE   C22 1443   2.962   6.059   7.021  0.2577 -0.1948 -0.5594
   12DOPE   H2R 1444   2.985   6.027   7.125 -1.5397  1.5790  0.4454
   12DOPE   H2S 1445   3.046   6.018   6.961 -0.3974 -3.0955  0.3179
   12DOPE    C3 1446   3.110   6.437   6.886  0.8415  0.0961  0.2778
   12DOPE    HX 1447   3.126   6.547   6.891 -2.1685  0.6772 -0.6731
   12DOPE    HY 1448   3.019   6.422   6.823 -0.2244 -3.1507  2.3514
   12DOPE   O31 1449   3.231   6.385   6.836 -0.0636  0.5786 -0.0343
   12DOPE   C31 1450   3.214   6.266   6.775 -0.8066  0.2068 -0.2287
   12DOPE   O32 1451   3.107   6.207   6.768  0.1280  0.5163 -0.9668
   12DOPE   C32 1452   3.350   6.212   6.734  0.4328 -0.0122 -0.1745
   12DOPE   H2X 1453   3.432   6.279   6.769  1.1442 -0.6114 -0.6711
   12DOPE   H2Y 1454   3.358   6.116   6.790 -0.7360 -0.8090 -1.3459
   12DOPE   C23 1455   2.824   6.011   6.967  0.3376  0.1605  0.0322
   12DOPE   H3R 1456   2.742   6.049   7.033  0.5220  2.0767 -0.7665
   12DOPE   H3S 1457   2.824   5.902   6.987 -0.8701  0.1492  0.0565
   12DOPE   C24 1458   2.797   6.018   6.820  0.7600 -0.3011  0.0984
   12DOPE   H4R 1459   2.890   5.991   6.765  0.4938  2.3008 -1.8477
   12DOPE   H4S 1460   2.769   6.120   6.785  1.2252 -0.5188 -0.9318
   12DOPE   C25 1461   2.680   5.921   6.774 -0.0203 -0.3248  0.6278
   12DOPE   H5R 1462   2.596   5.930   6.846 -0.1370  0.0982  0.4437
   12DOPE   H5S 1463   2.724   5.819   6.777  0.8460 -0.0875 -1.6103
   12DOPE   C26 1464   2.632   5.947   6.634 -0.3271 -0.5143  0.7318
   12DOPE   H6R 1465   2.684   5.875   6.567 -0.6717  0.1162 -0.2236
   12DOPE   H6S 1466   2.648   6.051   6.598 -2.6476 -0.4699 -0.3322
   12DOPE   C27 1467   2.482   5.912   6.625 -0.3347  0.6742  0.1214
   12DOPE   H7R 1468   2.422   5.956   6.708 -1.7689 -1.3904  0.2457
   12DOPE   H7S 1469   2.482   5.802   6.640 -1.2556  0.9158  2.3532
   12DOPE   C28 1470   2.422   5.943   6.489  0.2631  0.0024  0.5097
   12DOPE   H8R 1471   2.411   6.052   6.471  1.4535  0.0052 -0.3115
   12DOPE   H8S 1472   2.318   5.904   6.486  0.7033 -1.1994  0.4100
   12DOPE   C29 1473   2.505   5.884   6.375 -0.2970  0.5408 -0.1195
   12DOPE   H9R 1474   2.604   5.930   6.360  0.0138  0.0856  0.5011
   12DOPE  C210 1475   2.472   5.792   6.278 -0.0442 -0.0076  0.3171
   12DOPE  H10R 1476   2.536   5.776   6.190 -1.3552 -3.3338 -0.1518
   12DOPE  C211 1477   2.341   5.723   6.279  0.8811  0.2210 -0.4779
   12DOPE  H11R 1478   2.286   5.731   6.375  0.5589 -0.0672 -0.6346
   12DOPE  H11S 1479   2.352   5.613   6.272  1.6635  0.1916  1.0592
   12DOPE  C212 1480   2.224   5.767   6.186  0.2137  0.1917 -0.9112
   12DOPE  H12R 1481   2.208   5.872   6.218  0.4142 -0.1883  0.5379
   12DOPE  H12S 1482   2.138   5.708   6.223  2.1567 -0.9354  2.2856
   12DOPE  C213 1483   2.254   5.753   6.040 -0.0917 -0.2867 -0.0590
   12DOPE  H13R 1484   2.356   5.793   6.022  0.7175 -2.0408  0.3657
   12DOPE  H13S 1485   2.186   5.815   5.978  1.1209  0.5628 -0.5935
   12DOPE  C214 1486   2.263   5.606   5.987 -0.7569  0.1026  0.0041
   12DOPE  H14R 1487   2.167   5.556   5.963 -0.0096 -1.2068 -0.3712
   12DOPE  H14S 1488   2.313   5.549   6.068 -0.0892  1.9252  0.9278
   12DOPE  C215 1489   2.363   5.612   5.871 -0.5543  0.2345  0.4044
   12DOPE  H15R 1490   2.464   5.636   5.910 -0.2168  0.7858 -0.7707
   12DOPE  H15S 1491   2.338   5.693   5.799 -0.8837  0.0039  0.2594
   12DOPE  C216 1492   2.358   5.489   5.789  0.0891  0.2165  0.1847
   12DOPE  H16R 1493   2.254   5.450   5.788 -0.0629  0.6243  0.0217
   12DOPE  H16S 1494   2.425   5.412   5.833 -0.2843 -0.6667 -0.7289
   12DOPE  C217 1495   2.405   5.511   5.648  0.0419 -0.0580  0.9540
   12DOPE  H17R 1496   2.505   5.559   5.637 -0.5772  0.8362 -1.3918
   12DOPE  H17S 1497   2.332   5.581   5.602  1.2610  0.2803 -0.5222
   12DOPE  C218 1498   2.404   5.383   5.570 -0.3989  0.1604 -0.1363
   12DOPE  H18R 1499   2.433   5.396   5.464 -1.3205  0.3764 -0.3734
   12DOPE  H18S 1500   2.302   5.341   5.557  0.1625 -0.6868 -2.0911
   12DOPE  H18T 1501   2.478   5.311   5.610  2.0647  2.1885 -0.7688
   12DOPE   C33 1502   3.353   6.196   6.585 -0.7794  0.5584  0.6109
   12DOPE   H3X 1503   3.262   6.147   6.546  0.9034 -1.0242 -1.5464
   12DOPE   H3Y 1504   3.439   6.138   6.545 -0.7293  2.2330 -1.8999
   12DOPE   C34 1505   3.380   6.331   6.519  0.0773  0.2061 -0.7888
   12DOPE   H4X 1506   3.295   6.397   6.544 -0.1695  0.2513 -1.7249
   12DOPE   H4Y 1507   3.470   6.387   6.553 -0.7520  0.6339  0.7686
   12DOPE   C35 1508   3.389   6.313   6.363  0.1673 -0.0423 -0.0993
   12DOPE   H5X 1509   3.301   6.261   6.321  0.2302 -0.4392  0.2546
   12DOPE   H5Y 1510   3.482   6.255   6.345  0.5939  0.0275  1.6637
   12DOPE   C36 1511   3.413   6.440   6.287  0.0938  0.1627 -0.2730
   12DOPE   H6X 1512   3.442   6.415   6.183  2.3013 -2.2187  0.7936
   12DOPE   H6Y 1513   3.502   6.486   6.335 -0.0093  0.2133 -0.1295
   12DOPE   C37 1514   3.304   6.545   6.281  0.7982 -0.1889  0.3220
   12DOPE   H7X 1515   3.282   6.567   6.388  0.5349 -1.5623  0.5644
   12DOPE   H7Y 1516   3.348   6.635   6.233 -0.1917 -0.1826 -0.6124
   12DOPE   C38 1517   3.171   6.516   6.206  0.4726 -0.5173  0.0947
   12DOPE   H8X 1518   3.125   6.442   6.275  0.4045 -0.2115  0.3783
   12DOPE   H8Y 1519   3.201   6.456   6.117  2.6500  0.7663 -0.0928
   12DOPE   C39 1520   3.081   6.632   6.170 -0.3467 -0.3393  0.7755
   12DOPE   H9X 1521   3.046   6.705   6.244 -0.1370  1.2182 -0.6029
   12DOPE  C310 1522   3.054   6.673   6.042 -0.2114 -0.1540  0.1599
   12DOPE  H10X 1523   2.984   6.755   6.018  0.2399 -0.1144 -1.0527
   12DOPE  C311 1524   3.110   6.611   5.912  0.4929  0.3092  0.1271
   12DOPE  H11X 1525   3.136   6.503   5.915  3.4116  0.9500  0.6170
   12DOPE  H11Y 1526   3.034   6.631   5.833  2.3203  0.2715 -1.7479
   12DOPE  C312 1527   3.229   6.684   5.858 -0.2284 -0.6078  0.0610
   12DOPE  H12X 1528   3.319   6.654   5.916 -0.8840 -1.8223  0.4759
   12DOPE  H12Y 1529   3.213   6.794   5.847  1.7544 -0.4116 -1.2785
   12DOPE  C313 1530   3.242   6.625   5.713  0.1946 -0.0401 -0.1062
   12DOPE  H13X 1531   3.342   6.657   5.676  0.5419 -0.8086  0.1532
   12DOPE  H13Y 1532   3.234   6.514   5.712  0.6734 -0.0867  0.3308
   12DOPE  C314 1533   3.141   6.680   5.604 -0.4032 -0.3713 -0.6655
   12DOPE  H14X 1534   3.173   6.785   5.585 -0.3908  0.1969  2.0616
   12DOPE  H14Y 1535   3.035   6.680   5.639 -0.2648  0.5170 -0.2133
   12DOPE  C315 1536   3.147   6.604   5.478  0.4738  0.0140 -0.0306
   12DOPE  H15X 1537   3.106   6.504   5.504  2.3083 -0.8853 -0.4448
   12DOPE  H15Y 1538   3.251   6.587   5.443  0.3527  1.6061 -1.2658
   12DOPE  C316 1539   3.058   6.667   5.368 -0.6134  0.4128  0.2070
   12DOPE  H16X 1540   3.108   6.764   5.346 -0.6805  0.4906  0.3901
   12DOPE  H16Y 1541   2.958   6.697   5.406 -0.4843  0.4180  0.5462
   12DOPE  C317 1542   3.058   6.585   5.242  0.6079 -0.2591 -0.3843
   12DOPE  H17X 1543   2.994   6.495   5.256  2.9845 -1.8992  0.6341
   12DOPE  H17Y 1544   3.013   6.642   5.159 -0.6221 -2.1038 -1.0373
   12DOPE  C318 1545   3.188   6.523   5.190  0.7100  0.2971 -0.7384
   12DOPE  H18X 1546   3.212   6.432   5.249  2.3382 -1.3038 -3.6262
   12DOPE  H18Y 1547   3.177   6.497   5.082 -0.6054  1.8378 -1.0146
   12DOPE  H18Z 1548   3.277   6.590   5.182 -0.1534  1.4336 -1.0247
   13DOPE     N 1549   2.596   7.645   6.893 -0.1518  0.0911 -0.1366
   13DOPE   HN1 1550   2.542   7.607   6.973 -0.8574 -1.1902 -1.1733
   13DOPE   HN2 1551   2.654   7.565   6.859  0.9511 -0.9973  3.8486
   13DOPE   HN3 1552   2.649   7.729   6.925  1.1080 -0.7032 -0.0420
   13DOPE   C12 1553   2.504   7.677   6.781  0.4731  0.4602  0.3455
   13DOPE  H12A 1554   2.442   7.586   6.768 -1.4990  1.7761 -0.0029
   13DOPE  H12B 1555   2.566   7.699   6.692 -0.7310 -1.4835 -1.0312
   13DOPE   C11 1556   2.420   7.798   6.822 -0.0579 -0.9228 -0.0645
   13DOPE  H11A 1557   2.359   7.831   6.736 -0.4697 -0.3036  0.4601
   13DOPE  H11B 1558   2.491   7.883   6.836 -1.4091  0.3117 -0.4518
   13DOPE     P 1559   2.225   7.864   6.976 -0.0539  0.1559 -0.2710
   13DOPE   O13 1560   2.278   7.995   7.012 -0.1371 -0.8379 -0.0427
   13DOPE   O14 1561   2.145   7.793   7.075 -0.4013 -0.7247  0.0647
   13DOPE   O11 1562   2.159   7.886   6.839 -0.1847 -0.3872  0.2140
   13DOPE   O12 1563   2.339   7.763   6.932 -0.1816  0.0796  0.0244
   13DOPE    C1 1564   2.081   7.779   6.787  0.1464  0.0082 -0.0743
   13DOPE    HA 1565   1.978   7.800   6.822 -0.3494  1.4846 -2.2110
   13DOPE    HB 1566   2.119   7.678   6.815  0.2006  0.4522  1.5511
   13DOPE    C2 1567   2.078   7.774   6.628 -0.0557  0.4634  0.1329
   13DOPE    HS 1568   2.182   7.795   6.592  0.3025 -1.1510  0.1391
   13DOPE   O21 1569   1.995   7.888   6.594  0.4326  0.4508 -0.1134
   13DOPE   C21 1570   2.018   7.935   6.478  0.7101 -0.7245 -0.3389
   13DOPE   O22 1571   2.111   7.908   6.404 -0.2524 -0.1835 -0.3714
   13DOPE   C22 1572   1.936   8.066   6.451 -0.3956 -0.4419 -0.0068
   13DOPE   H2R 1573   2.014   8.140   6.477  0.3852 -0.5666 -1.7970
   13DOPE   H2S 1574   1.840   8.077   6.505 -0.0273 -0.7048  0.7140
   13DOPE    C3 1575   2.027   7.643   6.569 -0.0554 -0.1169  0.4400
   13DOPE    HX 1576   1.925   7.632   6.610 -0.0219 -1.1647  0.2584
   13DOPE    HY 1577   2.086   7.556   6.604 -1.9726 -1.5441  0.2504
   13DOPE   O31 1578   2.013   7.636   6.425  0.0642  0.2604 -0.0604
   13DOPE   C31 1579   2.130   7.626   6.357 -0.0926 -0.0679 -0.2983
   13DOPE   O32 1580   2.238   7.617   6.418 -0.0202 -0.0429 -0.1783
   13DOPE   C32 1581   2.105   7.625   6.204  0.1903 -0.3276 -0.5989
   13DOPE   H2X 1582   2.057   7.529   6.178 -1.6481 -0.0527  1.5235
   13DOPE   H2Y 1583   2.042   7.715   6.188  2.2612  1.2820 -0.1908
   13DOPE   C23 1584   1.902   8.091   6.303  0.1363 -0.0635  0.3244
   13DOPE   H3R 1585   1.981   8.053   6.235  1.5879  1.5488  1.0432
   13DOPE   H3S 1586   1.893   8.202   6.300 -1.5491 -0.0941  1.9601
   13DOPE   C24 1587   1.755   8.041   6.266  0.0222 -0.5616  0.6874
   13DOPE   H4R 1588   1.678   8.092   6.328  0.1704 -0.3125  0.6711
   13DOPE   H4S 1589   1.749   7.932   6.283 -3.0467 -0.6507 -0.4850
   13DOPE   C25 1590   1.706   8.084   6.123  0.5761  1.1454  0.1487
   13DOPE   H5R 1591   1.698   8.195   6.121  1.3317  1.1951 -1.3802
   13DOPE   H5S 1592   1.602   8.048   6.108  1.0247 -0.8084  1.3840
   13DOPE   C26 1593   1.792   8.034   6.003  0.3869 -0.4335 -0.1594
   13DOPE   H6R 1594   1.890   8.085   6.000  1.3567 -2.2337 -0.5939
   13DOPE   H6S 1595   1.746   8.061   5.906 -0.4972  2.5724  0.9688
   13DOPE   C27 1596   1.833   7.886   5.994 -0.3706 -0.3192  0.3236
   13DOPE   H7R 1597   1.752   7.812   6.014 -0.9096 -0.0440 -0.7437
   13DOPE   H7S 1598   1.909   7.864   6.071 -3.2979 -0.7856  3.3390
   13DOPE   C28 1599   1.875   7.858   5.847 -0.4869 -0.2305  0.3025
   13DOPE   H8R 1600   1.962   7.789   5.846  2.3701  3.0868  0.6587
   13DOPE   H8S 1601   1.925   7.953   5.816 -0.3341 -0.3253  0.2609
   13DOPE   C29 1602   1.760   7.818   5.753 -0.3815  0.3472  0.1451
   13DOPE   H9R 1603   1.661   7.797   5.795 -0.6110 -1.6786 -1.2717
   13DOPE  C210 1604   1.767   7.815   5.621  0.3557 -0.0212  0.9386
   13DOPE  H10R 1605   1.684   7.775   5.561  0.8779 -0.6538  0.6237
   13DOPE  C211 1606   1.883   7.866   5.540  1.4255  0.8690 -0.1934
   13DOPE  H11R 1607   1.901   7.797   5.455  0.9529 -0.5313  0.8116
   13DOPE  H11S 1608   1.977   7.872   5.600  1.8491  0.0105 -0.7474
   13DOPE  C212 1609   1.856   8.011   5.491  0.4097 -0.0899  0.2906
   13DOPE  H12R 1610   1.952   8.057   5.461  0.1278  0.7614  0.6475
   13DOPE  H12S 1611   1.807   8.064   5.575 -0.6223 -0.9577  0.2658
   13DOPE  C213 1612   1.767   8.033   5.367 -0.7728  0.6858  0.1722
   13DOPE  H13R 1613   1.741   8.140   5.363  0.3226  1.0895  2.4301
   13DOPE  H13S 1614   1.677   7.968   5.374  0.2073 -0.8040 -0.4052
   13DOPE  C214 1615   1.853   7.997   5.242  0.0162 -0.2789  0.2077
   13DOPE  H14R 1616   1.905   7.899   5.251 -1.4446 -1.0631  0.3348
   13DOPE  H14S 1617   1.934   8.074   5.239 -0.2785  0.0181 -0.4023
   13DOPE  C215 1618   1.794   8.015   5.104  0.5469  0.0062  0.1288
   13DOPE  H15R 1619   1.692   8.055   5.123  0.0583 -1.8644  1.9288
   13DOPE  H15S 1620   1.787   7.914   5.056 -0.9381  0.5376 -0.8435
   13DOPE  C216 1621   1.868   8.109   5.007 -0.4428 -0.5383  0.6577
   13DOPE  H16R 1622   1.964   8.066   4.969  0.0168 -0.8352  2.1135
   13DOPE  H16S 1623   1.890   8.208   5.052  1.0994  0.2865 -1.7194
   13DOPE  C217 1624   1.774   8.151   4.890 -0.5577  0.1846 -0.2023
   13DOPE  H17R 1625   1.698   8.218   4.936 -0.2304 -0.7074  1.7619
   13DOPE  H17S 1626   1.732   8.053   4.858  1.7112 -0.2787 -2.0206
   13DOPE  C218 1627   1.844   8.226   4.777 -0.1699 -0.6469 -0.0245
   13DOPE  H18R 1628   1.913   8.300   4.820  2.2148 -2.4965 -0.4459
   13DOPE  H18S 1629   1.772   8.276   4.709 -1.5379  0.2869  2.0216
   13DOPE  H18T 1630   1.907   8.152   4.723  1.2385  1.0612 -0.8092
   13DOPE   C33 1631   2.242   7.650   6.129  0.8529  0.5633 -0.2657
   13DOPE   H3X 1632   2.316   7.570   6.152 -0.6860 -0.5535  1.0262
   13DOPE   H3Y 1633   2.281   7.746   6.172  1.1438 -0.0138  0.8001
   13DOPE   C34 1634   2.220   7.667   5.978 -0.2767  0.8816 -0.3276
   13DOPE   H4X 1635   2.141   7.739   5.949 -0.8407 -0.1975 -1.5774
   13DOPE   H4Y 1636   2.313   7.701   5.928 -0.7329  1.1509 -1.0052
   13DOPE   C35 1637   2.174   7.533   5.915 -0.9541  0.3414 -0.0139
   13DOPE   H5X 1638   2.070   7.524   5.954 -0.7491 -1.5930  0.1765
   13DOPE   H5Y 1639   2.250   7.457   5.945 -3.1051 -1.0733  2.2549
   13DOPE   C36 1640   2.164   7.540   5.765  0.1308 -0.0707  0.0947
   13DOPE   H6X 1641   2.255   7.576   5.712  0.4234  0.7247  1.1042
   13DOPE   H6Y 1642   2.085   7.616   5.747 -2.2498 -2.2509  0.6588
   13DOPE   C37 1643   2.130   7.399   5.712  0.4046 -0.4933 -0.6240
   13DOPE   H7X 1644   2.200   7.330   5.764  2.0536  0.1436 -1.8986
   13DOPE   H7Y 1645   2.026   7.370   5.738  0.1312  1.8699  1.2277
   13DOPE   C38 1646   2.157   7.390   5.563  0.3500 -0.1554  0.5126
   13DOPE   H8X 1647   2.143   7.285   5.529  0.7506 -0.1009  0.1663
   13DOPE   H8Y 1648   2.264   7.411   5.541  0.0909 -0.6847 -1.4921
   13DOPE   C39 1649   2.056   7.476   5.493  0.2998 -0.0663 -1.1160
   13DOPE   H9X 1650   2.061   7.582   5.523  0.2181 -0.2623 -0.4018
   13DOPE  C310 1651   1.943   7.437   5.427 -0.5322  0.1987 -0.0745
   13DOPE  H10X 1652   1.874   7.514   5.388 -0.0766  0.7342  0.1484
   13DOPE  C311 1653   1.898   7.302   5.394 -0.1253 -0.2151  0.4296
   13DOPE  H11X 1654   1.956   7.240   5.465  1.2993  0.3251 -0.2086
   13DOPE  H11Y 1655   1.796   7.277   5.431  0.0537 -0.1867  0.9455
   13DOPE  C312 1656   1.927   7.247   5.254  0.5105  0.4109  0.7713
   13DOPE  H12X 1657   1.917   7.136   5.250 -0.3595  0.4900 -2.3270
   13DOPE  H12Y 1658   2.032   7.271   5.227  0.6993 -0.4673  0.6811
   13DOPE  C313 1659   1.822   7.301   5.150  0.0702  0.2697  0.1905
   13DOPE  H13X 1660   1.721   7.260   5.172 -0.5361  0.4536 -1.9892
   13DOPE  H13Y 1661   1.819   7.412   5.140  1.2340  0.4002  1.0286
   13DOPE  C314 1662   1.861   7.245   5.014  0.2056  0.1791  0.3178
   13DOPE  H14X 1663   1.879   7.136   5.028  1.1961  0.4467  1.2632
   13DOPE  H14Y 1664   1.956   7.293   4.982 -0.8959  1.4569 -1.2073
   13DOPE  C315 1665   1.745   7.282   4.917 -0.6190  0.1749  0.6964
   13DOPE  H15X 1666   1.750   7.393   4.914  0.3521  0.1394 -1.4806
   13DOPE  H15Y 1667   1.649   7.232   4.943 -1.1802  0.0314 -1.4459
   13DOPE  C316 1668   1.772   7.233   4.778 -0.0852  0.6030  0.0468
   13DOPE  H16X 1669   1.782   7.123   4.791 -1.3859  0.5783  1.0607
   13DOPE  H16Y 1670   1.864   7.277   4.734 -1.2870  0.9470 -2.2641
   13DOPE  C317 1671   1.664   7.257   4.684  0.4316  0.3578  0.2014
   13DOPE  H17X 1672   1.566   7.222   4.724  0.4342 -0.2765 -0.3306
   13DOPE  H17Y 1673   1.651   7.362   4.653  2.7212  1.0911  1.4785
   13DOPE  C318 1674   1.678   7.162   4.561 -0.3278 -0.0709  0.3845
   13DOPE  H18X 1675   1.761   7.199   4.497 -0.5077 -0.3994 -0.0386
   13DOPE  H18Y 1676   1.712   7.059   4.584  0.6743  0.1829  0.0794
   13DOPE  H18Z 1677   1.587   7.150   4.498  1.4120 -2.3572 -1.9299
   14DOPE     N 1678   5.401   4.023   7.229 -0.3258 -0.1173 -0.0264
   14DOPE   HN1 1679   5.421   4.073   7.318  1.8314  0.3673 -0.7322
   14DOPE   HN2 1680   5.348   3.935   7.242  0.9395 -0.9488 -0.2838
   14DOPE   HN3 1681   5.494   3.990   7.197 -1.0304 -1.8347 -0.4209
   14DOPE   C12 1682   5.335   4.116   7.126  0.2776  0.3683 -0.2868
   14DOPE  H12A 1683   5.355   4.220   7.160  0.9428 -0.1626  1.0073
   14DOPE  H12B 1684   5.227   4.087   7.124  0.2400  0.5232 -1.0807
   14DOPE   C11 1685   5.395   4.084   6.987  0.7250  0.2126 -0.0397
   14DOPE  H11A 1686   5.343   4.150   6.915  1.5273  1.1126  0.1868
   14DOPE  H11B 1687   5.380   3.979   6.955  0.6287  0.4246 -0.7080
   14DOPE     P 1688   5.604   4.219   6.899 -0.0309  0.1979 -0.3582
   14DOPE   O13 1689   5.753   4.215   6.932  0.1927 -0.1073  0.4242
   14DOPE   O14 1690   5.524   4.343   6.923 -0.1627  0.4329 -0.2205
   14DOPE   O11 1691   5.563   4.156   6.754  0.5957 -0.0465 -0.1275
   14DOPE   O12 1692   5.539   4.112   6.992 -0.1981  0.0384 -0.1193
   14DOPE    C1 1693   5.638   4.201   6.642  0.2944 -0.7640 -0.4816
   14DOPE    HA 1694   5.742   4.160   6.641  1.2174  1.4223 -1.6748
   14DOPE    HB 1695   5.641   4.312   6.641 -1.2126 -0.7054 -1.3202
   14DOPE    C2 1696   5.562   4.165   6.504  0.3421  0.7491 -0.2640
   14DOPE    HS 1697   5.574   4.058   6.477 -2.0197 -0.0726  1.6228
   14DOPE   O21 1698   5.605   4.240   6.394 -0.2593 -0.3119  0.1734
   14DOPE   C21 1699   5.734   4.224   6.353 -0.1277  1.0073 -0.5311
   14DOPE   O22 1700   5.812   4.139   6.397  0.1326  0.3912 -0.6520
   14DOPE   C22 1701   5.777   4.341   6.270 -0.7028 -0.5834  0.2397
   14DOPE   H2R 1702   5.878   4.360   6.312 -0.6370  0.1007 -0.2268
   14DOPE   H2S 1703   5.707   4.426   6.286 -0.6209 -0.4351 -0.1811
   14DOPE    C3 1704   5.405   4.180   6.518 -0.1811 -0.3291 -0.0821
   14DOPE    HX 1705   5.387   4.283   6.556 -3.5593 -1.8844  3.1972
   14DOPE    HY 1706   5.367   4.125   6.607 -1.2448  0.1818 -0.2019
   14DOPE   O31 1707   5.332   4.150   6.396  0.2848 -0.6127  0.2188
   14DOPE   C31 1708   5.215   4.202   6.379  0.2009  0.6509  0.2505
   14DOPE   O32 1709   5.170   4.305   6.430 -0.4856 -1.0125 -0.0239
   14DOPE   C32 1710   5.132   4.110   6.277  0.3514 -0.8256 -0.3281
   14DOPE   H2X 1711   5.197   4.107   6.187  0.4889  1.0643 -0.3391
   14DOPE   H2Y 1712   5.109   4.012   6.323 -0.2932 -0.3119  0.4760
   14DOPE   C23 1713   5.807   4.293   6.130 -0.1177 -0.7109  0.3227
   14DOPE   H3R 1714   5.710   4.282   6.077  0.7178  2.9574 -2.4090
   14DOPE   H3S 1715   5.853   4.193   6.140 -2.0539 -1.6943 -0.1023
   14DOPE   C24 1716   5.904   4.386   6.058 -0.2795  0.1006 -0.4043
   14DOPE   H4R 1717   5.921   4.347   5.955 -0.5200  1.1121 -0.8335
   14DOPE   H4S 1718   6.004   4.398   6.105 -2.5607  2.9177  4.3899
   14DOPE   C25 1719   5.858   4.530   6.056  0.0144 -0.5494  0.0414
   14DOPE   H5R 1720   5.865   4.564   6.162  0.6080  3.1447 -1.0160
   14DOPE   H5S 1721   5.752   4.536   6.025  0.4900 -2.3386 -2.2043
   14DOPE   C26 1722   5.955   4.614   5.965  0.0858  0.7597  0.1577
   14DOPE   H6R 1723   6.061   4.606   5.996  0.2482  1.4105 -0.2017
   14DOPE   H6S 1724   5.926   4.720   5.982 -1.9008  0.0211  1.8107
   14DOPE   C27 1725   5.946   4.582   5.814 -0.0073 -0.4003  0.8345
   14DOPE   H7R 1726   5.842   4.587   5.775  0.8934  1.9082 -1.6460
   14DOPE   H7S 1727   5.969   4.475   5.796 -2.6095 -0.6829 -1.4948
   14DOPE   C28 1728   6.047   4.667   5.727 -0.3843  0.2114 -0.4666
   14DOPE   H8R 1729   6.150   4.632   5.753 -0.5693 -1.7160 -2.0330
   14DOPE   H8S 1730   6.038   4.775   5.749 -4.0812 -0.4320  2.1484
   14DOPE   C29 1731   6.032   4.637   5.577  0.6470  0.3441 -0.0591
   14DOPE   H9R 1732   6.061   4.537   5.542  0.7712  0.1619  0.5377
   14DOPE  C210 1733   5.954   4.709   5.492  0.0127  0.0615  1.0779
   14DOPE  H10R 1734   5.945   4.673   5.388  0.5882 -0.2862  1.1429
   14DOPE  C211 1735   5.876   4.834   5.520  0.7011 -0.0203 -0.2718
   14DOPE  H11R 1736   5.942   4.920   5.498  0.8197  0.1966  0.8868
   14DOPE  H11S 1737   5.845   4.843   5.626  3.1877 -0.4527  0.5516
   14DOPE  C212 1738   5.755   4.843   5.423 -0.5337 -0.2926 -0.1096
   14DOPE  H12R 1739   5.684   4.911   5.475  0.6269 -0.0095  1.1776
   14DOPE  H12S 1740   5.698   4.748   5.424  1.2760 -1.4279  0.0812
   14DOPE  C213 1741   5.800   4.898   5.292  0.1267 -0.0367  0.2016
   14DOPE  H13R 1742   5.848   4.828   5.219 -0.1209 -1.0513  0.9979
   14DOPE  H13S 1743   5.879   4.975   5.306 -1.0518  0.6279  4.6665
   14DOPE  C214 1744   5.683   4.965   5.220 -0.0176 -0.0436 -0.0830
   14DOPE  H14R 1745   5.619   5.028   5.285  0.7397 -0.5051  1.1460
   14DOPE  H14S 1746   5.620   4.878   5.190  0.1782  0.4036 -1.8563
   14DOPE  C215 1747   5.721   5.036   5.093 -0.4475  0.3747 -0.2174
   14DOPE  H15R 1748   5.790   4.972   5.034  0.2698 -1.1925  2.1644
   14DOPE  H15S 1749   5.769   5.134   5.119 -2.0092  0.9884  0.4928
   14DOPE  C216 1750   5.605   5.074   4.995  0.2376 -0.0285 -0.4309
   14DOPE  H16R 1751   5.576   4.976   4.952  2.5326 -1.0174  0.1424
   14DOPE  H16S 1752   5.642   5.140   4.914 -0.1611  1.2887  0.4326
   14DOPE  C217 1753   5.487   5.140   5.065  0.4453 -0.3487  0.6108
   14DOPE  H17R 1754   5.447   5.073   5.143 -1.6564  2.4940  2.1707
   14DOPE  H17S 1755   5.404   5.171   4.999 -0.5517 -1.4570  1.3087
   14DOPE  C218 1756   5.533   5.271   5.142  0.3065 -0.1939 -0.1049
   14DOPE  H18R 1757   5.578   5.342   5.070  2.6966 -0.3200  1.1752
   14DOPE  H18S 1758   5.593   5.252   5.233  1.6330 -0.6201 -1.0387
   14DOPE  H18T 1759   5.436   5.308   5.181 -1.0033 -2.1125 -1.3247
   14DOPE   C33 1760   5.001   4.182   6.230 -0.1256  0.7912  0.2347
   14DOPE   H3X 1761   4.948   4.219   6.321 -0.9162  0.7542 -0.1994
   14DOPE   H3Y 1762   4.950   4.096   6.181  0.7442  0.9081 -0.9155
   14DOPE   C34 1763   5.041   4.301   6.141  0.6539 -0.7332 -0.2363
   14DOPE   H4X 1764   5.076   4.391   6.196 -1.5401  1.5338 -2.2988
   14DOPE   H4Y 1765   5.120   4.266   6.071  2.6692  2.0550  0.4921
   14DOPE   C35 1766   4.923   4.349   6.057 -0.6976  0.0307 -0.1026
   14DOPE   H5X 1767   4.907   4.456   6.080 -3.4839 -0.2985 -0.1510
   14DOPE   H5Y 1768   4.832   4.293   6.089 -0.4989 -0.5846 -0.5792
   14DOPE   C36 1769   4.922   4.330   5.907  0.1066 -0.0861 -0.4176
   14DOPE   H6X 1770   4.913   4.222   5.885 -0.3226 -0.5436  1.8294
   14DOPE   H6Y 1771   5.011   4.376   5.858  0.8018 -0.4777  0.4552
   14DOPE   C37 1772   4.802   4.406   5.841  0.2389 -0.4776  0.0934
   14DOPE   H7X 1773   4.708   4.377   5.892  0.6418  2.4655  2.8547
   14DOPE   H7Y 1774   4.820   4.510   5.875 -1.9943 -0.1720  0.4397
   14DOPE   C38 1775   4.784   4.393   5.686 -0.4408 -0.1276 -0.1126
   14DOPE   H8X 1776   4.869   4.445   5.636  1.4321  0.3836  3.2822
   14DOPE   H8Y 1777   4.691   4.443   5.654 -0.0850 -0.1240 -1.1900
   14DOPE   C39 1778   4.799   4.249   5.642 -0.1658  0.4388 -0.0855
   14DOPE   H9X 1779   4.894   4.202   5.672 -0.5455  0.2875  0.9186
   14DOPE  C310 1780   4.716   4.179   5.564  0.7788 -0.0030  0.4943
   14DOPE  H10X 1781   4.743   4.078   5.530  1.0100 -0.8496  3.0115
   14DOPE  C311 1782   4.580   4.227   5.514  0.5618 -0.0643  0.4090
   14DOPE  H11X 1783   4.497   4.152   5.516  1.4379 -1.0535  1.2105
   14DOPE  H11Y 1784   4.534   4.302   5.581  0.8439 -1.4297  2.2217
   14DOPE  C312 1785   4.583   4.274   5.367 -0.2020  0.3674  0.0576
   14DOPE  H12X 1786   4.611   4.184   5.307 -1.2201 -1.7761  2.5666
   14DOPE  H12Y 1787   4.666   4.346   5.350  1.5825 -1.4864  0.4048
   14DOPE  C313 1788   4.457   4.335   5.307  0.1934 -0.2840 -0.8050
   14DOPE  H13X 1789   4.463   4.343   5.196 -1.8268  1.8066 -0.8533
   14DOPE  H13Y 1790   4.371   4.267   5.326 -1.0675  1.4200 -0.1156
   14DOPE  C314 1791   4.432   4.474   5.355  0.0134  0.0195 -0.0318
   14DOPE  H14X 1792   4.486   4.545   5.289 -2.8169  2.4666  0.0817
   14DOPE  H14Y 1793   4.473   4.493   5.456 -2.1902  1.4009  0.6802
   14DOPE  C315 1794   4.279   4.521   5.361  0.5476  0.0426 -0.2110
   14DOPE  H15X 1795   4.275   4.621   5.411  0.2849 -0.8457  1.6220
   14DOPE  H15Y 1796   4.221   4.447   5.419 -0.6472  1.4246  0.4378
   14DOPE  C316 1797   4.218   4.534   5.220  0.4160  0.7204 -0.1866
   14DOPE  H16X 1798   4.231   4.441   5.160 -0.6669  1.1694 -1.1537
   14DOPE  H16Y 1799   4.275   4.618   5.175 -0.7416  1.3059 -0.6147
   14DOPE  C317 1800   4.073   4.578   5.220  0.0929 -0.3146  0.4811
   14DOPE  H17X 1801   3.999   4.501   5.251  1.2487 -2.2744 -1.3501
   14DOPE  H17Y 1802   4.041   4.660   5.287 -1.7041  0.1343 -0.8596
   14DOPE  C318 1803   4.028   4.614   5.076  0.8291  0.1144 -0.0860
   14DOPE  H18X 1804   4.054   4.538   4.999 -1.3390  0.1925 -0.9507
   14DOPE  H18Y 1805   3.921   4.641   5.069  0.5503 -0.5941  1.1989
   14DOPE  H18Z 1806   4.071   4.713   5.049 -1.1719  1.1357  0.3011
   15DOPE     N 1807   0.721   1.223   6.989 -0.0564 -0.0924  0.3967
   15DOPE   HN1 1808   0.805   1.279   7.016  0.2753 -0.8847  1.0811
   15DOPE   HN2 1809   0.656   1.218   7.070  2.8250  0.6804  2.9515
   15DOPE   HN3 1810   0.762   1.129   6.969  0.8558  0.0398  1.5224
   15DOPE   C12 1811   0.649   1.287   6.874 -0.2090  0.0733 -0.5719
   15DOPE  H12A 1812   0.716   1.282   6.785 -1.2658 -0.1534 -1.3805
   15DOPE  H12B 1813   0.640   1.393   6.907 -2.4952 -0.0714 -0.5429
   15DOPE   C11 1814   0.511   1.220   6.841 -0.4413  0.3888  0.6596
   15DOPE  H11A 1815   0.482   1.248   6.737 -0.9322 -1.0005  0.4055
   15DOPE  H11B 1816   0.435   1.263   6.909 -0.1779  1.0004  0.5757
   15DOPE     P 1817   0.448   0.971   6.773 -0.0137 -0.1468 -0.0996
   15DOPE   O13 1818   0.310   0.979   6.829 -0.4237 -0.4850  0.4556
   15DOPE   O14 1819   0.519   0.843   6.797  0.0178  0.0217 -0.1401
   15DOPE   O11 1820   0.470   1.013   6.619 -0.3979  0.1420  0.0394
   15DOPE   O12 1821   0.525   1.078   6.855  0.3516 -0.3586 -0.5356
   15DOPE    C1 1822   0.616   1.005   6.589  0.3274 -0.7082  0.1207
   15DOPE    HA 1823   0.649   0.899   6.593 -0.1890 -0.9055 -0.6449
   15DOPE    HB 1824   0.681   1.066   6.655  0.4457 -0.1915 -0.4625
   15DOPE    C2 1825   0.655   1.055   6.443 -0.2396  0.3879 -0.2876
   15DOPE    HS 1826   0.756   1.013   6.428 -1.2499 -2.6158  0.4508
   15DOPE   O21 1827   0.636   1.200   6.438 -0.8495  0.0072 -0.0555
   15DOPE   C21 1828   0.716   1.255   6.336  0.2147 -1.0916 -0.0890
   15DOPE   O22 1829   0.817   1.206   6.300  0.0310  0.0388 -0.0210
   15DOPE   C22 1830   0.650   1.390   6.282  0.1169  0.5783 -0.6883
   15DOPE   H2R 1831   0.620   1.449   6.371  0.8439 -0.5360  0.3259
   15DOPE   H2S 1832   0.560   1.355   6.227 -0.1123 -0.9381  0.5645
   15DOPE    C3 1833   0.559   0.978   6.348  0.0510 -0.0624  0.2949
   15DOPE    HX 1834   0.454   1.004   6.374  0.1805  0.2814  0.4774
   15DOPE    HY 1835   0.561   0.867   6.349 -2.4279 -0.2211 -1.4453
   15DOPE   O31 1836   0.581   1.004   6.208  0.2641  0.4724  0.3790
   15DOPE   C31 1837   0.492   1.072   6.139 -1.2235  0.5589 -0.2502
   15DOPE   O32 1838   0.393   1.132   6.176 -0.1580 -0.2955 -0.1826
   15DOPE   C32 1839   0.556   1.074   5.998  0.1846  0.5973 -0.0836
   15DOPE   H2X 1840   0.667   1.070   6.004  0.3502 -0.0504 -2.5599
   15DOPE   H2Y 1841   0.526   0.978   5.950 -0.2688  0.8652 -0.3482
   15DOPE   C23 1842   0.739   1.464   6.185  0.4677 -0.4615  0.1380
   15DOPE   H3R 1843   0.756   1.414   6.088  0.0668  0.7109 -0.5654
   15DOPE   H3S 1844   0.842   1.486   6.220  0.6528 -0.6011 -0.3129
   15DOPE   C24 1845   0.675   1.600   6.129 -0.0922 -0.0129  0.0722
   15DOPE   H4R 1846   0.736   1.637   6.044  2.2323 -0.4717  1.4516
   15DOPE   H4S 1847   0.700   1.670   6.211  0.9240  1.7247 -1.6354
   15DOPE   C25 1848   0.525   1.590   6.083 -0.1530 -0.4475 -0.8176
   15DOPE   H5R 1849   0.451   1.581   6.165 -1.1751 -0.0005 -1.6649
   15DOPE   H5S 1850   0.510   1.494   6.028  0.2974 -1.4052  0.6926
   15DOPE   C26 1851   0.484   1.702   5.984  0.0235  0.2537  0.2881
   15DOPE   H6R 1852   0.546   1.706   5.892  0.4139 -2.9768  0.2783
   15DOPE   H6S 1853   0.495   1.797   6.040 -0.0457  0.3620  0.1178
   15DOPE   C27 1854   0.341   1.675   5.939  0.2213 -0.3043  0.0386
   15DOPE   H7R 1855   0.273   1.653   6.025 -1.5127  0.0360 -1.1795
   15DOPE   H7S 1856   0.341   1.585   5.874 -0.7714 -0.1919 -0.1383
   15DOPE   C28 1857   0.276   1.795   5.866 -0.6566  0.8160 -0.5534
   15DOPE   H8R 1858   0.266   1.882   5.934  0.6529  0.3124  0.3194
   15DOPE   H8S 1859   0.172   1.768   5.838 -2.3979  5.1340  0.9117
   15DOPE   C29 1860   0.358   1.831   5.738  0.0451 -0.0818 -0.1016
   15DOPE   H9R 1861   0.453   1.878   5.766  0.8385 -1.8778  0.3874
   15DOPE  C210 1862   0.330   1.816   5.606 -0.1172  0.8936 -0.6663
   15DOPE  H10R 1863   0.410   1.854   5.541  0.1845  0.6742 -0.4245
   15DOPE  C211 1864   0.215   1.754   5.533  0.1057  0.1663  0.6247
   15DOPE  H11R 1865   0.147   1.699   5.601 -0.6657 -0.9570 -1.0025
   15DOPE  H11S 1866   0.250   1.687   5.452  1.1790  1.4486 -0.0286
   15DOPE  C212 1867   0.119   1.852   5.463 -0.1347  0.2074 -0.0741
   15DOPE  H12R 1868   0.099   1.938   5.529 -4.3933 -0.4684 -0.2165
   15DOPE  H12S 1869   0.022   1.798   5.456  0.7697 -2.0556  2.8776
   15DOPE  C213 1870   0.172   1.892   5.324  0.4795  0.6217 -0.0953
   15DOPE  H13R 1871   0.183   1.799   5.264 -0.9980 -1.1330  2.1893
   15DOPE  H13S 1872   0.276   1.927   5.340 -0.0722  2.4669 -0.3151
   15DOPE  C214 1873   0.077   1.994   5.249 -0.4928  0.5465 -0.1004
   15DOPE  H14R 1874   0.073   2.092   5.302  1.2284  0.5016  0.1760
   15DOPE  H14S 1875  -0.023   1.946   5.245  0.2155 -1.1600  1.3541
   15DOPE  C215 1876   0.102   2.023   5.100 -0.4186  0.3946 -0.6238
   15DOPE  H15R 1877   0.200   2.076   5.099 -1.1350  1.7464 -2.3782
   15DOPE  H15S 1878   0.022   2.097   5.080 -3.1120 -1.7204  1.5108
   15DOPE  C216 1879   0.096   1.895   5.006  0.4892 -0.3450 -0.2319
   15DOPE  H16R 1880  -0.011   1.864   5.013  0.2695  0.1481 -1.2023
   15DOPE  H16S 1881   0.155   1.806   5.036 -1.3311 -0.9019  1.9911
   15DOPE  C217 1882   0.128   1.937   4.858 -0.3113 -0.1163  0.2453
   15DOPE  H17R 1883   0.075   2.026   4.820  0.9792  1.4445  1.9380
   15DOPE  H17S 1884   0.103   1.854   4.788  1.7021  0.0973 -0.8044
   15DOPE  C218 1885   0.272   1.973   4.821 -0.0380 -1.2006  0.3300
   15DOPE  H18R 1886   0.298   2.076   4.854 -0.2867 -0.2837 -2.1233
   15DOPE  H18S 1887   0.278   1.959   4.711 -1.4949 -0.2091  0.0957
   15DOPE  H18T 1888   0.344   1.909   4.876 -0.3777 -1.1436  0.8526
   15DOPE   C33 1889   0.514   1.195   5.915  0.5894  0.4994 -0.3382
   15DOPE   H3X 1890   0.539   1.301   5.939  2.2003  0.0145  0.2248
   15DOPE   H3Y 1891   0.403   1.197   5.900  0.6739  1.0369 -0.9130
   15DOPE   C34 1892   0.564   1.164   5.768 -0.0647  0.4457 -0.4415
   15DOPE   H4X 1893   0.674   1.157   5.778 -0.1260 -0.4904 -0.3239
   15DOPE   H4Y 1894   0.528   1.062   5.741 -2.4926  1.6271 -2.0375
   15DOPE   C35 1895   0.507   1.261   5.666  0.1586 -0.8992  0.2803
   15DOPE   H5X 1896   0.396   1.270   5.657  0.3970  0.3545 -2.5696
   15DOPE   H5Y 1897   0.533   1.225   5.564 -3.2228 -2.4689 -0.1890
   15DOPE   C36 1898   0.554   1.408   5.689 -0.7868 -0.1894 -0.5503
   15DOPE   H6X 1899   0.659   1.407   5.724 -1.9108 -3.6047  3.6172
   15DOPE   H6Y 1900   0.510   1.450   5.782 -0.4992 -1.3171  0.1067
   15DOPE   C37 1901   0.529   1.511   5.580 -0.1765  1.0790  0.3590
   15DOPE   H7X 1902   0.426   1.492   5.540 -0.5090 -1.0879  2.0775
   15DOPE   H7Y 1903   0.521   1.611   5.626 -2.6168  1.6781 -1.1609
   15DOPE   C38 1904   0.630   1.508   5.465  0.0531  0.1870 -0.0464
   15DOPE   H8X 1905   0.733   1.526   5.502  0.9226 -0.1773 -2.1237
   15DOPE   H8Y 1906   0.595   1.586   5.394 -1.1389  1.1110  1.4934
   15DOPE   C39 1907   0.621   1.384   5.375 -0.1190 -0.1176 -0.2335
   15DOPE   H9X 1908   0.523   1.334   5.377 -0.0163 -0.6964 -3.4916
   15DOPE  C310 1909   0.721   1.333   5.299 -0.3645  0.1054 -0.4269
   15DOPE  H10X 1910   0.710   1.237   5.248 -0.6474  0.0558 -0.2712
   15DOPE  C311 1911   0.871   1.376   5.300  0.1529  0.1496 -0.3468
   15DOPE  H11X 1912   0.924   1.378   5.203  1.0072 -2.4716 -0.0340
   15DOPE  H11Y 1913   0.880   1.469   5.360  1.8756 -1.3996  1.9956
   15DOPE  C312 1914   0.945   1.280   5.394  0.0190 -0.1800 -0.2781
   15DOPE  H12X 1915   0.893   1.269   5.491 -1.5071 -0.7557 -1.1183
   15DOPE  H12Y 1916   1.046   1.322   5.409 -0.2102  0.7515 -1.1930
   15DOPE  C313 1917   0.963   1.140   5.328 -0.2323  0.5418  0.5158
   15DOPE  H13X 1918   0.874   1.075   5.338  0.1258 -0.1938 -0.7617
   15DOPE  H13Y 1919   0.973   1.158   5.218  0.3376 -1.5854  0.1923
   15DOPE  C314 1920   1.088   1.061   5.367  0.3081 -0.0965 -0.1038
   15DOPE  H14X 1921   1.170   1.134   5.349 -1.0628  1.4838 -0.1678
   15DOPE  H14Y 1922   1.094   0.969   5.305  2.1849  0.1143 -0.2965
   15DOPE  C315 1923   1.079   1.040   5.521 -0.4209 -0.4192 -0.2202
   15DOPE  H15X 1924   0.983   0.990   5.548  0.0340 -1.0149  0.2988
   15DOPE  H15Y 1925   1.087   1.135   5.579 -0.1101 -1.0398  0.7775
   15DOPE  C316 1926   1.183   0.946   5.583  0.5727  0.3970  0.2863
   15DOPE  H16X 1927   1.172   0.843   5.544 -0.5554  0.6429 -0.0938
   15DOPE  H16Y 1928   1.171   0.951   5.693 -0.5242 -0.0462  0.2014
   15DOPE  C317 1929   1.328   0.981   5.546  0.4146 -0.6446 -0.1333
   15DOPE  H17X 1930   1.405   0.913   5.587  2.3018  1.1239 -0.5694
   15DOPE  H17Y 1931   1.329   0.969   5.435  0.3742 -0.3446 -0.1658
   15DOPE  C318 1932   1.367   1.124   5.581  0.2651 -0.0616 -0.3193
   15DOPE  H18X 1933   1.305   1.191   5.518 -2.0385 -2.2733 -0.5578
   15DOPE  H18Y 1934   1.345   1.157   5.685 -0.5530  0.2656 -0.5931
   15DOPE  H18Z 1935   1.477   1.142   5.578  0.6272 -1.7020  1.4499
   16DOPE     N 1936   7.159   2.061   6.375  0.4733 -0.1177  0.1765
   16DOPE   HN1 1937   7.107   1.977   6.343  1.4695 -0.0153 -1.9037
   16DOPE   HN2 1938   7.114   2.144   6.334 -1.1290 -0.8285  0.4316
   16DOPE   HN3 1939   7.256   2.054   6.337 -0.0107 -0.6568 -0.9767
   16DOPE   C12 1940   7.150   2.077   6.527 -0.6601 -0.2766 -0.3318
   16DOPE  H12A 1941   7.049   2.118   6.549 -1.0411 -0.4837 -1.6272
   16DOPE  H12B 1942   7.226   2.151   6.559  0.2044 -1.4999  0.5448
   16DOPE   C11 1943   7.151   1.939   6.597 -0.4586 -1.0844 -0.5320
   16DOPE  H11A 1944   7.165   1.973   6.702 -0.3661 -0.9765 -0.5791
   16DOPE  H11B 1945   7.234   1.874   6.562 -0.9400 -1.6698 -0.5906
   16DOPE     P 1946   6.971   1.770   6.692  0.3436  0.4950  0.1951
   16DOPE   O13 1947   6.892   1.851   6.787 -0.4336  0.2828  0.2287
   16DOPE   O14 1948   7.078   1.680   6.746  0.3464  0.3580 -0.3994
   16DOPE   O11 1949   6.859   1.676   6.614 -0.6588  0.1324  0.2261
   16DOPE   O12 1950   7.024   1.875   6.583  0.9713  0.4875 -0.1415
   16DOPE    C1 1951   6.758   1.743   6.537  0.1369 -0.0789  0.0381
   16DOPE    HA 1952   6.726   1.834   6.593 -2.7687 -1.2952  0.5360
   16DOPE    HB 1953   6.672   1.676   6.516 -1.6218  1.6171  1.4189
   16DOPE    C2 1954   6.810   1.785   6.398  0.3650  0.1322  0.1504
   16DOPE    HS 1955   6.865   1.881   6.409  1.2726 -0.5500  2.1245
   16DOPE   O21 1956   6.689   1.798   6.315 -0.0570  0.6660 -0.4958
   16DOPE   C21 1957   6.624   1.910   6.330 -0.5632 -0.6702 -0.0263
   16DOPE   O22 1958   6.639   1.992   6.421 -0.9007 -0.2041 -0.2179
   16DOPE   C22 1959   6.535   1.934   6.210 -0.4530  0.3706 -0.0469
   16DOPE   H2R 1960   6.436   1.964   6.253 -0.2738  0.8763  0.0131
   16DOPE   H2S 1961   6.528   1.830   6.171 -0.8873  1.0831 -1.9552
   16DOPE    C3 1962   6.903   1.683   6.336 -0.0522 -0.2660 -0.3154
   16DOPE    HX 1963   6.854   1.591   6.375  0.4861  0.2475  1.6687
   16DOPE    HY 1964   6.998   1.687   6.394 -0.3157  1.2646  0.0551
   16DOPE   O31 1965   6.922   1.677   6.192  0.1378  0.1542 -0.7989
   16DOPE   C31 1966   6.975   1.784   6.142  0.5640 -0.0532  0.0670
   16DOPE   O32 1967   7.017   1.881   6.203 -0.3921 -0.1222  0.2011
   16DOPE   C32 1968   6.952   1.780   5.986 -0.1302  0.0295 -0.2309
   16DOPE   H2X 1969   6.974   1.677   5.951  2.2900  0.9480 -1.6611
   16DOPE   H2Y 1970   6.846   1.809   5.970 -0.4768 -1.1157 -0.0804
   16DOPE   C23 1971   6.583   2.025   6.095 -0.2692  0.7888 -0.4896
   16DOPE   H3R 1972   6.533   1.997   6.000  0.6132 -3.0396 -0.0054
   16DOPE   H3S 1973   6.690   1.998   6.085 -0.6095 -0.9799  0.3305
   16DOPE   C24 1974   6.568   2.176   6.134  0.1629  0.1213  0.2041
   16DOPE   H4R 1975   6.576   2.182   6.245 -2.6437  1.7366  0.4049
   16DOPE   H4S 1976   6.463   2.200   6.107  0.5484  0.6720 -0.8825
   16DOPE   C25 1977   6.657   2.276   6.060  0.3030 -0.4454  0.2169
   16DOPE   H5R 1978   6.747   2.279   6.124  0.0637 -1.2695  0.6078
   16DOPE   H5S 1979   6.606   2.375   6.067  0.9549  0.0837 -1.9755
   16DOPE   C26 1980   6.681   2.242   5.908 -0.3248 -0.0097 -0.6333
   16DOPE   H6R 1981   6.604   2.168   5.880  1.0420 -1.3852 -0.9023
   16DOPE   H6S 1982   6.776   2.187   5.892 -0.1333  0.4815 -1.1972
   16DOPE   C27 1983   6.691   2.368   5.821  1.0939  0.4253  0.3558
   16DOPE   H7R 1984   6.784   2.427   5.837  0.2788  2.2669 -1.2707
   16DOPE   H7S 1985   6.598   2.428   5.827  0.4083 -0.5087 -0.5349
   16DOPE   C28 1986   6.708   2.338   5.670 -0.1522 -0.2305  0.4631
   16DOPE   H8R 1987   6.640   2.257   5.636  0.6301 -1.4026  1.6415
   16DOPE   H8S 1988   6.807   2.292   5.655  0.0797  0.6055 -0.7809
   16DOPE   C29 1989   6.699   2.454   5.577  0.4807  0.1079  0.5087
   16DOPE   H9R 1990   6.793   2.511   5.577 -0.2911  1.4443 -0.4240
   16DOPE  C210 1991   6.591   2.499   5.504 -0.2519 -0.5774 -0.1498
   16DOPE  H10R 1992   6.607   2.586   5.438 -1.1746  0.0741  0.4641
   16DOPE  C211 1993   6.451   2.448   5.495  0.6151 -0.2912  0.1094
   16DOPE  H11R 1994   6.388   2.506   5.566 -0.6356 -0.3587 -0.9229
   16DOPE  H11S 1995   6.441   2.339   5.514  0.0931 -0.3327 -0.3887
   16DOPE  C212 1996   6.394   2.465   5.356 -0.5520 -0.4144 -0.0092
   16DOPE  H12R 1997   6.298   2.410   5.352 -0.0769 -1.2160 -1.4870
   16DOPE  H12S 1998   6.464   2.414   5.286 -0.2735  1.1079 -0.8938
   16DOPE  C213 1999   6.372   2.609   5.306 -0.1020 -0.1029 -0.7918
   16DOPE  H13R 2000   6.472   2.650   5.283 -0.6029 -0.2448 -3.6471
   16DOPE  H13S 2001   6.316   2.661   5.386  1.2638 -0.7698  0.6540
   16DOPE  C214 2002   6.292   2.619   5.176  1.2915 -0.0775 -0.5231
   16DOPE  H14R 2003   6.207   2.548   5.174  1.3050 -0.1210  0.2051
   16DOPE  H14S 2004   6.359   2.605   5.089  1.7372  1.3743 -0.4478
   16DOPE  C215 2005   6.221   2.758   5.163 -0.6422 -0.4688  0.2358
   16DOPE  H15R 2006   6.308   2.828   5.164  0.2529 -1.5347 -0.2681
   16DOPE  H15S 2007   6.158   2.777   5.252 -1.9626 -1.0697 -0.5414
   16DOPE  C216 2008   6.146   2.756   5.030 -0.3855 -0.2616  0.1659
   16DOPE  H16R 2009   6.095   2.658   5.036  0.7683 -0.8690  0.3157
   16DOPE  H16S 2010   6.224   2.762   4.951  0.4579  0.9721  1.0503
   16DOPE  C217 2011   6.046   2.868   5.006  0.0766 -0.4614 -0.5558
   16DOPE  H17R 2012   5.955   2.842   5.064 -0.5511 -1.3533 -1.8792
   16DOPE  H17S 2013   6.017   2.867   4.899  1.3620  0.8547 -0.9630
   16DOPE  C218 2014   6.084   3.013   5.034 -0.0791 -0.0797 -1.3329
   16DOPE  H18R 2015   6.187   3.024   4.994  0.9081 -1.6538  0.5728
   16DOPE  H18S 2016   6.077   3.038   5.142 -0.5522 -1.4692 -1.0158
   16DOPE  H18T 2017   6.013   3.084   4.986 -1.9637 -0.4475  0.7285
   16DOPE   C33 2018   7.029   1.884   5.899  0.3428 -0.2165 -0.0584
   16DOPE   H3X 2019   7.135   1.859   5.916 -0.1054 -1.7828  0.5602
   16DOPE   H3Y 2020   6.994   1.983   5.936  0.1208 -0.2208 -0.2526
   16DOPE   C34 2021   7.003   1.888   5.741  0.1550 -0.0738 -0.0365
   16DOPE   H4X 2022   7.057   1.975   5.700  2.8562 -1.0199  1.2643
   16DOPE   H4Y 2023   7.043   1.793   5.699 -1.8409 -0.2600 -1.6520
   16DOPE   C35 2024   6.855   1.881   5.693  0.2365 -0.2554  0.3136
   16DOPE   H5X 2025   6.806   1.956   5.757  3.5528  3.7214 -1.3595
   16DOPE   H5Y 2026   6.807   1.781   5.704 -0.7128  0.1011 -0.5317
   16DOPE   C36 2027   6.835   1.940   5.546  0.3345  0.0263  0.9670
   16DOPE   H6X 2028   6.891   1.894   5.462  0.9333  0.1124  1.3178
   16DOPE   H6Y 2029   6.874   2.042   5.565  2.9898 -0.6274 -0.5112
   16DOPE   C37 2030   6.689   1.968   5.511  0.4965  0.1932 -0.7743
   16DOPE   H7X 2031   6.624   1.878   5.513  0.7206  0.0174 -1.1893
   16DOPE   H7Y 2032   6.650   2.019   5.601 -0.0365 -2.0651  0.3555
   16DOPE   C38 2033   6.662   2.031   5.374  0.7173 -0.8764  0.1432
   16DOPE   H8X 2034   6.566   2.005   5.325  0.1351 -0.4496  1.0311
   16DOPE   H8Y 2035   6.732   1.980   5.305 -1.6267 -0.8723 -2.3985
   16DOPE   C39 2036   6.673   2.178   5.366  0.3592 -0.1668 -0.1482
   16DOPE   H9X 2037   6.582   2.224   5.407 -0.1889 -1.8919  0.6853
   16DOPE  C310 2038   6.782   2.251   5.334  0.3932  0.3605 -0.4769
   16DOPE  H10X 2039   6.770   2.360   5.343  0.8962  0.3786  0.0377
   16DOPE  C311 2040   6.916   2.201   5.291 -0.7082 -0.5508  0.3060
   16DOPE  H11X 2041   6.953   2.106   5.336  0.0144 -1.4028 -1.9382
   16DOPE  H11Y 2042   6.927   2.165   5.186  0.2642 -0.3415  0.3221
   16DOPE  C312 2043   7.025   2.315   5.303 -0.2794  0.0307 -0.0033
   16DOPE  H12X 2044   6.989   2.404   5.247 -1.4288  0.0093  0.6755
   16DOPE  H12Y 2045   7.110   2.273   5.246 -0.9508 -0.4265 -0.6932
   16DOPE  C313 2046   7.078   2.350   5.451  0.3267  0.0890 -0.2552
   16DOPE  H13X 2047   7.141   2.440   5.435 -0.0780  0.7417  1.5588
   16DOPE  H13Y 2048   6.986   2.365   5.511  0.5714  0.3679  0.0533
   16DOPE  C314 2049   7.173   2.239   5.506 -0.2564 -0.5063  0.0119
   16DOPE  H14X 2050   7.259   2.223   5.437  1.5088  0.5436  1.8634
   16DOPE  H14Y 2051   7.113   2.145   5.504  0.1688 -0.7949 -1.9715
   16DOPE  C315 2052   7.236   2.247   5.648 -0.8700  0.4194 -0.5110
   16DOPE  H15X 2053   7.316   2.322   5.663 -1.5113  1.4700 -2.1430
   16DOPE  H15Y 2054   7.276   2.145   5.670 -0.4940  0.7719  0.4889
   16DOPE  C316 2055   7.125   2.264   5.757 -0.0585 -0.0998 -0.0046
   16DOPE  H16X 2056   7.058   2.177   5.737  0.9215 -0.3182 -2.6242
   16DOPE  H16Y 2057   7.065   2.353   5.732  0.1413  0.7888  2.3694
   16DOPE  C317 2058   7.167   2.268   5.904 -0.4121 -0.5136  0.8356
   16DOPE  H17X 2059   7.223   2.177   5.934  0.7375 -0.8174 -1.9131
   16DOPE  H17Y 2060   7.236   2.355   5.920  0.0259 -0.7154  0.0866
   16DOPE  C318 2061   7.055   2.315   5.990  0.2928  0.4944 -0.0958
   16DOPE  H18X 2062   6.988   2.232   6.022  0.0637  1.8302  3.3157
   16DOPE  H18Y 2063   7.084   2.358   6.089  0.4268 -0.9515  0.5157
   16DOPE  H18Z 2064   6.994   2.386   5.930 -1.9674 -0.5240  0.8576
   17DOPE     N 2065   0.957   4.254   6.518  0.1459 -0.0754  0.6889
   17DOPE   HN1 2066   0.995   4.292   6.429  1.9407 -1.3597  0.8514
   17DOPE   HN2 2067   1.033   4.274   6.586  2.3212 -1.0846 -1.3082
   17DOPE   HN3 2068   0.944   4.151   6.512 -1.6326  0.1844 -0.6058
   17DOPE   C12 2069   0.824   4.309   6.574 -0.5859 -0.0361  0.2273
   17DOPE  H12A 2070   0.827   4.275   6.680  1.3229 -0.6678  0.0066
   17DOPE  H12B 2071   0.735   4.261   6.527  1.0847 -0.3820 -2.8877
   17DOPE   C11 2072   0.827   4.464   6.561  0.3773  0.1106 -0.3378
   17DOPE  H11A 2073   0.740   4.504   6.617  0.3142  0.1785 -0.4854
   17DOPE  H11B 2074   0.820   4.496   6.455 -1.0359 -0.2341 -0.3700
   17DOPE     P 2075   0.943   4.681   6.630  0.0824 -0.1280 -0.0442
   17DOPE   O13 2076   1.075   4.735   6.639 -0.6941 -0.3881  0.2261
   17DOPE   O14 2077   0.850   4.718   6.736  0.4103 -0.4457  0.1428
   17DOPE   O11 2078   0.884   4.719   6.490  0.4348  0.3394 -0.4127
   17DOPE   O12 2079   0.945   4.515   6.626 -0.3143 -0.2467 -0.2605
   17DOPE    C1 2080   0.791   4.829   6.464 -0.3532  0.2818  0.7361
   17DOPE    HA 2081   0.757   4.879   6.557  2.9104  1.7575  1.2904
   17DOPE    HB 2082   0.710   4.778   6.408 -0.1565 -1.2832  1.8145
   17DOPE    C2 2083   0.833   4.929   6.355 -0.2640  0.0111  0.8065
   17DOPE    HS 2084   0.753   5.002   6.329 -0.0854 -0.2388 -0.5366
   17DOPE   O21 2085   0.880   4.856   6.240  0.0221  0.3441 -0.0064
   17DOPE   C21 2086   0.781   4.812   6.161  0.0718  0.3511 -0.0914
   17DOPE   O22 2087   0.662   4.822   6.179 -0.5669 -0.6119 -0.2509
   17DOPE   C22 2088   0.844   4.746   6.037  0.1023  0.6051 -0.3301
   17DOPE   H2R 2089   0.868   4.642   6.070  0.6091  1.3981  2.0073
   17DOPE   H2S 2090   0.934   4.806   6.014 -0.1877  1.3638  0.4666
   17DOPE    C3 2091   0.959   5.007   6.407  0.1356  0.1061 -0.9540
   17DOPE    HX 2092   1.032   4.934   6.448 -2.6172 -2.0459  0.4965
   17DOPE    HY 2093   0.911   5.063   6.490 -2.7457 -2.9444 -0.3322
   17DOPE   O31 2094   1.013   5.083   6.306  0.2763  0.9604 -0.3860
   17DOPE   C31 2095   1.119   5.158   6.347  0.3983  0.0388  0.0694
   17DOPE   O32 2096   1.162   5.139   6.458  0.3583 -0.2993  0.0945
   17DOPE   C32 2097   1.176   5.242   6.232  0.7860 -0.2476 -0.4554
   17DOPE   H2X 2098   1.258   5.185   6.182 -0.1555 -2.1620  0.0887
   17DOPE   H2Y 2099   1.102   5.262   6.152  1.0516 -0.2419 -0.7004
   17DOPE   C23 2100   0.748   4.738   5.918  0.0804 -0.5334  0.8913
   17DOPE   H3R 2101   0.644   4.712   5.946 -0.5716  2.2554  1.4257
   17DOPE   H3S 2102   0.780   4.658   5.848  1.8390 -0.2170  1.2870
   17DOPE   C24 2103   0.739   4.871   5.841  0.3173  0.1481  0.3015
   17DOPE   H4R 2104   0.838   4.887   5.794 -0.7350 -0.1753 -2.1716
   17DOPE   H4S 2105   0.712   4.954   5.910 -2.2801 -1.9685  2.0111
   17DOPE   C25 2106   0.635   4.862   5.721 -0.1409 -1.1763 -0.9665
   17DOPE   H5R 2107   0.540   4.830   5.770  0.9801 -2.8430  0.2466
   17DOPE   H5S 2108   0.669   4.778   5.657  2.1086 -0.5394 -0.7016
   17DOPE   C26 2109   0.616   4.997   5.652 -0.1191 -0.1443  0.4660
   17DOPE   H6R 2110   0.575   5.072   5.722  0.0297 -0.3737  0.8027
   17DOPE   H6S 2111   0.529   4.987   5.583  0.1210 -0.1867  0.1652
   17DOPE   C27 2112   0.739   5.037   5.579 -0.3332  0.0339 -0.0301
   17DOPE   H7R 2113   0.763   4.948   5.517 -2.1219 -0.4467 -0.0787
   17DOPE   H7S 2114   0.824   5.056   5.648 -0.4419  0.3385  0.0220
   17DOPE   C28 2115   0.727   5.164   5.497  0.0399 -0.0267 -0.8982
   17DOPE   H8R 2116   0.662   5.235   5.552 -3.1156 -1.9290 -1.9329
   17DOPE   H8S 2117   0.671   5.135   5.405  1.4048 -0.9053 -1.4872
   17DOPE   C29 2118   0.862   5.219   5.464  0.1124 -0.4995  0.5607
   17DOPE   H9R 2119   0.950   5.153   5.466  1.3083  1.0072 -0.0858
   17DOPE  C210 2120   0.887   5.351   5.432 -0.5167  0.6003 -0.4256
   17DOPE  H10R 2121   0.992   5.385   5.434 -0.4167  0.3451 -1.1712
   17DOPE  C211 2122   0.784   5.457   5.400  0.3052  0.4873  0.3156
   17DOPE  H11R 2123   0.788   5.535   5.479 -1.4650 -0.2541  1.1920
   17DOPE  H11S 2124   0.676   5.435   5.391  0.3165  0.6411 -0.2521
   17DOPE  C212 2125   0.827   5.516   5.264 -0.1254 -0.2148 -0.1800
   17DOPE  H12R 2126   0.852   5.438   5.189  2.7843  0.6225 -0.2337
   17DOPE  H12S 2127   0.912   5.587   5.280  0.3092 -1.1298  1.9142
   17DOPE  C213 2128   0.719   5.609   5.207 -0.0591  0.0028  0.4194
   17DOPE  H13R 2129   0.684   5.692   5.273  0.5858  2.0747 -1.7267
   17DOPE  H13S 2130   0.634   5.542   5.180 -1.4620  1.8594  0.0218
   17DOPE  C214 2131   0.755   5.672   5.069  1.2357 -0.0883 -0.2491
   17DOPE  H14R 2132   0.822   5.597   5.020 -0.1777  0.1318 -2.7033
   17DOPE  H14S 2133   0.812   5.765   5.085 -0.4052  0.8765  0.2381
   17DOPE  C215 2134   0.636   5.694   4.976  0.9510  0.3974  0.5339
   17DOPE  H15R 2135   0.563   5.750   5.038  0.2187  0.7990 -0.6649
   17DOPE  H15S 2136   0.588   5.599   4.942 -0.6246  1.7019 -1.0670
   17DOPE  C216 2137   0.672   5.785   4.861  0.3471  0.5410 -0.4374
   17DOPE  H16R 2138   0.761   5.741   4.811  0.5622 -0.6511  0.9251
   17DOPE  H16S 2139   0.690   5.886   4.904 -0.7011  0.4315  0.2834
   17DOPE  C217 2140   0.564   5.787   4.751  0.7512  0.2533  0.4669
   17DOPE  H17R 2141   0.481   5.844   4.797  0.6122 -0.9516  1.7581
   17DOPE  H17S 2142   0.533   5.682   4.728 -0.8512  0.5553  1.0818
   17DOPE  C218 2143   0.602   5.861   4.619 -0.1876 -0.2173  0.1562
   17DOPE  H18R 2144   0.507   5.908   4.586  1.5406  2.1822 -1.7376
   17DOPE  H18S 2145   0.643   5.795   4.540 -1.4633 -0.4761 -0.3223
   17DOPE  H18T 2146   0.672   5.944   4.638 -2.1475  1.8285 -1.0191
   17DOPE   C33 2147   1.237   5.371   6.285  0.0525 -0.3254  0.0158
   17DOPE   H3X 2148   1.269   5.408   6.185 -0.2122 -1.8202 -0.6421
   17DOPE   H3Y 2149   1.307   5.359   6.370 -0.1476 -2.4468 -0.0885
   17DOPE   C34 2150   1.125   5.475   6.330 -0.1216  0.5698 -0.8043
   17DOPE   H4X 2151   1.036   5.467   6.264  1.7008  0.0512 -3.3122
   17DOPE   H4Y 2152   1.095   5.439   6.431 -0.9782  2.0201 -0.5211
   17DOPE   C35 2153   1.172   5.623   6.339  1.3653 -0.2000  0.0880
   17DOPE   H5X 2154   1.082   5.682   6.366 -1.2245 -3.1697 -1.2710
   17DOPE   H5Y 2155   1.200   5.653   6.236 -2.5860 -1.0505 -1.4505
   17DOPE   C36 2156   1.288   5.639   6.442  0.4509 -0.1074  0.0929
   17DOPE   H6X 2157   1.368   5.563   6.433  1.9221  1.2827  0.9139
   17DOPE   H6Y 2158   1.250   5.639   6.546 -0.9428 -3.0960 -0.3186
   17DOPE   C37 2159   1.346   5.781   6.430 -0.1616  0.6061 -0.9504
   17DOPE   H7X 2160   1.384   5.790   6.326 -0.3268  1.0939 -0.9685
   17DOPE   H7Y 2161   1.253   5.841   6.431 -0.8882 -0.4754 -1.2293
   17DOPE   C38 2162   1.440   5.822   6.542 -0.5027  0.2333 -0.3462
   17DOPE   H8X 2163   1.379   5.823   6.634 -0.0715 -1.0117 -0.0395
   17DOPE   H8Y 2164   1.461   5.931   6.532  0.2006  0.2141  0.7976
   17DOPE   C39 2165   1.564   5.736   6.566  0.2156  0.2732 -0.0756
   17DOPE   H9X 2166   1.572   5.670   6.654 -0.1194 -1.5853 -1.3730
   17DOPE  C310 2167   1.669   5.724   6.482 -0.2000  0.5271 -0.4192
   17DOPE  H10X 2168   1.751   5.656   6.509  0.0615  1.0276  0.0647
   17DOPE  C311 2169   1.683   5.800   6.354  0.4287  0.0013 -0.0308
   17DOPE  H11X 2170   1.605   5.878   6.341 -0.3008 -0.4113  1.5855
   17DOPE  H11Y 2171   1.783   5.847   6.345 -0.0844  1.2397  0.4862
   17DOPE  C312 2172   1.677   5.702   6.239  0.1071  0.0891  0.0110
   17DOPE  H12X 2173   1.571   5.678   6.220 -0.1317  0.9538  0.2266
   17DOPE  H12Y 2174   1.724   5.602   6.252 -0.6149 -0.2465  0.0733
   17DOPE  C313 2175   1.738   5.764   6.115  0.1697 -0.3325  0.5117
   17DOPE  H13X 2176   1.708   5.871   6.106 -1.3522 -0.7963 -0.2679
   17DOPE  H13Y 2177   1.848   5.761   6.135 -0.0112 -1.3903  1.4671
   17DOPE  C314 2178   1.697   5.688   5.994  0.3423 -0.7306 -0.6352
   17DOPE  H14X 2179   1.586   5.681   5.988  0.4250 -1.0764 -1.9000
   17DOPE  H14Y 2180   1.716   5.579   6.008 -2.5017 -1.0489  1.6878
   17DOPE  C315 2181   1.742   5.733   5.856 -0.1934  0.4358  0.2625
   17DOPE  H15X 2182   1.699   5.835   5.844  2.1984  1.5542  0.4487
   17DOPE  H15Y 2183   1.687   5.673   5.781  1.6985 -0.2432 -0.6555
   17DOPE  C316 2184   1.892   5.714   5.807  0.2152  0.0618  0.6699
   17DOPE  H16X 2185   1.905   5.605   5.791  1.6612 -0.2310  3.2563
   17DOPE  H16Y 2186   1.971   5.742   5.880  0.9152 -0.7003  0.2163
   17DOPE  C317 2187   1.910   5.783   5.671 -0.0476 -0.0184 -0.0504
   17DOPE  H17X 2188   1.861   5.731   5.586  1.3235  2.6318 -2.6492
   17DOPE  H17Y 2189   1.866   5.884   5.675  1.2647  0.5301  2.7106
   17DOPE  C318 2190   2.065   5.797   5.643 -0.3182  0.0763  0.4875
   17DOPE  H18X 2191   2.080   5.825   5.537 -0.4466  1.2331  0.7610
   17DOPE  H18Y 2192   2.090   5.891   5.697 -1.2664  0.1216  0.8706
   17DOPE  H18Z 2193   2.123   5.706   5.668  0.5987  0.2621 -0.8824
   18DOPE     N 2194   0.121   1.148   6.793 -0.0051  0.2327  0.5084
   18DOPE   HN1 2195   0.081   1.134   6.698  0.4339 -1.6756  0.5750
   18DOPE   HN2 2196   0.169   1.241   6.792  3.1454 -1.1406  3.2834
   18DOPE   HN3 2197   0.189   1.073   6.817 -0.5259 -0.2577  0.4679
   18DOPE   C12 2198   0.011   1.138   6.890 -0.3541 -0.4611  0.2278
   18DOPE  H12A 2199   0.069   1.120   6.983 -0.0890 -1.2669 -0.0822
   18DOPE  H12B 2200  -0.056   1.053   6.861 -1.7466  1.4197 -2.4806
   18DOPE   C11 2201  -0.057   1.270   6.928  0.3828 -0.1073  0.3391
   18DOPE  H11A 2202   0.015   1.350   6.955 -0.0491  0.6443 -0.6485
   18DOPE  H11B 2203  -0.106   1.246   7.025  0.4218 -0.7163  0.2098
   18DOPE     P 2204  -0.293   1.255   6.826  0.4690  0.1135  0.3171
   18DOPE   O13 2205  -0.398   1.342   6.883  0.4491  0.3504  0.1710
   18DOPE   O14 2206  -0.290   1.112   6.866 -0.5751 -0.4215 -0.7946
   18DOPE   O11 2207  -0.319   1.248   6.667 -0.1326 -0.1221 -0.2648
   18DOPE   O12 2208  -0.151   1.322   6.831  0.0561  0.1528  0.6498
   18DOPE    C1 2209  -0.217   1.235   6.569  0.2195  0.2894  0.9420
   18DOPE    HA 2210  -0.161   1.143   6.595  0.7830 -0.4038 -2.2156
   18DOPE    HB 2211  -0.151   1.324   6.571  1.1912 -0.4166  0.9596
   18DOPE    C2 2212  -0.290   1.221   6.425 -0.9337 -0.2973 -0.3903
   18DOPE    HS 2213  -0.209   1.214   6.349 -0.8269 -3.7781 -0.1479
   18DOPE   O21 2214  -0.368   1.341   6.403  0.4621 -0.0315 -0.0024
   18DOPE   C21 2215  -0.299   1.452   6.393 -0.3767 -0.0678  1.0572
   18DOPE   O22 2216  -0.175   1.465   6.399  0.5144  0.3533 -0.2680
   18DOPE   C22 2217  -0.386   1.569   6.366  0.1464 -0.1224 -0.0078
   18DOPE   H2R 2218  -0.360   1.646   6.443  0.5828  0.2908 -0.5589
   18DOPE   H2S 2219  -0.488   1.526   6.366  0.5814 -1.2627 -1.9823
   18DOPE    C3 2220  -0.376   1.090   6.423  0.1927  0.1987 -0.2247
   18DOPE    HX 2221  -0.465   1.121   6.481  0.5830  4.0935 -1.4322
   18DOPE    HY 2222  -0.320   1.007   6.471  1.1823 -0.2919 -2.1223
   18DOPE   O31 2223  -0.417   1.052   6.287 -0.0498 -0.3229  0.0903
   18DOPE   C31 2224  -0.534   1.094   6.243 -0.6877 -0.8618 -1.5468
   18DOPE   O32 2225  -0.610   1.175   6.299 -0.2039  0.0321 -0.0528
   18DOPE   C32 2226  -0.556   1.030   6.116  0.7723 -0.1480  0.7134
   18DOPE   H2X 2227  -0.472   1.064   6.051 -0.2992  1.2425 -0.0170
   18DOPE   H2Y 2228  -0.552   0.921   6.135 -0.3262 -0.0846  1.3420
   18DOPE   C23 2229  -0.372   1.619   6.224  1.0110 -0.0291  0.8487
   18DOPE   H3R 2230  -0.270   1.610   6.181 -0.6298 -1.1690 -3.3078
   18DOPE   H3S 2231  -0.419   1.720   6.219  2.1862  0.4711 -0.8957
   18DOPE   C24 2232  -0.449   1.536   6.120  0.0345  0.2157 -0.1697
   18DOPE   H4R 2233  -0.558   1.542   6.136  0.1159 -0.6087  0.7614
   18DOPE   H4S 2234  -0.421   1.429   6.126 -1.0220 -0.2512 -2.4638
   18DOPE   C25 2235  -0.422   1.569   5.978  0.6346 -0.0591  0.1836
   18DOPE   H5R 2236  -0.312   1.558   5.965  0.8365  1.1476  0.6728
   18DOPE   H5S 2237  -0.448   1.673   5.948 -1.6313 -1.0429 -1.5567
   18DOPE   C26 2238  -0.489   1.475   5.876 -0.7324 -0.4579 -0.2983
   18DOPE   H6R 2239  -0.600   1.479   5.872 -0.7198 -0.1723 -0.3741
   18DOPE   H6S 2240  -0.477   1.372   5.915  0.0532  0.1644  1.2126
   18DOPE   C27 2241  -0.436   1.481   5.729  0.2591  0.1644  0.2602
   18DOPE   H7R 2242  -0.326   1.478   5.711  0.2301 -0.0048  0.1068
   18DOPE   H7S 2243  -0.459   1.584   5.693  2.6583  1.3624  1.9138
   18DOPE   C28 2244  -0.501   1.370   5.637  0.3223 -0.1186 -0.0517
   18DOPE   H8R 2245  -0.608   1.386   5.660 -0.5768 -0.8843 -3.1927
   18DOPE   H8S 2246  -0.471   1.270   5.677 -1.3638 -1.8375 -2.7454
   18DOPE   C29 2247  -0.460   1.387   5.490 -0.0169  0.1398 -0.0585
   18DOPE   H9R 2248  -0.493   1.481   5.444 -1.1400 -0.8398 -1.3459
   18DOPE  C210 2249  -0.418   1.289   5.412  0.2897 -0.1432  0.1667
   18DOPE  H10R 2250  -0.386   1.305   5.308 -0.7721  0.7233 -0.0446
   18DOPE  C211 2251  -0.416   1.143   5.457 -0.1140 -0.5157 -0.2997
   18DOPE  H11R 2252  -0.437   1.070   5.376  1.0029 -1.1947  0.0092
   18DOPE  H11S 2253  -0.490   1.128   5.538 -0.0342 -0.5296 -0.2288
   18DOPE  C212 2254  -0.276   1.112   5.522 -0.4839 -0.2296 -0.1781
   18DOPE  H12R 2255  -0.276   1.004   5.548 -0.0777 -0.2991 -0.4560
   18DOPE  H12S 2256  -0.281   1.160   5.622 -2.3409 -0.6286 -0.0367
   18DOPE  C213 2257  -0.154   1.143   5.430  0.4833  0.1346 -0.1775
   18DOPE  H13R 2258  -0.059   1.122   5.482  0.2858 -0.0084  0.1257
   18DOPE  H13S 2259  -0.162   1.248   5.394  0.7743  0.0531 -0.4924
   18DOPE  C214 2260  -0.167   1.068   5.294  0.1062  0.5732  0.2684
   18DOPE  H14R 2261  -0.252   1.106   5.234  0.1227 -0.7992 -0.6786
   18DOPE  H14S 2262  -0.192   0.961   5.306  1.0876  0.4742  1.7604
   18DOPE  C215 2263  -0.043   1.079   5.208  0.4611  0.5127 -0.1108
   18DOPE  H15R 2264   0.046   1.056   5.271 -1.5863  1.4535  3.3715
   18DOPE  H15S 2265  -0.039   1.182   5.167  1.1186  0.1334 -1.0425
   18DOPE  C216 2266  -0.049   0.983   5.082 -0.1547 -0.1943 -0.4116
   18DOPE  H16R 2267  -0.146   1.009   5.033  0.0304  0.8734 -0.2483
   18DOPE  H16S 2268  -0.070   0.879   5.114 -1.5586  0.4500  0.9064
   18DOPE  C217 2269   0.072   0.997   4.984 -0.3741  0.5255 -0.4479
   18DOPE  H17R 2270   0.121   0.897   4.986  0.1627  0.8009  0.5047
   18DOPE  H17S 2271   0.147   1.063   5.033  1.4073 -0.9948 -0.9983
   18DOPE  C218 2272   0.041   1.042   4.839  0.5883  0.2278 -0.3173
   18DOPE  H18R 2273  -0.018   0.958   4.798 -0.2143 -0.4584  2.0897
   18DOPE  H18S 2274   0.130   1.067   4.777  1.2424 -0.6898  0.2389
   18DOPE  H18T 2275  -0.022   1.134   4.844 -1.5378 -1.2233  1.6724
   18DOPE   C33 2276  -0.691   1.067   6.053 -0.4105  0.1374  0.6541
   18DOPE   H3X 2277  -0.685   1.174   6.026  0.0307  0.6461  2.6458
   18DOPE   H3Y 2278  -0.774   1.060   6.127 -0.3722  0.6959  0.7542
   18DOPE   C34 2279  -0.710   0.976   5.930 -0.6749  0.2619 -0.8128
   18DOPE   H4X 2280  -0.616   0.973   5.870  0.3353 -1.0475  0.7365
   18DOPE   H4Y 2281  -0.731   0.875   5.969  2.7895 -0.2231  0.1678
   18DOPE   C35 2282  -0.822   1.017   5.833 -0.4271 -0.0637  0.4982
   18DOPE   H5X 2283  -0.810   1.123   5.803 -3.2488  0.3550  0.6111
   18DOPE   H5Y 2284  -0.920   1.014   5.885 -1.0920 -1.6576 -0.7681
   18DOPE   C36 2285  -0.845   0.930   5.705 -0.0942  0.6438 -0.2165
   18DOPE   H6X 2286  -0.750   0.910   5.651  0.2460 -0.1276  0.6371
   18DOPE   H6Y 2287  -0.905   0.991   5.634 -2.3785 -2.7020 -1.4523
   18DOPE   C37 2288  -0.910   0.792   5.727 -0.2268 -0.1368  0.3798
   18DOPE   H7X 2289  -0.955   0.797   5.829  0.9707 -0.2821  0.9263
   18DOPE   H7Y 2290  -0.987   0.764   5.651 -0.6090 -1.8103  1.3300
   18DOPE   C38 2291  -0.813   0.669   5.751  0.0492  0.3750 -0.0174
   18DOPE   H8X 2292  -0.760   0.688   5.847 -0.1566  1.0343 -0.0292
   18DOPE   H8Y 2293  -0.744   0.675   5.665  0.6665  1.5578  0.5312
   18DOPE   C39 2294  -0.885   0.538   5.743 -0.1048 -0.2391 -0.2294
   18DOPE   H9X 2295  -0.933   0.506   5.837  0.9614  0.8426  0.7174
   18DOPE  C310 2296  -0.909   0.468   5.631  0.1267 -0.1732  0.4155
   18DOPE  H10X 2297  -0.952   0.367   5.641  1.4049 -0.8255 -0.4798
   18DOPE  C311 2298  -0.877   0.500   5.485 -0.2032 -0.2797 -0.1239
   18DOPE  H11X 2299  -0.809   0.587   5.480  0.0283 -0.3482  1.5666
   18DOPE  H11Y 2300  -0.815   0.418   5.445  2.7056  1.4633  0.5535
   18DOPE  C312 2301  -1.004   0.505   5.399  0.2275  0.1514 -0.2671
   18DOPE  H12X 2302  -1.089   0.547   5.455  0.7254  0.9909 -0.1197
   18DOPE  H12Y 2303  -1.032   0.402   5.369 -1.2859  0.3135  0.5324
   18DOPE  C313 2304  -0.985   0.587   5.272  0.5100 -0.5744  0.3530
   18DOPE  H13X 2305  -0.932   0.681   5.300  1.0049 -1.2818  1.9021
   18DOPE  H13Y 2306  -0.924   0.519   5.208 -0.5180 -2.1726  1.0136
   18DOPE  C314 2307  -1.123   0.616   5.203  0.3071 -0.8372  0.0565
   18DOPE  H14X 2308  -1.174   0.679   5.279 -4.4937 -1.6078 -2.1393
   18DOPE  H14Y 2309  -1.189   0.528   5.185  2.4129 -2.2291 -1.1862
   18DOPE  C315 2310  -1.115   0.706   5.076  1.1867 -0.6898  0.4614
   18DOPE  H15X 2311  -1.050   0.792   5.106  1.7018 -1.3488  1.2805
   18DOPE  H15Y 2312  -1.218   0.724   5.039  0.4754 -0.2717  2.4636
   18DOPE  C316 2313  -1.047   0.629   4.960  0.0380  0.3089 -0.2324
   18DOPE  H16X 2314  -1.100   0.532   4.947  1.0408 -0.4697  1.1662
   18DOPE  H16Y 2315  -0.953   0.592   5.007  1.1564  1.2711 -1.6160
   18DOPE  C317 2316  -1.025   0.711   4.830  0.1975  0.4908  0.0032
   18DOPE  H17X 2317  -1.031   0.821   4.843  2.0873  0.8842 -1.8925
   18DOPE  H17Y 2318  -0.922   0.687   4.796  0.2520  0.0894  0.4407
   18DOPE  C318 2319  -1.107   0.678   4.710  0.9201  0.3398 -0.6187
   18DOPE  H18X 2320  -1.081   0.585   4.656 -0.2058  0.9135 -2.2227
   18DOPE  H18Y 2321  -1.212   0.661   4.743  1.3407 -3.1070 -0.7214
   18DOPE  H18Z 2322  -1.111   0.760   4.635  1.0630  0.4557 -0.5006
   19DOPE     N 2323   6.463   2.079   6.677 -0.1711 -0.3726 -0.3132
   19DOPE   HN1 2324   6.564   2.104   6.684 -0.6275  2.0606 -1.4067
   19DOPE   HN2 2325   6.429   2.124   6.764  1.0366 -0.2035  0.0854
   19DOPE   HN3 2326   6.459   1.976   6.689 -1.7694 -0.3504 -0.4513
   19DOPE   C12 2327   6.403   2.140   6.552  0.3640  0.1412 -0.0727
   19DOPE  H12A 2328   6.440   2.080   6.466 -0.5396 -1.8618  0.8617
   19DOPE  H12B 2329   6.426   2.249   6.551  0.1582  0.1985  0.8412
   19DOPE   C11 2330   6.251   2.124   6.544  0.1932 -0.0475  0.5585
   19DOPE  H11A 2331   6.228   2.016   6.562 -3.4293  0.5308  0.1003
   19DOPE  H11B 2332   6.218   2.157   6.443  1.9623 -0.7815 -0.3113
   19DOPE     P 2333   6.033   2.163   6.674  0.1400 -0.4090  0.0007
   19DOPE   O13 2334   5.984   2.258   6.778  0.0573 -0.0317 -0.0251
   19DOPE   O14 2335   6.016   2.019   6.704  0.2529  0.0871 -0.4732
   19DOPE   O11 2336   5.962   2.203   6.537 -0.0499  0.4618 -0.1685
   19DOPE   O12 2337   6.186   2.205   6.650  0.2196 -0.0386  0.3013
   19DOPE    C1 2338   5.940   2.338   6.500  0.3100  0.2812 -0.4616
   19DOPE    HA 2339   6.028   2.370   6.441  2.4053 -2.3209  0.9858
   19DOPE    HB 2340   5.932   2.405   6.589  1.0439  0.9924 -0.9247
   19DOPE    C2 2341   5.820   2.372   6.413  1.6419  0.1555 -0.1889
   19DOPE    HS 2342   5.729   2.335   6.465  1.6103  2.4113  1.4821
   19DOPE   O21 2343   5.830   2.300   6.288 -0.3047 -0.6226 -0.8376
   19DOPE   C21 2344   5.724   2.255   6.230  0.7641  0.1814  0.2279
   19DOPE   O22 2345   5.605   2.264   6.265  0.4976  0.0174 -0.0961
   19DOPE   C22 2346   5.765   2.194   6.098  0.4188 -0.8418 -0.1062
   19DOPE   H2R 2347   5.741   2.086   6.109 -0.2657 -0.7115 -0.2912
   19DOPE   H2S 2348   5.870   2.215   6.068  0.8612 -2.9416 -0.1539
   19DOPE    C3 2349   5.799   2.522   6.383  0.1201 -0.5681  0.8188
   19DOPE    HX 2350   5.889   2.561   6.330 -1.2637  0.3889 -0.9550
   19DOPE    HY 2351   5.788   2.579   6.478 -0.6013 -0.2251  0.5360
   19DOPE   O31 2352   5.682   2.539   6.292 -0.0556  0.1538 -0.5163
   19DOPE   C31 2353   5.569   2.543   6.360 -1.1453 -0.3816  0.0894
   19DOPE   O32 2354   5.561   2.514   6.480 -0.2382 -0.1377 -0.2277
   19DOPE   C32 2355   5.457   2.589   6.263 -0.0023  0.3889 -0.5102
   19DOPE   H2X 2356   5.435   2.510   6.189  1.6851 -0.1315 -0.4945
   19DOPE   H2Y 2357   5.366   2.611   6.324  0.1791 -1.2714  0.4052
   19DOPE   C23 2358   5.696   2.267   5.986 -0.0170 -0.0919 -0.3897
   19DOPE   H3R 2359   5.691   2.376   6.004 -0.7808 -0.0939 -0.5597
   19DOPE   H3S 2360   5.590   2.234   5.994 -0.2663  0.9398  0.8344
   19DOPE   C24 2361   5.753   2.240   5.846 -0.5320 -0.4424 -0.2748
   19DOPE   H4R 2362   5.773   2.135   5.813 -1.8562 -0.2052 -2.0134
   19DOPE   H4S 2363   5.857   2.279   5.842 -0.5444 -0.4758 -1.6472
   19DOPE   C25 2364   5.654   2.286   5.737 -0.3202  0.3982  0.6781
   19DOPE   H5R 2365   5.650   2.397   5.737  1.3024  0.4896 -0.2226
   19DOPE   H5S 2366   5.551   2.245   5.743 -0.7026  0.7248 -2.2645
   19DOPE   C26 2367   5.703   2.237   5.598 -0.6291  0.7566  0.1609
   19DOPE   H6R 2368   5.722   2.128   5.597 -0.0259  0.8148 -2.4244
   19DOPE   H6S 2369   5.803   2.278   5.572 -0.1670 -0.3344  0.1963
   19DOPE   C27 2370   5.609   2.262   5.480 -0.1495 -0.1958  0.5427
   19DOPE   H7R 2371   5.606   2.368   5.448 -0.5389 -0.9944 -2.3697
   19DOPE   H7S 2372   5.510   2.233   5.520 -1.1548  0.2656 -1.4558
   19DOPE   C28 2373   5.651   2.184   5.353 -0.2429  0.7042  0.4385
   19DOPE   H8R 2374   5.630   2.077   5.375 -1.0278  0.3513 -1.7693
   19DOPE   H8S 2375   5.759   2.204   5.337 -0.2154  1.3555  1.3680
   19DOPE   C29 2376   5.566   2.225   5.232  0.1424  0.3995  0.0411
   19DOPE   H9R 2377   5.491   2.303   5.250 -0.3445 -0.0073 -0.1862
   19DOPE  C210 2378   5.585   2.183   5.105  0.4758 -0.4343 -0.7710
   19DOPE  H10R 2379   5.517   2.218   5.026  0.3153  1.1686  0.0195
   19DOPE  C211 2380   5.677   2.071   5.050 -0.2151 -0.1172 -0.0110
   19DOPE  H11R 2381   5.740   2.016   5.123  0.1379  0.2434 -0.0464
   19DOPE  H11S 2382   5.744   2.119   4.976  0.1172  1.5450  1.3094
   19DOPE  C212 2383   5.589   1.966   4.976 -0.1903 -0.0331 -0.1917
   19DOPE  H12R 2384   5.655   1.899   4.917  0.9971 -0.1891  1.2364
   19DOPE  H12S 2385   5.522   2.014   4.902 -1.6605 -2.0231 -0.2201
   19DOPE  C213 2386   5.506   1.875   5.072  0.9775  0.4376  0.1529
   19DOPE  H13R 2387   5.427   1.944   5.107  1.8839  1.4658  0.2515
   19DOPE  H13S 2388   5.561   1.834   5.159  1.9015  0.2955 -0.4798
   19DOPE  C214 2389   5.451   1.752   4.999  0.6980  0.5526 -0.5442
   19DOPE  H14R 2390   5.530   1.688   4.954  0.6614 -1.0631  1.5290
   19DOPE  H14S 2391   5.393   1.792   4.914  0.3480 -1.2224 -1.1903
   19DOPE  C215 2392   5.358   1.665   5.092 -0.2951 -0.2057  0.3358
   19DOPE  H15R 2393   5.303   1.590   5.030  0.6153  0.1456 -0.9468
   19DOPE  H15S 2394   5.294   1.723   5.162 -0.6319 -0.2112  0.0363
   19DOPE  C216 2395   5.439   1.577   5.186  0.3266 -0.7216  0.4007
   19DOPE  H16R 2396   5.488   1.642   5.261  1.4856  0.3198 -1.1797
   19DOPE  H16S 2397   5.512   1.533   5.115 -2.2033 -1.1478 -2.1300
   19DOPE  C217 2398   5.365   1.464   5.253 -0.1787  0.0205 -0.0377
   19DOPE  H17R 2399   5.281   1.423   5.192  1.1882  0.4195 -2.3038
   19DOPE  H17S 2400   5.320   1.503   5.347 -0.3405  0.5845 -0.3428
   19DOPE  C218 2401   5.468   1.351   5.282  0.5116 -0.6303 -0.2164
   19DOPE  H18R 2402   5.429   1.290   5.366  0.4963  1.1148  1.1090
   19DOPE  H18S 2403   5.573   1.385   5.296 -0.1980  1.5947  0.1681
   19DOPE  H18T 2404   5.478   1.280   5.198  1.9963 -1.7971  0.8947
   19DOPE   C33 2405   5.489   2.715   6.178 -0.2722  0.3880 -0.4705
   19DOPE   H3X 2406   5.579   2.690   6.118  0.7045 -0.5846  1.3261
   19DOPE   H3Y 2407   5.505   2.791   6.257 -2.6860  0.4719  0.0008
   19DOPE   C34 2408   5.391   2.768   6.080 -0.1796  0.2099 -0.0833
   19DOPE   H4X 2409   5.424   2.873   6.063 -1.0604  0.8455  1.9170
   19DOPE   H4Y 2410   5.393   2.711   5.984  1.5869  1.3731 -0.7999
   19DOPE   C35 2411   5.248   2.775   6.139 -0.0214  0.0362  0.5916
   19DOPE   H5X 2412   5.262   2.812   6.242  0.9381 -0.3809  0.6179
   19DOPE   H5Y 2413   5.195   2.677   6.140 -2.2713  1.1547 -0.6249
   19DOPE   C36 2414   5.155   2.868   6.062 -0.6852  0.2970 -0.3590
   19DOPE   H6X 2415   5.146   2.839   5.956  0.0418  0.2434 -0.4127
   19DOPE   H6Y 2416   5.207   2.965   6.045 -0.9639  0.3604 -0.8719
   19DOPE   C37 2417   5.020   2.878   6.128 -0.7740 -0.1841  0.4476
   19DOPE   H7X 2418   4.979   2.775   6.121  1.2121 -0.9414 -1.1384
   19DOPE   H7Y 2419   5.032   2.897   6.237 -0.6685 -1.3067  0.6487
   19DOPE   C38 2420   4.925   2.984   6.059 -0.2276  0.5511  0.5334
   19DOPE   H8X 2421   4.986   3.075   6.079  2.0500 -0.5080 -1.0355
   19DOPE   H8Y 2422   4.833   2.991   6.120  0.2435  2.2194  1.1037
   19DOPE   C39 2423   4.909   2.971   5.912  0.1064  0.5258  0.7326
   19DOPE   H9X 2424   4.834   2.896   5.883 -0.5387  0.6643  1.9760
   19DOPE  C310 2425   4.968   3.042   5.816  0.4800 -0.4768 -0.2140
   19DOPE  H10X 2426   4.944   3.005   5.715  1.2093 -2.2898  0.2404
   19DOPE  C311 2427   5.083   3.143   5.837  0.6983 -0.0490  0.4201
   19DOPE  H11X 2428   5.060   3.237   5.782  1.6636  0.4046  0.7804
   19DOPE  H11Y 2429   5.094   3.165   5.945 -2.6290  1.6166  0.5509
   19DOPE  C312 2430   5.216   3.103   5.781 -0.4389 -0.4263  0.1275
   19DOPE  H12X 2431   5.242   3.001   5.819 -0.3770 -1.0428 -1.4750
   19DOPE  H12Y 2432   5.289   3.179   5.814 -0.2945 -2.1795  4.6038
   19DOPE  C313 2433   5.223   3.093   5.629  0.4328  0.4880  0.1523
   19DOPE  H13X 2434   5.138   3.026   5.603  0.4617  0.8423 -0.9019
   19DOPE  H13Y 2435   5.212   3.194   5.583 -0.1334 -0.0034 -0.8135
   19DOPE  C314 2436   5.348   3.030   5.573 -0.4755  0.3462  0.3591
   19DOPE  H14X 2437   5.330   3.029   5.463 -2.4243 -2.2735  0.6110
   19DOPE  H14Y 2438   5.347   2.924   5.604 -1.0383  0.2627  0.0714
   19DOPE  C315 2439   5.477   3.108   5.611 -0.2295 -0.6851  0.7603
   19DOPE  H15X 2440   5.488   3.112   5.721  1.4691 -1.0623  0.6290
   19DOPE  H15Y 2441   5.476   3.215   5.581  3.9480 -1.4519 -3.2391
   19DOPE  C316 2442   5.605   3.053   5.561  0.0038  0.3885  0.2317
   19DOPE  H16X 2443   5.596   3.027   5.453  1.0988  0.4620  0.1135
   19DOPE  H16Y 2444   5.618   2.955   5.613  3.2807  0.5513 -0.0849
   19DOPE  C317 2445   5.731   3.136   5.591 -0.0930  0.2259  0.3005
   19DOPE  H17X 2446   5.747   3.135   5.701  0.9246 -1.0234  0.1715
   19DOPE  H17Y 2447   5.815   3.084   5.540 -1.0223 -0.6361 -0.3800
   19DOPE  C318 2448   5.742   3.275   5.533 -0.2615 -0.3034 -0.3446
   19DOPE  H18X 2449   5.842   3.323   5.543  0.7551 -2.5038  0.6182
   19DOPE  H18Y 2450   5.719   3.268   5.424  2.0299 -1.5291 -0.8174
   19DOPE  H18Z 2451   5.659   3.338   5.573  1.0037 -0.3100  2.5073
   20DOPE     N 2452   5.142   6.497   6.909 -0.2970  0.3445 -0.3319
   20DOPE   HN1 2453   5.137   6.596   6.880  0.4867 -0.0494 -1.9753
   20DOPE   HN2 2454   5.041   6.489   6.933  0.0305  0.2822  1.1103
   20DOPE   HN3 2455   5.204   6.483   6.991 -1.8552 -1.2217  0.6541
   20DOPE   C12 2456   5.179   6.411   6.792  0.4813 -0.0138  0.3482
   20DOPE  H12A 2457   5.282   6.429   6.754  0.8689 -3.0201 -0.2761
   20DOPE  H12B 2458   5.102   6.434   6.716 -1.1733  0.8502  2.2065
   20DOPE   C11 2459   5.184   6.258   6.828  0.2561 -0.2002 -0.1603
   20DOPE  H11A 2460   5.218   6.201   6.739 -0.9121 -0.4196 -0.4770
   20DOPE  H11B 2461   5.081   6.227   6.853  0.3571 -0.1098  0.3705
   20DOPE     P 2462   5.422   6.211   6.925 -0.3282  0.1206 -0.3512
   20DOPE   O13 2463   5.471   6.161   7.057 -0.2147  0.3264  0.3432
   20DOPE   O14 2464   5.489   6.325   6.864 -0.2389  0.2928 -0.2504
   20DOPE   O11 2465   5.435   6.091   6.831  0.2671 -0.0899  0.1527
   20DOPE   O12 2466   5.263   6.231   6.936 -0.2708 -0.1847 -0.1782
   20DOPE    C1 2467   5.345   5.977   6.821 -0.1569  0.4394 -0.7319
   20DOPE    HA 2468   5.277   5.987   6.734  0.0286  1.5055 -0.7692
   20DOPE    HB 2469   5.292   5.967   6.917  1.4546 -0.8687  0.0813
   20DOPE    C2 2470   5.428   5.846   6.801  0.5986  0.1310 -0.1802
   20DOPE    HS 2471   5.528   5.856   6.848  2.5059  1.0716 -4.1064
   20DOPE   O21 2472   5.453   5.844   6.665 -0.4542  0.1849  1.0825
   20DOPE   C21 2473   5.548   5.767   6.623 -0.3512  0.2334 -0.4349
   20DOPE   O22 2474   5.633   5.717   6.696 -0.4454  0.2046  0.3729
   20DOPE   C22 2475   5.551   5.756   6.466 -1.0572  0.4367  0.4969
   20DOPE   H2R 2476   5.604   5.847   6.431 -0.6597  0.3193  0.7843
   20DOPE   H2S 2477   5.446   5.761   6.432 -0.5055 -0.5478 -1.5011
   20DOPE    C3 2478   5.359   5.713   6.849  1.6617 -0.4100  0.3400
   20DOPE    HX 2479   5.328   5.724   6.956  0.1648  0.0895 -0.1178
   20DOPE    HY 2480   5.429   5.630   6.828  0.8228 -0.6683 -1.6631
   20DOPE   O31 2481   5.227   5.690   6.792  0.6519  0.5616 -0.8707
   20DOPE   C31 2482   5.235   5.611   6.689  0.7699  0.3907 -0.4972
   20DOPE   O32 2483   5.334   5.544   6.657  0.4083 -0.6472 -0.2791
   20DOPE   C32 2484   5.099   5.597   6.621  0.7831 -0.7589 -0.8445
   20DOPE   H2X 2485   5.066   5.493   6.643 -0.7943 -0.2013 -0.4697
   20DOPE   H2Y 2486   5.018   5.662   6.660 -0.3971 -1.6387 -1.7425
   20DOPE   C23 2487   5.608   5.621   6.404 -0.9032 -0.1358 -0.4186
   20DOPE   H3R 2488   5.560   5.535   6.455 -0.5745  0.8521  1.6582
   20DOPE   H3S 2489   5.713   5.622   6.442  0.3034 -0.7614 -3.4092
   20DOPE   C24 2490   5.604   5.625   6.249  1.4713  0.1315 -0.0252
   20DOPE   H4R 2491   5.669   5.542   6.214  0.1125 -1.2613  0.6430
   20DOPE   H4S 2492   5.654   5.719   6.219  0.8383  0.7874  0.9265
   20DOPE   C25 2493   5.464   5.609   6.184  0.2508  0.8082 -0.1125
   20DOPE   H5R 2494   5.489   5.618   6.076  0.6788 -1.7409 -0.2775
   20DOPE   H5S 2495   5.394   5.690   6.213  0.2793  0.8129 -0.0579
   20DOPE   C26 2496   5.406   5.469   6.217 -0.0881 -0.2732  0.0989
   20DOPE   H6R 2497   5.388   5.465   6.327 -0.0592  0.6339  0.1459
   20DOPE   H6S 2498   5.477   5.389   6.187  2.4897  1.7446  0.4572
   20DOPE   C27 2499   5.275   5.453   6.142 -0.6999  0.6948 -0.3462
   20DOPE   H7R 2500   5.288   5.456   6.031  1.3494 -1.0254 -0.2107
   20DOPE   H7S 2501   5.214   5.543   6.167 -0.7437  0.4540  0.4074
   20DOPE   C28 2502   5.202   5.315   6.176 -0.5961 -0.4810 -0.2147
   20DOPE   H8R 2503   5.098   5.332   6.140  0.2863  1.5107 -2.0824
   20DOPE   H8S 2504   5.178   5.328   6.284 -0.8445  1.6418 -0.4777
   20DOPE   C29 2505   5.266   5.183   6.136 -0.0547 -0.3349  0.1748
   20DOPE   H9R 2506   5.373   5.173   6.162  0.1823  0.0914 -0.6067
   20DOPE  C210 2507   5.224   5.097   6.038 -0.2107  0.7920  0.1491
   20DOPE  H10R 2508   5.287   5.014   6.002 -2.8506 -0.7577 -1.1931
   20DOPE  C211 2509   5.105   5.117   5.955 -0.5401 -0.7645  0.5128
   20DOPE  H11R 2510   5.149   5.150   5.859 -1.6753 -0.1882  0.1764
   20DOPE  H11S 2511   5.048   5.205   5.995 -1.1813 -2.3965  3.5472
   20DOPE  C212 2512   5.017   4.999   5.921  0.2576  0.1066  0.2293
   20DOPE  H12R 2513   4.931   5.042   5.864  0.6686  1.5844  0.6846
   20DOPE  H12S 2514   4.968   4.968   6.016  1.4804  2.3823  1.6832
   20DOPE  C213 2515   5.096   4.892   5.846 -0.4360 -0.3947 -0.1666
   20DOPE  H13R 2516   5.164   4.847   5.922 -1.1927 -1.1739  0.0634
   20DOPE  H13S 2517   5.167   4.936   5.773 -0.6828 -0.6435 -0.5618
   20DOPE  C214 2518   5.017   4.781   5.770 -0.2247 -0.0909 -0.4322
   20DOPE  H14R 2519   4.979   4.703   5.839  0.2200  1.3808  1.5612
   20DOPE  H14S 2520   5.083   4.724   5.701  1.7012  0.6218  0.7559
   20DOPE  C215 2521   4.905   4.851   5.691 -0.2308  0.2347  0.2041
   20DOPE  H15R 2522   4.962   4.918   5.622  2.1519 -1.5659  0.2973
   20DOPE  H15S 2523   4.838   4.912   5.755 -0.4767 -0.1879  0.3523
   20DOPE  C216 2524   4.810   4.758   5.603 -0.3457  0.0304  0.0370
   20DOPE  H16R 2525   4.796   4.664   5.661 -0.1039 -1.7678 -2.6433
   20DOPE  H16S 2526   4.866   4.737   5.509 -0.5331  1.3086 -0.3830
   20DOPE  C217 2527   4.675   4.828   5.565  0.7761 -0.1606 -0.1098
   20DOPE  H17R 2528   4.688   4.898   5.480  1.5246 -1.1236 -0.8140
   20DOPE  H17S 2529   4.638   4.885   5.652  0.9547  3.8048 -2.3922
   20DOPE  C218 2530   4.573   4.719   5.520  0.0909 -0.0333 -0.2889
   20DOPE  H18R 2531   4.545   4.654   5.606 -2.3243 -0.2283 -1.1500
   20DOPE  H18S 2532   4.622   4.657   5.443 -0.6421 -0.5400 -0.3628
   20DOPE  H18T 2533   4.483   4.767   5.475 -0.2050  0.0696  0.3857
   20DOPE   C33 2534   5.114   5.615   6.468 -0.7512 -0.1903  0.2808
   20DOPE   H3X 2535   5.033   5.558   6.417  0.0501  0.1043 -1.4037
   20DOPE   H3Y 2536   5.203   5.563   6.427 -1.5218  0.9996 -3.3223
   20DOPE   C34 2537   5.095   5.759   6.411 -0.6341  0.1026  0.1498
   20DOPE   H4X 2538   5.166   5.815   6.476 -0.3073 -0.9539  0.7352
   20DOPE   H4Y 2539   5.126   5.767   6.305  1.1788 -1.2257  0.5242
   20DOPE   C35 2540   4.964   5.829   6.434  0.4310 -0.9275  0.0519
   20DOPE   H5X 2541   4.916   5.804   6.532 -0.0585 -1.4497 -0.3150
   20DOPE   H5Y 2542   4.882   5.793   6.368 -0.4626 -2.0525  1.6801
   20DOPE   C36 2543   4.980   5.985   6.428  0.0488  0.2718  0.1281
   20DOPE   H6X 2544   4.879   6.016   6.393 -0.8331 -2.0029  0.5244
   20DOPE   H6Y 2545   5.044   5.998   6.338  0.8604 -2.0049  0.3087
   20DOPE   C37 2546   5.018   6.060   6.553 -0.2081 -0.8069  0.1841
   20DOPE   H7X 2547   4.968   6.011   6.639  2.4813 -0.9515  1.7667
   20DOPE   H7Y 2548   5.128   6.060   6.568  0.0369 -1.1310 -1.4131
   20DOPE   C38 2549   4.975   6.204   6.540 -0.2238 -0.7397  0.8293
   20DOPE   H8X 2550   4.997   6.259   6.634  0.3918 -0.7878  0.7128
   20DOPE   H8Y 2551   4.865   6.211   6.527  0.0749 -1.2113 -3.3270
   20DOPE   C39 2552   5.045   6.283   6.436  0.2320  0.8736 -0.9808
   20DOPE   H9X 2553   5.155   6.273   6.436  0.2680  0.8612  1.0600
   20DOPE  C310 2554   4.990   6.368   6.348 -0.6832 -0.3615 -0.2619
   20DOPE  H10X 2555   5.047   6.423   6.272 -0.4957 -0.2060 -0.0082
   20DOPE  C311 2556   4.848   6.419   6.340  0.2611  0.6537 -0.0320
   20DOPE  H11X 2557   4.806   6.427   6.442  0.9940 -1.8780  0.5325
   20DOPE  H11Y 2558   4.834   6.523   6.302 -2.3881  0.2898 -0.2250
   20DOPE  C312 2559   4.749   6.325   6.260 -0.4520  0.3516  0.3356
   20DOPE  H12X 2560   4.658   6.386   6.240  0.0957  0.7370 -1.1618
   20DOPE  H12Y 2561   4.731   6.241   6.330 -0.9199  0.8230  0.7835
   20DOPE  C313 2562   4.798   6.276   6.121  0.1824 -0.4199  0.5389
   20DOPE  H13X 2563   4.892   6.217   6.131  0.7836  0.8007  2.7147
   20DOPE  H13Y 2564   4.724   6.208   6.073  0.8571 -0.1202 -0.9830
   20DOPE  C314 2565   4.818   6.398   6.026  0.1193 -0.1515  0.2847
   20DOPE  H14X 2566   4.911   6.445   6.064  0.2836  1.2560 -1.7471
   20DOPE  H14Y 2567   4.731   6.462   6.051 -1.1213 -1.4822 -0.5323
   20DOPE  C315 2568   4.824   6.371   5.875 -0.0459  0.2442 -0.2315
   20DOPE  H15X 2569   4.842   6.471   5.831 -1.5775  1.5169  1.8433
   20DOPE  H15Y 2570   4.726   6.334   5.838 -0.2284  1.5514 -1.1241
   20DOPE  C316 2571   4.927   6.263   5.839 -0.0285  0.0055  0.1305
   20DOPE  H16X 2572   4.883   6.173   5.887 -0.8683 -0.0678 -0.7476
   20DOPE  H16Y 2573   5.026   6.299   5.874 -0.7576  0.9159  1.3691
   20DOPE  C317 2574   4.947   6.240   5.688 -0.5113  0.6758 -0.7858
   20DOPE  H17X 2575   4.978   6.336   5.641  0.5422  0.6249 -0.2285
   20DOPE  H17Y 2576   5.036   6.176   5.670  0.4615  1.9471 -0.6450
   20DOPE  C318 2577   4.821   6.182   5.633  0.3015 -0.2473  0.0364
   20DOPE  H18X 2578   4.821   6.153   5.526 -1.0865  1.4343 -0.4576
   20DOPE  H18Y 2579   4.792   6.086   5.682 -1.0512 -0.0929 -0.4412
   20DOPE  H18Z 2580   4.743   6.259   5.648 -0.6806 -1.2985  0.4408
   21DOPE     N 2581   2.706   7.146   7.168  0.4787  0.3425 -0.0311
   21DOPE   HN1 2582   2.622   7.187   7.213 -1.8233 -4.0685  0.2742
   21DOPE   HN2 2583   2.741   7.068   7.227 -0.8069 -1.3268 -1.3634
   21DOPE   HN3 2584   2.777   7.220   7.154  1.7138 -0.7117  0.4656
   21DOPE   C12 2585   2.670   7.098   7.025  0.2186 -1.0266 -0.2071
   21DOPE  H12A 2586   2.673   7.190   6.961  2.2403 -0.7604  0.2021
   21DOPE  H12B 2587   2.568   7.058   7.035  0.0747 -0.5865  0.1333
   21DOPE   C11 2588   2.765   6.996   6.960  0.4434  0.6244 -0.1995
   21DOPE  H11A 2589   2.861   7.049   6.943  0.5107  0.2259 -1.1319
   21DOPE  H11B 2590   2.723   6.974   6.860 -0.0696  1.0674 -0.0843
   21DOPE     P 2591   2.840   6.746   6.995  0.0578 -0.4268 -0.3845
   21DOPE   O13 2592   2.771   6.650   7.084  0.2146 -0.5140  0.1747
   21DOPE   O14 2593   2.990   6.740   7.001 -0.0893  0.4337 -0.1841
   21DOPE   O11 2594   2.787   6.721   6.851  0.0937 -0.7367  0.3359
   21DOPE   O12 2595   2.780   6.882   7.042  0.8374 -0.7650  0.1135
   21DOPE    C1 2596   2.674   6.637   6.826 -0.3492 -0.4615 -0.3589
   21DOPE    HA 2597   2.592   6.660   6.898  0.1688  0.2009  0.0319
   21DOPE    HB 2598   2.698   6.530   6.846  1.5787 -0.4787 -2.3345
   21DOPE    C2 2599   2.610   6.656   6.680  0.1632  0.0131  0.3175
   21DOPE    HS 2600   2.515   6.599   6.667 -0.2342  0.6701  0.2879
   21DOPE   O21 2601   2.705   6.613   6.587 -0.1336  0.6772 -0.2158
   21DOPE   C21 2602   2.726   6.483   6.576 -0.2277  0.3153 -0.5151
   21DOPE   O22 2603   2.651   6.393   6.627 -0.0328 -0.4837  0.1292
   21DOPE   C22 2604   2.862   6.467   6.514  0.2756 -0.2881 -0.2844
   21DOPE   H2R 2605   2.937   6.511   6.583  1.2301 -0.9377 -0.8916
   21DOPE   H2S 2606   2.874   6.540   6.430 -0.4865 -0.7902 -0.8468
   21DOPE    C3 2607   2.581   6.806   6.660 -0.0516 -0.3349 -0.2818
   21DOPE    HX 2608   2.682   6.850   6.675  0.1618 -0.6065 -0.8891
   21DOPE    HY 2609   2.509   6.842   6.737 -0.4614  2.4669 -1.8241
   21DOPE   O31 2610   2.535   6.844   6.526 -0.1632 -0.3571  0.1668
   21DOPE   C31 2611   2.480   6.961   6.515  0.0284 -0.5959 -0.4824
   21DOPE   O32 2612   2.475   7.043   6.606 -0.6499 -0.2627 -0.1154
   21DOPE   C32 2613   2.449   6.995   6.373 -0.2174  0.2097 -0.4066
   21DOPE   H2X 2614   2.545   6.995   6.316 -0.3414 -0.1057 -0.6163
   21DOPE   H2Y 2615   2.398   6.905   6.331  1.4561 -1.9889  1.9166
   21DOPE   C23 2616   2.896   6.325   6.473  0.3026  0.0312  0.2144
   21DOPE   H3R 2617   2.878   6.253   6.556 -0.9445  0.8316  0.6645
   21DOPE   H3S 2618   3.000   6.301   6.444 -0.7899 -4.6726 -0.6157
   21DOPE   C24 2619   2.811   6.278   6.354  0.7883  0.0886 -0.8710
   21DOPE   H4R 2620   2.700   6.284   6.360  0.9127  2.1619  0.0056
   21DOPE   H4S 2621   2.823   6.168   6.339 -0.6367 -0.2087 -0.0018
   21DOPE   C25 2622   2.850   6.349   6.230  0.6674 -0.4626  0.4356
   21DOPE   H5R 2623   2.959   6.340   6.211  0.6050 -1.6883  0.5479
   21DOPE   H5S 2624   2.826   6.456   6.246  0.3042 -0.2656 -1.1998
   21DOPE   C26 2625   2.772   6.295   6.105  0.1376  0.4548  0.1197
   21DOPE   H6R 2626   2.667   6.332   6.105 -0.4673 -1.1165 -1.3230
   21DOPE   H6S 2627   2.772   6.185   6.115 -1.1812  0.3672 -0.5870
   21DOPE   C27 2628   2.835   6.353   5.975  1.0578  0.8581  0.0290
   21DOPE   H7R 2629   2.940   6.316   5.973  0.7709  0.0269  0.1015
   21DOPE   H7S 2630   2.842   6.464   5.972 -1.0877  1.0183 -1.3911
   21DOPE   C28 2631   2.765   6.306   5.843 -0.4179 -0.0308 -0.4754
   21DOPE   H8R 2632   2.661   6.345   5.855  0.0564  0.7975  1.3103
   21DOPE   H8S 2633   2.765   6.196   5.860  0.2602  0.2993  2.2152
   21DOPE   C29 2634   2.829   6.367   5.718  0.6055 -0.3656 -0.1715
   21DOPE   H9R 2635   2.938   6.370   5.735  0.3441  1.2658  1.3801
   21DOPE  C210 2636   2.778   6.426   5.606 -0.3405 -0.2496  0.4124
   21DOPE  H10R 2637   2.853   6.478   5.545  0.3799  1.9573  3.0113
   21DOPE  C211 2638   2.628   6.437   5.565 -0.3134  0.2281  0.4694
   21DOPE  H11R 2639   2.610   6.543   5.537 -0.3910  0.2382  0.5592
   21DOPE  H11S 2640   2.560   6.424   5.651 -3.6962 -0.1551 -2.0537
   21DOPE  C212 2641   2.567   6.343   5.460  0.6129  0.7773 -0.0188
   21DOPE  H12R 2642   2.459   6.363   5.443  0.3842 -0.6142 -0.3378
   21DOPE  H12S 2643   2.590   6.241   5.497  1.7690  1.5900  1.6204
   21DOPE  C213 2644   2.625   6.358   5.316 -0.8256 -0.3356 -0.5717
   21DOPE  H13R 2645   2.733   6.335   5.328 -1.2604 -1.3993  2.1123
   21DOPE  H13S 2646   2.619   6.465   5.288 -4.6181 -0.6185 -1.2979
   21DOPE  C214 2647   2.562   6.280   5.203  0.7881  1.0410  0.4410
   21DOPE  H14R 2648   2.572   6.170   5.215 -1.5745  0.9945  3.0129
   21DOPE  H14S 2649   2.623   6.292   5.111  0.7659  0.8721  0.4034
   21DOPE  C215 2650   2.411   6.308   5.176  0.3906 -0.0827 -0.0605
   21DOPE  H15R 2651   2.349   6.267   5.259 -0.5453  2.6471  0.7047
   21DOPE  H15S 2652   2.386   6.256   5.082  0.6836  0.4259 -0.4244
   21DOPE  C216 2653   2.381   6.455   5.167  0.1301  0.5643  0.3986
   21DOPE  H16R 2654   2.409   6.495   5.267  0.6671 -0.7934  0.8130
   21DOPE  H16S 2655   2.271   6.473   5.161  0.0287  0.2148  1.0869
   21DOPE  C217 2656   2.447   6.533   5.057 -0.3588 -0.0005 -0.1296
   21DOPE  H17R 2657   2.533   6.475   5.016 -1.4480 -1.9857  0.2400
   21DOPE  H17S 2658   2.480   6.633   5.092  0.5354 -0.3544  0.0551
   21DOPE  C218 2659   2.356   6.549   4.939 -0.1992  0.0095 -0.4869
   21DOPE  H18R 2660   2.343   6.455   4.882  0.7877 -1.3400  1.3962
   21DOPE  H18S 2661   2.395   6.610   4.855  0.2272 -2.0159 -1.8399
   21DOPE  H18T 2662   2.259   6.588   4.978 -0.0042 -1.2254  1.3518
   21DOPE   C33 2663   2.380   7.130   6.341 -0.2725 -0.8225 -0.5441
   21DOPE   H3X 2664   2.445   7.212   6.376  1.0806 -0.8840 -2.7422
   21DOPE   H3Y 2665   2.282   7.129   6.393 -0.9494  2.7423 -1.5283
   21DOPE   C34 2666   2.355   7.153   6.198  0.1884  0.3186  0.3730
   21DOPE   H4X 2667   2.310   7.062   6.153  0.4310  1.0064 -1.3387
   21DOPE   H4Y 2668   2.295   7.246   6.186 -0.5011  0.0344  1.4217
   21DOPE   C35 2669   2.493   7.185   6.127 -0.7211 -0.4139  0.1168
   21DOPE   H5X 2670   2.586   7.130   6.154  1.9700  2.9054 -1.5899
   21DOPE   H5Y 2671   2.523   7.290   6.149  2.1875 -0.8790 -1.0864
   21DOPE   C36 2672   2.471   7.162   5.974 -0.1561 -0.3539  0.2511
   21DOPE   H6X 2673   2.395   7.232   5.934  1.2770  0.2649 -1.5332
   21DOPE   H6Y 2674   2.423   7.063   5.958  0.8103 -1.3775  3.1962
   21DOPE   C37 2675   2.595   7.153   5.880 -0.9348  0.3086  0.0795
   21DOPE   H7X 2676   2.636   7.257   5.878 -1.7009  0.6025 -0.9002
   21DOPE   H7Y 2677   2.678   7.085   5.906 -0.1191  0.6708 -1.4445
   21DOPE   C38 2678   2.563   7.117   5.735  0.3733 -0.6301 -0.8577
   21DOPE   H8X 2679   2.652   7.127   5.670  0.9650  0.1084  0.0457
   21DOPE   H8Y 2680   2.478   7.182   5.705  1.4470  0.1975 -2.2157
   21DOPE   C39 2681   2.522   6.972   5.727 -0.1995 -0.3312 -0.1478
   21DOPE   H9X 2682   2.569   6.906   5.801 -0.0261  0.0765  0.1093
   21DOPE  C310 2683   2.423   6.930   5.643 -0.0693 -0.3742 -0.1798
   21DOPE  H10X 2684   2.396   6.824   5.633 -0.2510 -0.4927  1.2866
   21DOPE  C311 2685   2.363   7.020   5.540  0.5626  0.2295  0.8924
   21DOPE  H11X 2686   2.293   7.093   5.586 -0.5165 -0.1486 -0.0988
   21DOPE  H11Y 2687   2.441   7.082   5.491 -0.0889  0.1224 -0.3068
   21DOPE  C312 2688   2.313   6.938   5.419 -0.1370 -0.5608  0.2842
   21DOPE  H12X 2689   2.230   6.870   5.449 -1.6937  0.0012 -2.4385
   21DOPE  H12Y 2690   2.384   6.865   5.375  0.0823 -0.3181  0.2358
   21DOPE  C313 2691   2.273   7.018   5.295  0.3039 -0.8474  0.6057
   21DOPE  H13X 2692   2.191   7.088   5.324 -0.2230 -1.5203  0.7764
   21DOPE  H13Y 2693   2.363   7.077   5.269  0.7059 -0.6355  2.3509
   21DOPE  C314 2694   2.237   6.917   5.186 -0.3963 -0.2641 -0.1347
   21DOPE  H14X 2695   2.147   6.859   5.217  0.4502 -1.7367 -0.3261
   21DOPE  H14Y 2696   2.318   6.843   5.169  1.1910  1.4522 -0.3195
   21DOPE  C315 2697   2.208   6.979   5.052 -0.1535 -0.3680  0.1680
   21DOPE  H15X 2698   2.298   7.027   5.008  1.0826 -2.9160 -0.2413
   21DOPE  H15Y 2699   2.130   7.058   5.059  1.5534  1.3175  0.8143
   21DOPE  C316 2700   2.158   6.868   4.962 -1.0558 -0.0238 -0.5183
   21DOPE  H16X 2701   2.075   6.818   5.015 -0.9133  0.2051 -0.0788
   21DOPE  H16Y 2702   2.241   6.795   4.956  0.5870  1.5111  1.7138
   21DOPE  C317 2703   2.118   6.921   4.829 -0.4474 -0.0562  0.2130
   21DOPE  H17X 2704   2.046   7.004   4.837  0.4257  0.9259 -1.4551
   21DOPE  H17Y 2705   2.209   6.972   4.790 -0.4714  0.8157  1.2584
   21DOPE  C318 2706   2.064   6.831   4.720 -0.4825 -0.1899  0.0886
   21DOPE  H18X 2707   2.141   6.751   4.711 -1.2654 -1.3955  3.0573
   21DOPE  H18Y 2708   1.968   6.785   4.752 -0.3308  1.0127  2.5056
   21DOPE  H18Z 2709   2.057   6.873   4.617  0.7140 -2.0122 -0.7849
   22DOPE     N 2710   6.055   4.488   6.666  0.0927 -0.1376  0.1928
   22DOPE   HN1 2711   5.975   4.503   6.602  0.1953 -0.5681 -0.0446
   22DOPE   HN2 2712   6.047   4.568   6.731 -2.3087  1.2497 -1.6324
   22DOPE   HN3 2713   6.144   4.496   6.612  1.7327  0.4981  2.8116
   22DOPE   C12 2714   6.052   4.353   6.733 -0.2254 -1.0638 -0.1642
   22DOPE  H12A 2715   6.109   4.279   6.673 -0.1216 -1.0572 -0.0739
   22DOPE  H12B 2716   5.945   4.323   6.732  0.4347 -3.6924 -0.6555
   22DOPE   C11 2717   6.111   4.368   6.874 -0.6179  0.5282 -0.2533
   22DOPE  H11A 2718   6.138   4.264   6.902 -2.2841 -0.6990 -2.8545
   22DOPE  H11B 2719   6.029   4.407   6.939  1.0940  3.0474  0.5493
   22DOPE     P 2720   6.372   4.412   6.888 -0.1925 -0.4668 -0.2023
   22DOPE   O13 2721   6.413   4.385   7.029 -0.1937 -0.0985  0.2587
   22DOPE   O14 2722   6.455   4.513   6.815  0.0146  0.4901  0.1275
   22DOPE   O11 2723   6.366   4.282   6.806  0.0386 -1.0837 -0.7931
   22DOPE   O12 2724   6.226   4.457   6.892  0.2987 -0.3705 -0.5115
   22DOPE    C1 2725   6.482   4.203   6.768  0.5229  0.0578  0.6658
   22DOPE    HA 2726   6.467   4.100   6.806  0.1133  0.1932  0.8760
   22DOPE    HB 2727   6.577   4.246   6.806  1.7393 -0.9630 -1.0516
   22DOPE    C2 2728   6.496   4.205   6.605 -0.3387  0.2373  0.2334
   22DOPE    HS 2729   6.486   4.311   6.575 -1.6131  0.3715  1.0270
   22DOPE   O21 2730   6.388   4.130   6.554  0.0035 -0.1008  0.2059
   22DOPE   C21 2731   6.347   4.165   6.438  0.3541  0.3534  0.0389
   22DOPE   O22 2732   6.373   4.265   6.378 -0.1659 -0.6680  0.1116
   22DOPE   C22 2733   6.252   4.055   6.376 -0.0266  0.5058 -0.6370
   22DOPE   H2R 2734   6.152   4.101   6.358 -1.1245 -0.3738  2.5129
   22DOPE   H2S 2735   6.229   3.981   6.456  2.4314 -0.8034 -1.0346
   22DOPE    C3 2736   6.637   4.144   6.562  0.4397  0.6733  0.1343
   22DOPE    HX 2737   6.656   4.045   6.607 -4.0572 -0.4529 -0.0041
   22DOPE    HY 2738   6.719   4.207   6.605  1.9934  0.2976 -2.1077
   22DOPE   O31 2739   6.648   4.133   6.412 -0.6986 -0.1723 -0.7276
   22DOPE   C31 2740   6.670   4.252   6.361 -0.1263  0.0665 -0.6474
   22DOPE   O32 2741   6.700   4.350   6.427 -0.2833 -0.4241 -0.5979
   22DOPE   C32 2742   6.663   4.241   6.209  0.1657 -0.0425 -0.6622
   22DOPE   H2X 2743   6.690   4.136   6.187  2.0526  0.3096 -0.2726
   22DOPE   H2Y 2744   6.558   4.270   6.186  0.1449  0.3299 -0.1034
   22DOPE   C23 2745   6.300   3.993   6.245  0.7114 -0.3742 -0.3368
   22DOPE   H3R 2746   6.410   3.977   6.252  0.5651 -1.1241  0.4066
   22DOPE   H3S 2747   6.282   4.059   6.157 -0.1509  1.6387  1.2594
   22DOPE   C24 2748   6.232   3.856   6.219 -0.9803  0.4183 -0.2657
   22DOPE   H4R 2749   6.228   3.791   6.309 -1.5601  1.6850  0.6498
   22DOPE   H4S 2750   6.292   3.820   6.133 -1.8894  2.1630 -1.6830
   22DOPE   C25 2751   6.091   3.860   6.164  0.1916 -0.0553  0.2584
   22DOPE   H5R 2752   6.069   3.754   6.136 -0.0593  0.0130  0.1981
   22DOPE   H5S 2753   6.087   3.927   6.077  0.1830  1.8271  1.6526
   22DOPE   C26 2754   5.980   3.876   6.268 -0.4478 -0.7913 -0.5006
   22DOPE   H6R 2755   5.974   3.984   6.293  0.5767 -1.0959  1.2090
   22DOPE   H6S 2756   6.008   3.826   6.363  0.2418  1.0801  0.3241
   22DOPE   C27 2757   5.836   3.829   6.230  0.0874 -0.7357 -0.2770
   22DOPE   H7R 2758   5.771   3.846   6.319  0.1696  0.0396 -0.3508
   22DOPE   H7S 2759   5.842   3.720   6.210  0.9087 -0.4799 -1.5613
   22DOPE   C28 2760   5.776   3.898   6.111 -0.3922  0.2533 -0.4918
   22DOPE   H8R 2761   5.860   3.895   6.038  1.1955  1.1383  1.1972
   22DOPE   H8S 2762   5.755   4.004   6.135 -0.7801  0.3914 -1.4001
   22DOPE   C29 2763   5.654   3.834   6.061 -0.5702 -0.8233 -0.2076
   22DOPE   H9R 2764   5.676   3.735   6.020  0.5373 -1.8843  2.7138
   22DOPE  C210 2765   5.534   3.892   6.029 -1.0286 -0.7466  0.6772
   22DOPE  H10R 2766   5.444   3.836   6.001 -0.9345 -0.6022  0.0853
   22DOPE  C211 2767   5.509   4.035   6.034  0.9297 -1.1382 -0.0242
   22DOPE  H11R 2768   5.592   4.090   6.084 -1.7516  1.8095  1.5577
   22DOPE  H11S 2769   5.421   4.061   6.097 -1.2413  0.8079 -3.5349
   22DOPE  C212 2770   5.481   4.092   5.895 -0.2199 -0.2238  0.7523
   22DOPE  H12R 2771   5.571   4.081   5.831 -0.6898  1.2089 -0.1989
   22DOPE  H12S 2772   5.468   4.202   5.893 -1.2548 -0.3118  1.4910
   22DOPE  C213 2773   5.360   4.035   5.813  0.4755  0.4704  0.0641
   22DOPE  H13R 2774   5.384   3.929   5.790  0.5210  0.9753 -2.3929
   22DOPE  H13S 2775   5.350   4.085   5.715  0.5062  1.4193  0.5344
   22DOPE  C214 2776   5.221   4.042   5.882  0.9131  0.1851  0.1394
   22DOPE  H14R 2777   5.192   4.138   5.930 -1.4808 -0.1257 -0.5473
   22DOPE  H14S 2778   5.225   3.968   5.965 -0.9239  0.7021  0.7456
   22DOPE  C215 2779   5.095   3.993   5.802  0.3702 -0.1993 -0.3373
   22DOPE  H15R 2780   5.132   3.918   5.729 -0.6582 -0.8554 -0.2122
   22DOPE  H15S 2781   5.059   4.076   5.737  0.5927  0.2231  0.0789
   22DOPE  C216 2782   4.989   3.931   5.900  0.0152  0.1027 -0.2205
   22DOPE  H16R 2783   4.953   4.019   5.957 -0.1677 -0.2948  0.2917
   22DOPE  H16S 2784   5.034   3.857   5.970  1.6074  1.3957  0.1931
   22DOPE  C217 2785   4.881   3.855   5.824  0.0493  0.7290  0.1466
   22DOPE  H17R 2786   4.932   3.782   5.757  0.6122  1.4413 -0.2091
   22DOPE  H17S 2787   4.815   3.920   5.763  1.2797  2.0265  0.1441
   22DOPE  C218 2788   4.798   3.772   5.917 -0.4767  0.3550 -0.6412
   22DOPE  H18R 2789   4.714   3.717   5.871 -0.0461 -0.9730  0.1145
   22DOPE  H18S 2790   4.750   3.830   5.999  0.7820  0.5272  0.0050
   22DOPE  H18T 2791   4.842   3.681   5.962 -2.8715 -0.1616  0.8539
   22DOPE   C33 2792   6.772   4.334   6.137  0.2644  0.2970  0.2305
   22DOPE   H3X 2793   6.772   4.437   6.178  2.1367  0.1928  0.5821
   22DOPE   H3Y 2794   6.736   4.335   6.032 -3.7748 -1.1674  1.4048
   22DOPE   C34 2795   6.922   4.287   6.145  0.5119 -0.0340  0.7453
   22DOPE   H4X 2796   6.965   4.341   6.233 -4.0404  0.6854  2.8021
   22DOPE   H4Y 2797   6.909   4.179   6.166  1.4650 -0.3184 -0.0452
   22DOPE   C35 2798   7.003   4.307   6.017  0.7180 -0.3349  0.2659
   22DOPE   H5X 2799   6.940   4.278   5.931 -0.0149 -2.1317  1.3485
   22DOPE   H5Y 2800   7.097   4.248   6.024  0.6554 -0.6491 -1.2941
   22DOPE   C36 2801   7.052   4.458   6.014  0.0082  0.3054  0.7621
   22DOPE   H6X 2802   7.137   4.478   6.083  2.4463  0.1423 -1.9881
   22DOPE   H6Y 2803   6.967   4.526   6.034 -0.0324  0.2475  0.7825
   22DOPE   C37 2804   7.090   4.493   5.869 -0.7067 -0.3060 -0.1523
   22DOPE   H7X 2805   7.142   4.403   5.831  1.5652  0.0453  1.8564
   22DOPE   H7Y 2806   7.006   4.527   5.805 -0.3581  0.9033 -0.0003
   22DOPE   C38 2807   7.186   4.614   5.860 -0.6556 -0.2575  0.0326
   22DOPE   H8X 2808   7.287   4.584   5.898 -1.3175 -0.2949  1.8828
   22DOPE   H8Y 2809   7.155   4.702   5.920  0.3536 -0.9969  1.7164
   22DOPE   C39 2810   7.195   4.668   5.718 -0.0351 -0.4038 -0.4279
   22DOPE   H9X 2811   7.115   4.638   5.648  2.4229 -0.8181 -3.2813
   22DOPE  C310 2812   7.302   4.721   5.668 -0.3624  0.1085 -0.5510
   22DOPE  H10X 2813   7.304   4.747   5.562 -2.3619 -0.4837 -0.7784
   22DOPE  C311 2814   7.437   4.746   5.734  0.5756  0.4551 -0.3644
   22DOPE  H11X 2815   7.476   4.842   5.694  1.9997 -0.5298 -1.4256
   22DOPE  H11Y 2816   7.437   4.762   5.844 -0.0106  1.4550 -0.4941
   22DOPE  C312 2817   7.532   4.632   5.702  0.4376  0.9905 -0.7694
   22DOPE  H12X 2818   7.487   4.536   5.734  0.0636  0.7865 -1.8577
   22DOPE  H12Y 2819   7.619   4.641   5.770  0.2952 -1.3311 -0.2208
   22DOPE  C313 2820   7.577   4.638   5.557 -0.2689  0.8156 -1.0932
   22DOPE  H13X 2821   7.500   4.598   5.488 -0.2481 -2.4444  0.5422
   22DOPE  H13Y 2822   7.592   4.745   5.534 -0.2607  1.4417  1.4419
   22DOPE  C314 2823   7.703   4.555   5.529  0.5442  0.0446 -0.0580
   22DOPE  H14X 2824   7.685   4.449   5.560 -1.0210 -0.1314 -1.4647
   22DOPE  H14Y 2825   7.795   4.605   5.566  1.6468 -1.2040 -1.0121
   22DOPE  C315 2826   7.734   4.527   5.383  0.0560 -0.5705  0.7469
   22DOPE  H15X 2827   7.644   4.495   5.326  0.4751 -1.0861  0.3663
   22DOPE  H15Y 2828   7.809   4.446   5.373 -2.1782 -2.5767 -1.0207
   22DOPE  C316 2829   7.769   4.662   5.317  0.2336  0.3587  0.0191
   22DOPE  H16X 2830   7.867   4.706   5.344  0.6515 -1.6420  2.0861
   22DOPE  H16Y 2831   7.694   4.741   5.339  2.0526  1.8784  0.9659
   22DOPE  C317 2832   7.753   4.657   5.160  0.2932  0.2803  0.2447
   22DOPE  H17X 2833   7.823   4.579   5.125 -0.9160 -1.2025  0.9699
   22DOPE  H17Y 2834   7.652   4.619   5.133  1.0207 -0.8957 -0.9187
   22DOPE  C318 2835   7.787   4.795   5.097 -0.0835 -0.7078 -0.5486
   22DOPE  H18X 2836   7.891   4.831   5.108 -0.1214 -0.8342  0.2490
   22DOPE  H18Y 2837   7.762   4.780   4.989 -1.1168  1.3996 -0.6647
   22DOPE  H18Z 2838   7.717   4.870   5.141 -0.9039 -0.8083 -1.6120
   23DOPE     N 2839   5.423   6.931   6.950  0.2555  0.1139 -0.1408
   23DOPE   HN1 2840   5.438   6.952   7.050 -0.0912 -0.3950  0.0262
   23DOPE   HN2 2841   5.323   6.946   6.926  0.4153  1.0046 -0.2594
   23DOPE   HN3 2842   5.442   6.831   6.930  0.3578 -0.0122  0.5625
   23DOPE   C12 2843   5.510   7.018   6.867  0.5531 -0.7174  0.2901
   23DOPE  H12A 2844   5.541   6.957   6.780 -1.7811 -0.7016 -0.6520
   23DOPE  H12B 2845   5.609   7.034   6.913  0.2405  0.1064  0.6897
   23DOPE   C11 2846   5.449   7.159   6.831  0.0871  0.1866 -0.0930
   23DOPE  H11A 2847   5.359   7.143   6.768 -1.1385  0.1705  1.5614
   23DOPE  H11B 2848   5.527   7.213   6.774  1.7277 -1.2109  0.7357
   23DOPE     P 2849   5.367   7.369   6.957  0.0803  0.3289  0.3802
   23DOPE   O13 2850   5.492   7.446   6.943 -0.3211  0.7602 -0.4809
   23DOPE   O14 2851   5.288   7.394   7.080  0.2038 -0.0002 -0.2223
   23DOPE   O11 2852   5.283   7.378   6.821 -0.0964  0.3753 -0.0548
   23DOPE   O12 2853   5.407   7.215   6.957 -0.2153  0.5110  0.1499
   23DOPE    C1 2854   5.184   7.475   6.800 -0.5436  0.5468 -0.0262
   23DOPE    HA 2855   5.228   7.576   6.818  0.9217 -0.0816  0.0998
   23DOPE    HB 2856   5.090   7.456   6.854 -1.4320  0.1642 -1.6401
   23DOPE    C2 2857   5.137   7.489   6.649  0.1229  0.2381  0.0965
   23DOPE    HS 2858   5.065   7.409   6.625 -0.6983  0.6478  1.0935
   23DOPE   O21 2859   5.254   7.491   6.560  0.1921  0.2174  0.3399
   23DOPE   C21 2860   5.284   7.363   6.526 -0.1768  0.1131 -0.1501
   23DOPE   O22 2861   5.233   7.262   6.574 -0.6838 -0.0919 -0.1242
   23DOPE   C22 2862   5.389   7.359   6.404  0.1558  0.8076 -1.0293
   23DOPE   H2R 2863   5.401   7.252   6.375  2.6732  1.2075 -1.7276
   23DOPE   H2S 2864   5.491   7.380   6.444 -0.3214  1.0124  0.1158
   23DOPE    C3 2865   5.058   7.627   6.625  0.1196 -0.0813 -0.2481
   23DOPE    HX 2866   5.127   7.714   6.631  1.3749 -0.9238 -1.6838
   23DOPE    HY 2867   4.986   7.640   6.708  1.1490  1.2907  0.4609
   23DOPE   O31 2868   4.997   7.639   6.500 -0.2855 -0.6581 -0.4919
   23DOPE   C31 2869   4.866   7.641   6.490 -0.3999  1.0728 -0.6797
   23DOPE   O32 2870   4.785   7.635   6.583  0.1144 -0.4600  0.2401
   23DOPE   C32 2871   4.836   7.672   6.348 -0.6873 -0.2907 -0.2128
   23DOPE   H2X 2872   4.844   7.783   6.339 -1.3508 -0.1676  0.5954
   23DOPE   H2Y 2873   4.913   7.617   6.290  0.5070 -0.3004  1.3143
   23DOPE   C23 2874   5.348   7.439   6.286  0.4883  0.0797 -0.5942
   23DOPE   H3R 2875   5.435   7.477   6.229  0.1139  1.3249 -0.3623
   23DOPE   H3S 2876   5.300   7.535   6.315  1.8397  0.6049  0.0011
   23DOPE   C24 2877   5.235   7.375   6.199  0.1151  0.6768 -0.1850
   23DOPE   H4R 2878   5.140   7.368   6.256  0.3505 -1.8474  0.0217
   23DOPE   H4S 2879   5.270   7.271   6.184  1.8052  1.4066 -1.6958
   23DOPE   C25 2880   5.216   7.452   6.073  0.9286  0.6127 -1.0768
   23DOPE   H5R 2881   5.316   7.446   6.025  1.2466 -1.5057 -0.2396
   23DOPE   H5S 2882   5.200   7.561   6.091 -0.8393 -0.1247  2.7063
   23DOPE   C26 2883   5.101   7.392   5.984  0.4048  0.0577 -0.0038
   23DOPE   H6R 2884   5.085   7.447   5.888  2.9194  2.0398  0.6260
   23DOPE   H6S 2885   5.005   7.398   6.040  0.0944 -0.5573 -0.4513
   23DOPE   C27 2886   5.133   7.245   5.939  0.1898  0.1999  0.0178
   23DOPE   H7R 2887   5.147   7.177   6.026  0.3589 -1.9499 -1.6129
   23DOPE   H7S 2888   5.229   7.249   5.882  0.9855 -0.4833  1.2449
   23DOPE   C28 2889   5.019   7.176   5.852 -0.4969 -0.5903 -0.2071
   23DOPE   H8R 2890   5.056   7.075   5.823  2.3991  0.0258  0.9964
   23DOPE   H8S 2891   5.024   7.249   5.769 -0.6876 -0.0180  0.2771
   23DOPE   C29 2892   4.889   7.168   5.929 -0.1761  0.2597  0.0397
   23DOPE   H9R 2893   4.883   7.236   6.015 -0.7562  2.1009 -1.3926
   23DOPE  C210 2894   4.796   7.074   5.902 -0.3890  0.7024  0.1088
   23DOPE  H10R 2895   4.700   7.072   5.956 -0.2788 -1.2138  0.3020
   23DOPE  C211 2896   4.818   6.976   5.790 -0.4935  0.0322  0.1098
   23DOPE  H11R 2897   4.778   6.877   5.821 -1.1780  0.5497  0.9626
   23DOPE  H11S 2898   4.925   6.955   5.772 -0.1943  0.3325  1.3918
   23DOPE  C212 2899   4.765   7.019   5.657  0.0370  0.0602  0.3132
   23DOPE  H12R 2900   4.794   7.123   5.633  0.5849  0.3187  2.0115
   23DOPE  H12S 2901   4.655   7.010   5.646 -0.0910  0.4128  1.2401
   23DOPE  C213 2902   4.830   6.944   5.537  0.1698  0.4793  0.2434
   23DOPE  H13R 2903   4.815   6.834   5.547 -0.0052  0.2015 -2.3662
   23DOPE  H13S 2904   4.941   6.954   5.540  0.1737  0.4715  0.1319
   23DOPE  C214 2905   4.798   7.012   5.403 -0.0766  0.0906 -0.0741
   23DOPE  H14R 2906   4.822   7.121   5.405 -0.3484  0.1507 -0.0765
   23DOPE  H14S 2907   4.691   6.996   5.381  0.0476  0.9414 -1.4158
   23DOPE  C215 2908   4.876   6.955   5.288  0.1012 -0.2070 -1.1669
   23DOPE  H15R 2909   4.852   6.846   5.284 -1.0987  0.0642 -1.8504
   23DOPE  H15S 2910   4.984   6.966   5.313 -0.4093  0.9079  0.7244
   23DOPE  C216 2911   4.833   7.015   5.156 -0.2468  0.5432 -0.0651
   23DOPE  H16R 2912   4.881   7.115   5.148  0.0267  0.3527 -0.9778
   23DOPE  H16S 2913   4.722   7.021   5.152 -0.4869 -0.0629  3.2868
   23DOPE  C217 2914   4.898   6.930   5.042  0.7708  0.0475 -0.5275
   23DOPE  H17R 2915   4.867   6.824   5.046 -0.1839  0.2908  3.8265
   23DOPE  H17S 2916   5.007   6.934   5.063  1.0761 -1.1202 -1.7817
   23DOPE  C218 2917   4.881   6.994   4.907 -0.6057  0.1513 -0.1085
   23DOPE  H18R 2918   4.782   6.977   4.860 -0.2642 -2.5049 -0.0222
   23DOPE  H18S 2919   4.956   6.940   4.846 -1.0022 -1.7623  0.9832
   23DOPE  H18T 2920   4.907   7.101   4.916  1.1078 -0.2839  0.5909
   23DOPE   C33 2921   4.700   7.619   6.302 -0.5933  0.3871  0.6623
   23DOPE   H3X 2922   4.620   7.688   6.337  0.7692  2.4417 -0.0668
   23DOPE   H3Y 2923   4.692   7.517   6.346 -0.0245 -0.2262 -0.6390
   23DOPE   C34 2924   4.708   7.611   6.145  0.4816 -0.4246 -0.4403
   23DOPE   H4X 2925   4.732   7.715   6.113  1.8828 -0.8014 -0.6581
   23DOPE   H4Y 2926   4.781   7.547   6.091 -1.3553 -1.3330 -1.9907
   23DOPE   C35 2927   4.565   7.577   6.085  0.4199  0.3898  0.0722
   23DOPE   H5X 2928   4.503   7.666   6.109 -1.0701 -0.9657  1.4705
   23DOPE   H5Y 2929   4.531   7.499   6.157  0.9769  3.3811  3.9140
   23DOPE   C36 2930   4.553   7.526   5.941  0.8964  0.4827  0.2978
   23DOPE   H6X 2931   4.443   7.514   5.926  0.6689  1.5932  0.9062
   23DOPE   H6Y 2932   4.598   7.425   5.938 -1.5342 -0.6578 -0.9357
   23DOPE   C37 2933   4.617   7.616   5.839 -0.0950 -0.1102 -0.6054
   23DOPE   H7X 2934   4.562   7.712   5.844 -0.9379 -0.5847 -0.6401
   23DOPE   H7Y 2935   4.722   7.632   5.870 -0.6382  1.6362  0.4435
   23DOPE   C38 2936   4.630   7.567   5.691  0.0421 -0.4319 -0.5071
   23DOPE   H8X 2937   4.672   7.647   5.627 -0.6306  0.8594  0.5983
   23DOPE   H8Y 2938   4.526   7.555   5.654 -0.9562  1.2973  1.4972
   23DOPE   C39 2939   4.713   7.444   5.675 -0.6249  0.1999  0.2721
   23DOPE   H9X 2940   4.664   7.350   5.705 -0.3660  0.4326  1.4908
   23DOPE  C310 2941   4.850   7.456   5.646 -0.1897  0.6967 -0.4472
   23DOPE  H10X 2942   4.896   7.359   5.624  0.0515  1.1904 -2.3365
   23DOPE  C311 2943   4.927   7.576   5.609  0.5386 -0.3191  0.0691
   23DOPE  H11X 2944   4.884   7.605   5.511 -2.2918 -0.0701  1.2713
   23DOPE  H11Y 2945   4.904   7.659   5.681  0.0557  0.2004 -0.6743
   23DOPE  C312 2946   5.087   7.565   5.600 -0.2023  0.0165 -0.3691
   23DOPE  H12X 2947   5.132   7.532   5.696 -1.8283  0.0164  0.4218
   23DOPE  H12Y 2948   5.127   7.665   5.576  1.4027 -0.7176 -0.9060
   23DOPE  C313 2949   5.125   7.461   5.491 -0.0540 -0.6537  0.0043
   23DOPE  H13X 2950   5.088   7.356   5.504  1.4588 -1.0943  1.0598
   23DOPE  H13Y 2951   5.078   7.496   5.397 -0.5222 -0.6492  0.2359
   23DOPE  C314 2952   5.279   7.460   5.468 -0.1249 -0.1166  0.0704
   23DOPE  H14X 2953   5.306   7.568   5.465  1.6365 -0.4854  0.9140
   23DOPE  H14Y 2954   5.299   7.411   5.370 -0.3395  1.4023 -0.7707
   23DOPE  C315 2955   5.358   7.392   5.579  0.2044  0.5264  0.4815
   23DOPE  H15X 2956   5.317   7.290   5.592  0.3512  0.5797  1.4817
   23DOPE  H15Y 2957   5.332   7.444   5.674 -0.9001  1.9408 -0.5614
   23DOPE  C316 2958   5.517   7.398   5.572 -0.4202 -0.1315 -0.2124
   23DOPE  H16X 2959   5.541   7.507   5.569  0.3448 -0.3250 -1.1751
   23DOPE  H16Y 2960   5.560   7.344   5.486  1.7040  1.2322 -0.0831
   23DOPE  C317 2961   5.585   7.330   5.693 -0.0618 -0.4674  0.2124
   23DOPE  H17X 2962   5.539   7.363   5.789 -0.9110 -1.9362  0.3366
   23DOPE  H17Y 2963   5.578   7.220   5.683  1.8607 -0.4809 -1.5606
   23DOPE  C318 2964   5.738   7.353   5.683 -0.5621  0.1050  0.1712
   23DOPE  H18X 2965   5.792   7.291   5.759 -2.2116 -2.0032 -0.2863
   23DOPE  H18Y 2966   5.772   7.329   5.580  0.2957  0.1702  0.4297
   23DOPE  H18Z 2967   5.750   7.462   5.700 -2.8957  0.4518 -0.1369
   24DOPE     N 2968   6.877   5.243   7.031  0.3208  0.5613  0.2054
   24DOPE   HN1 2969   6.955   5.222   7.095  0.3433  0.5956  0.1894
   24DOPE   HN2 2970   6.797   5.178   7.044  0.9775 -0.2296  0.3064
   24DOPE   HN3 2971   6.925   5.232   6.939  0.5436  0.1988  0.3652
   24DOPE   C12 2972   6.838   5.390   7.035 -0.2327 -0.7831  0.3559
   24DOPE  H12A 2973   6.924   5.446   6.994 -0.8433 -0.8027 -0.9902
   24DOPE  H12B 2974   6.820   5.410   7.143 -1.3530 -2.9034  0.6184
   24DOPE   C11 2975   6.710   5.415   6.959 -0.3542 -0.4440  0.1887
   24DOPE  H11A 2976   6.728   5.396   6.851  0.0591  1.1623 -0.0619
   24DOPE  H11B 2977   6.695   5.525   6.963 -0.5520 -0.3853 -1.5088
   24DOPE     P 2978   6.455   5.377   6.960 -0.1345 -0.6509  0.1869
   24DOPE   O13 2979   6.433   5.519   7.000 -0.1862 -0.0417 -0.0158
   24DOPE   O14 2980   6.364   5.281   7.021  0.1985 -0.2394  0.4130
   24DOPE   O11 2981   6.459   5.363   6.802 -0.1765  0.8374 -0.0434
   24DOPE   O12 2982   6.596   5.338   7.012 -0.7325 -0.5031  0.1497
   24DOPE    C1 2983   6.469   5.237   6.731 -0.2326 -0.1591 -0.1131
   24DOPE    HA 2984   6.369   5.190   6.728  0.9134 -2.9386  1.1349
   24DOPE    HB 2985   6.545   5.174   6.781  1.6660  2.1818  0.1580
   24DOPE    C2 2986   6.517   5.250   6.579 -0.5495  0.2607  0.0654
   24DOPE    HS 2987   6.438   5.303   6.523 -0.3028 -1.1151 -1.6869
   24DOPE   O21 2988   6.538   5.115   6.525 -0.1008 -0.3764 -0.3450
   24DOPE   C21 2989   6.504   5.095   6.399 -0.5418 -0.5551 -0.5968
   24DOPE   O22 2990   6.455   5.178   6.321 -0.1800 -0.7378  0.1155
   24DOPE   C22 2991   6.538   4.956   6.372  0.2159  0.2019  0.0645
   24DOPE   H2R 2992   6.511   4.894   6.460  2.0072 -2.5893 -1.2205
   24DOPE   H2S 2993   6.648   4.944   6.363  0.0553 -1.9467  0.3200
   24DOPE    C3 2994   6.644   5.337   6.546  0.4731  0.7729 -0.6188
   24DOPE    HX 2995   6.723   5.295   6.613 -0.4360 -0.6088 -0.3689
   24DOPE    HY 2996   6.614   5.439   6.579 -0.0548  0.9879 -1.7538
   24DOPE   O31 2997   6.676   5.326   6.405  0.0455 -0.1896 -0.7176
   24DOPE   C31 2998   6.762   5.422   6.368  0.8514 -0.6424  0.3335
   24DOPE   O32 2999   6.791   5.518   6.435  0.0422 -0.1371  0.4253
   24DOPE   C32 3000   6.791   5.408   6.221 -0.1668 -0.3759 -0.8408
   24DOPE   H2X 3001   6.803   5.512   6.183  0.6832 -0.3777 -0.6114
   24DOPE   H2Y 3002   6.891   5.358   6.224  0.4030  0.6895 -1.3288
   24DOPE   C23 3003   6.481   4.898   6.244  0.3866  0.1633 -0.2741
   24DOPE   H3R 3004   6.504   4.968   6.160  0.7075  1.8504  1.1620
   24DOPE   H3S 3005   6.371   4.914   6.246  0.4984  1.0003 -0.2904
   24DOPE   C24 3006   6.505   4.752   6.230 -0.2662  0.1383 -0.4839
   24DOPE   H4R 3007   6.486   4.699   6.325  3.6366  1.4641  1.2725
   24DOPE   H4S 3008   6.612   4.732   6.204  0.0844  2.2538 -0.9362
   24DOPE   C25 3009   6.405   4.694   6.134 -0.0257  0.6877 -0.2929
   24DOPE   H5R 3010   6.409   4.735   6.031 -0.4336  1.8739  0.1589
   24DOPE   H5S 3011   6.305   4.720   6.173 -0.5222 -2.7799  1.0911
   24DOPE   C26 3012   6.414   4.544   6.135  0.0728  0.8367  0.2865
   24DOPE   H6R 3013   6.399   4.501   6.236 -2.1877  0.1289 -0.2748
   24DOPE   H6S 3014   6.513   4.514   6.095 -0.4174  3.1222 -3.0390
   24DOPE   C27 3015   6.308   4.473   6.045 -0.2212 -0.4673  0.5727
   24DOPE   H7R 3016   6.311   4.514   5.942 -1.3245 -0.5848  0.4822
   24DOPE   H7S 3017   6.211   4.504   6.091 -1.1679 -2.4440  0.0208
   24DOPE   C28 3018   6.307   4.317   6.044 -0.4713  0.3765  0.3082
   24DOPE   H8R 3019   6.203   4.285   6.017 -0.0465 -0.4901 -0.3678
   24DOPE   H8S 3020   6.322   4.287   6.150  0.7426  1.0475  0.3328
   24DOPE   C29 3021   6.409   4.270   5.937 -0.1938  0.6150 -0.4540
   24DOPE   H9R 3022   6.509   4.315   5.932 -0.1518  0.4071 -1.8866
   24DOPE  C210 3023   6.394   4.172   5.848 -0.6644  0.2742  0.6530
   24DOPE  H10R 3024   6.470   4.152   5.771 -0.9279 -0.4340  0.5737
   24DOPE  C211 3025   6.267   4.103   5.820 -0.1702 -0.4277  0.1759
   24DOPE  H11R 3026   6.197   4.097   5.906 -0.9025  2.7524 -0.0865
   24DOPE  H11S 3027   6.290   3.999   5.788 -0.6555 -0.1267 -1.2323
   24DOPE  C212 3028   6.195   4.177   5.704 -0.3270 -0.4477 -0.1922
   24DOPE  H12R 3029   6.261   4.160   5.616 -0.0953 -1.1459  0.1101
   24DOPE  H12S 3030   6.187   4.286   5.725  0.4433  0.1404 -2.6079
   24DOPE  C213 3031   6.054   4.124   5.659  0.1953 -0.2927 -0.0478
   24DOPE  H13R 3032   5.977   4.110   5.738 -0.8996  1.5664 -0.7158
   24DOPE  H13S 3033   6.077   4.031   5.604 -0.1787 -0.9771  0.9291
   24DOPE  C214 3034   5.984   4.222   5.561 -0.0697  0.6291  0.4208
   24DOPE  H14R 3035   5.969   4.320   5.612 -2.6122  0.7572 -0.4523
   24DOPE  H14S 3036   5.881   4.185   5.544  0.6357 -1.0822 -0.3989
   24DOPE  C215 3037   6.071   4.233   5.435 -0.4653  0.0672  0.2969
   24DOPE  H15R 3038   6.091   4.132   5.393  0.1103  0.2896  0.0218
   24DOPE  H15S 3039   6.167   4.289   5.439  0.6483 -1.3251 -3.2149
   24DOPE  C216 3040   5.981   4.304   5.327 -0.2841 -0.0939  0.0909
   24DOPE  H16R 3041   5.953   4.404   5.368 -0.2322 -0.5681  1.3304
   24DOPE  H16S 3042   5.893   4.237   5.324  0.8807 -1.6905  0.5442
   24DOPE  C217 3043   6.042   4.326   5.190  0.4412  0.3134  0.0955
   24DOPE  H17R 3044   6.048   4.226   5.141  0.2497 -0.1832  1.0690
   24DOPE  H17S 3045   6.149   4.356   5.192 -0.0217  2.2455 -1.4672
   24DOPE  C218 3046   5.963   4.430   5.107  0.0004  0.5801  0.3175
   24DOPE  H18R 3047   6.011   4.457   5.010 -2.5596  0.6443 -1.0038
   24DOPE  H18S 3048   5.949   4.526   5.161  0.8999  1.1309 -0.3909
   24DOPE  H18T 3049   5.864   4.384   5.090 -0.0226  0.9844 -0.7175
   24DOPE   C33 3050   6.693   5.324   6.137  0.5190 -0.4098 -0.1831
   24DOPE   H3X 3051   6.588   5.351   6.161  0.1677 -1.7342 -0.1390
   24DOPE   H3Y 3052   6.700   5.216   6.162  0.3104 -1.2268 -3.2509
   24DOPE   C34 3053   6.723   5.326   5.987  0.0788 -0.0656 -0.0564
   24DOPE   H4X 3054   6.687   5.420   5.941 -0.3010 -0.8815 -1.4864
   24DOPE   H4Y 3055   6.833   5.321   5.979  0.1684 -1.1534  1.3284
   24DOPE   C35 3056   6.668   5.193   5.922  0.6721  0.2961  0.4207
   24DOPE   H5X 3057   6.712   5.110   5.982 -0.5241 -0.4832  0.2552
   24DOPE   H5Y 3058   6.711   5.182   5.820 -0.6922  0.5619 -0.1983
   24DOPE   C36 3059   6.516   5.183   5.918 -0.3840 -0.7473  0.0175
   24DOPE   H6X 3060   6.471   5.274   5.873 -0.5689 -0.8312  0.0326
   24DOPE   H6Y 3061   6.480   5.169   6.022 -0.6489 -1.8721 -0.2122
   24DOPE   C37 3062   6.460   5.065   5.834  0.3568  0.3840  0.7614
   24DOPE   H7X 3063   6.512   5.056   5.737  0.0763 -0.7751  0.7133
   24DOPE   H7Y 3064   6.501   4.980   5.893 -0.4177 -0.2385  0.4227
   24DOPE   C38 3065   6.308   5.057   5.811  0.0205  0.1696  0.4516
   24DOPE   H8X 3066   6.274   5.163   5.803  1.8882  0.8187  0.4941
   24DOPE   H8Y 3067   6.265   5.019   5.906 -2.0767 -2.1779 -1.3108
   24DOPE   C39 3068   6.265   4.966   5.695  0.3280  0.1434 -0.0222
   24DOPE   H9X 3069   6.266   4.862   5.732  1.0381 -0.0528 -0.5479
   24DOPE  C310 3070   6.227   4.996   5.569 -0.7255 -0.0607 -0.2177
   24DOPE  H10X 3071   6.229   4.919   5.491  2.7392  0.3216 -0.6348
   24DOPE  C311 3072   6.223   5.133   5.513  0.4743 -0.0428  0.1134
   24DOPE  H11X 3073   6.136   5.142   5.445  1.7122 -0.7691 -1.6547
   24DOPE  H11Y 3074   6.214   5.215   5.588  0.1181 -0.2253  0.2722
   24DOPE  C312 3075   6.344   5.150   5.424  0.5088 -0.9439  0.0843
   24DOPE  H12X 3076   6.351   5.070   5.347 -2.6976  0.6861 -2.1230
   24DOPE  H12Y 3077   6.434   5.139   5.488 -0.8410 -0.7122  2.1225
   24DOPE  C313 3078   6.351   5.289   5.354 -0.4494 -0.5300  0.5145
   24DOPE  H13X 3079   6.329   5.364   5.433 -2.7302  1.1981 -1.6046
   24DOPE  H13Y 3080   6.458   5.279   5.324 -0.6595 -1.8424  0.1586
   24DOPE  C314 3081   6.265   5.299   5.232  0.7350 -0.2477 -0.1099
   24DOPE  H14X 3082   6.161   5.318   5.266  0.7878  1.6221 -0.8860
   24DOPE  H14Y 3083   6.274   5.206   5.172  1.1755  0.6858 -1.5263
   24DOPE  C315 3084   6.313   5.410   5.136  0.2390  0.0560 -0.5458
   24DOPE  H15X 3085   6.235   5.422   5.058  0.5201  1.1173 -0.6725
   24DOPE  H15Y 3086   6.407   5.382   5.084  1.6089  2.4809  0.4530
   24DOPE  C316 3087   6.348   5.542   5.205  0.4771  0.1202 -0.5148
   24DOPE  H16X 3088   6.453   5.528   5.240  1.4017  3.9419 -1.3530
   24DOPE  H16Y 3089   6.274   5.565   5.284 -0.0374 -0.8497 -0.6973
   24DOPE  C317 3090   6.346   5.663   5.111 -0.3019 -0.5690 -0.1470
   24DOPE  H17X 3091   6.402   5.747   5.159 -2.4540  0.9680 -0.2026
   24DOPE  H17Y 3092   6.404   5.638   5.019  0.4466 -0.3086  0.2384
   24DOPE  C318 3093   6.206   5.699   5.071 -0.0112 -0.4768  0.9147
   24DOPE  H18X 3094   6.153   5.723   5.166 -1.4632  0.7764 -0.1629
   24DOPE  H18Y 3095   6.213   5.793   5.013 -0.5100 -0.1138  1.4318
   24DOPE  H18Z 3096   6.156   5.622   5.008 -0.5284  2.0147 -1.8980
   25DOPE     N 3097   7.366   5.543   6.847  0.0476 -0.2648  0.5694
   25DOPE   HN1 3098   7.340   5.461   6.905  1.6755 -0.1532  1.5384
   25DOPE   HN2 3099   7.461   5.517   6.811 -0.2401  0.1177 -0.5184
   25DOPE   HN3 3100   7.384   5.616   6.919 -0.7284 -0.4859  0.9929
   25DOPE   C12 3101   7.273   5.567   6.727 -0.4658  0.1403 -0.4469
   25DOPE  H12A 3102   7.311   5.652   6.667 -0.7339  0.5491 -0.0357
   25DOPE  H12B 3103   7.175   5.603   6.764 -0.0754 -0.5757  1.3885
   25DOPE   C11 3104   7.264   5.443   6.636 -0.3147  0.2851  0.5708
   25DOPE  H11A 3105   7.365   5.418   6.596 -0.8179 -0.7858 -0.0826
   25DOPE  H11B 3106   7.208   5.464   6.542 -0.0652 -1.7969 -0.1020
   25DOPE     P 3107   7.049   5.321   6.702  0.3776 -0.0818 -0.1191
   25DOPE   O13 3108   6.982   5.458   6.707 -0.2914  0.2776 -0.5226
   25DOPE   O14 3109   7.008   5.230   6.809  0.3649  0.3752 -0.0951
   25DOPE   O11 3110   7.007   5.255   6.564  0.4583 -0.2027 -0.5508
   25DOPE   O12 3111   7.207   5.329   6.694  0.2992 -0.2035  0.9775
   25DOPE    C1 3112   7.091   5.143   6.509  0.0459 -0.3041  0.3720
   25DOPE    HA 3113   7.040   5.056   6.555 -0.5373 -0.5078 -0.6319
   25DOPE    HB 3114   7.197   5.157   6.541  0.5213  1.0348 -1.5673
   25DOPE    C2 3115   7.089   5.133   6.350  0.2390 -0.3866 -0.3792
   25DOPE    HS 3116   7.163   5.053   6.329 -0.8764 -2.0141  1.4741
   25DOPE   O21 3117   7.116   5.261   6.292  0.3300 -0.1514  0.4071
   25DOPE   C21 3118   7.234   5.311   6.298 -0.2119  0.1195  0.6581
   25DOPE   O22 3119   7.335   5.258   6.336  0.0606  0.0539 -0.7130
   25DOPE   C22 3120   7.222   5.452   6.244  0.3769 -0.3993  0.4839
   25DOPE   H2R 3121   7.139   5.512   6.288  2.0845  2.9452 -0.5014
   25DOPE   H2S 3122   7.206   5.444   6.135 -0.7471  1.4229  0.4684
   25DOPE    C3 3123   6.954   5.090   6.289  0.3193  0.3326 -0.0764
   25DOPE    HX 3124   6.875   5.155   6.331  2.2593  2.8453 -0.0990
   25DOPE    HY 3125   6.938   4.986   6.326 -0.7324  0.7825  0.7749
   25DOPE   O31 3126   6.946   5.102   6.140 -0.2375  0.2114  0.6273
   25DOPE   C31 3127   6.983   4.989   6.079 -0.0631  0.6469 -0.1933
   25DOPE   O32 3128   7.034   4.891   6.133 -0.5704  0.5478 -0.1169
   25DOPE   C32 3129   6.971   4.994   5.929  0.0750 -0.0690 -0.4897
   25DOPE   H2X 3130   6.908   5.077   5.891 -0.8570 -0.4332  0.2117
   25DOPE   H2Y 3131   7.078   5.008   5.903  0.5493  0.9813  1.7625
   25DOPE   C23 3132   7.356   5.527   6.260  0.0805  0.0604  0.4606
   25DOPE   H3R 3133   7.434   5.463   6.214 -0.9431 -1.8739  1.2707
   25DOPE   H3S 3134   7.381   5.548   6.366  2.8550  2.3946 -0.5399
   25DOPE   C24 3135   7.351   5.660   6.184 -0.4294  0.1848  0.1649
   25DOPE   H4R 3136   7.248   5.700   6.190 -0.1757  1.2745 -1.8566
   25DOPE   H4S 3137   7.378   5.639   6.078  1.3462 -1.2037  0.8313
   25DOPE   C25 3138   7.450   5.756   6.237 -0.1814  0.0623  0.0185
   25DOPE   H5R 3139   7.547   5.702   6.236 -1.2596 -1.9653  0.1430
   25DOPE   H5S 3140   7.434   5.758   6.347  1.3551 -0.3697  0.2690
   25DOPE   C26 3141   7.454   5.891   6.163 -0.3563 -0.0195  0.8214
   25DOPE   H6R 3142   7.367   5.960   6.157 -0.2750  0.0090 -0.2891
   25DOPE   H6S 3143   7.478   5.876   6.056  2.6295  1.3079  1.1990
   25DOPE   C27 3144   7.574   5.968   6.231  0.5681 -1.0367  1.1427
   25DOPE   H7R 3145   7.664   5.904   6.223  0.0595 -1.9421  2.2111
   25DOPE   H7S 3146   7.557   5.973   6.341  0.8958 -0.0701  1.1593
   25DOPE   C28 3147   7.602   6.109   6.172  0.1507 -0.1586 -0.2390
   25DOPE   H8R 3148   7.506   6.161   6.192 -0.9768 -2.2886  0.1960
   25DOPE   H8S 3149   7.604   6.094   6.062 -3.1528 -0.4416 -0.3342
   25DOPE   C29 3150   7.728   6.177   6.226 -0.2058 -0.0740 -0.0334
   25DOPE   H9R 3151   7.733   6.194   6.335  0.3315 -0.0206 -0.0623
   25DOPE  C210 3152   7.840   6.197   6.156  0.1421 -0.1031  0.1686
   25DOPE  H10R 3153   7.917   6.261   6.201  0.5891 -1.8942  2.1279
   25DOPE  C211 3154   7.863   6.164   6.007  0.6190 -0.6494  0.1773
   25DOPE  H11R 3155   7.799   6.078   5.977  0.5969 -1.4446  2.2840
   25DOPE  H11S 3156   7.969   6.134   5.992  0.9716  1.1032 -1.1604
   25DOPE  C212 3157   7.839   6.278   5.902  0.7835  0.4690  0.3182
   25DOPE  H12R 3158   7.910   6.360   5.927 -1.0017  1.4406  2.6250
   25DOPE  H12S 3159   7.737   6.318   5.919  0.1374 -1.1016  0.2769
   25DOPE  C213 3160   7.866   6.234   5.755 -0.2047  0.0598  0.1335
   25DOPE  H13R 3161   7.784   6.170   5.719 -0.3806 -0.8953  2.0689
   25DOPE  H13S 3162   7.954   6.166   5.753 -0.8817 -0.8604 -2.9388
   25DOPE  C214 3163   7.895   6.355   5.658 -0.5453  0.5411 -1.1100
   25DOPE  H14R 3164   7.987   6.322   5.605  0.0826  1.3112 -0.5193
   25DOPE  H14S 3165   7.923   6.447   5.715  0.3410  1.5607 -3.1033
   25DOPE  C215 3166   7.780   6.384   5.559 -0.3073 -0.2876 -0.2695
   25DOPE  H15R 3167   7.796   6.481   5.507 -0.8959  0.0879  0.2412
   25DOPE  H15S 3168   7.688   6.401   5.618 -0.4214 -2.1370  0.1439
   25DOPE  C216 3169   7.754   6.261   5.467 -0.3200 -0.0338 -0.2008
   25DOPE  H16R 3170   7.735   6.171   5.529  0.7626  0.5618  1.0419
   25DOPE  H16S 3171   7.845   6.249   5.406  0.4575  1.8179  0.5137
   25DOPE  C217 3172   7.638   6.289   5.367  0.3823  0.3190 -0.5570
   25DOPE  H17R 3173   7.656   6.386   5.315  0.4327  0.0708 -1.0079
   25DOPE  H17S 3174   7.542   6.294   5.424  1.1090  0.8009  0.6670
   25DOPE  C218 3175   7.619   6.181   5.261 -0.2827 -0.3519 -0.3908
   25DOPE  H18R 3176   7.713   6.164   5.204 -0.1186  2.2939 -1.0431
   25DOPE  H18S 3177   7.535   6.212   5.194 -1.3259 -0.6064  0.7500
   25DOPE  H18T 3178   7.591   6.086   5.311  2.4503 -0.4753  1.0702
   25DOPE   C33 3179   6.912   4.867   5.860  0.2070 -0.0774  0.6340
   25DOPE   H3X 3180   6.975   4.781   5.891 -0.7922 -0.8236  0.6387
   25DOPE   H3Y 3181   6.920   4.886   5.751 -2.3986  1.3998  0.5999
   25DOPE   C34 3182   6.765   4.840   5.891 -0.5921 -0.9956 -0.6710
   25DOPE   H4X 3183   6.752   4.860   6.000  1.3887 -1.1728 -0.3754
   25DOPE   H4Y 3184   6.710   4.927   5.847 -1.0327 -1.2771 -0.6818
   25DOPE   C35 3185   6.707   4.707   5.844  0.0758  0.6788 -0.9319
   25DOPE   H5X 3186   6.602   4.706   5.878  0.8633  1.7704  1.8280
   25DOPE   H5Y 3187   6.761   4.619   5.885 -1.3973 -0.2794 -0.9769
   25DOPE   C36 3188   6.725   4.677   5.698 -0.0805  0.3435 -0.3372
   25DOPE   H6X 3189   6.827   4.670   5.655 -0.5441 -0.0647 -1.4022
   25DOPE   H6Y 3190   6.677   4.760   5.642  1.8744  1.4055 -0.5343
   25DOPE   C37 3191   6.652   4.552   5.644  0.2411 -0.0694  0.0132
   25DOPE   H7X 3192   6.690   4.514   5.547 -0.7452 -0.1391 -0.3633
   25DOPE   H7Y 3193   6.662   4.466   5.714  1.5006  1.4594  1.7932
   25DOPE   C38 3194   6.494   4.567   5.630 -0.6945  0.2808 -0.0966
   25DOPE   H8X 3195   6.473   4.670   5.595 -2.0284  0.1315  0.1912
   25DOPE   H8Y 3196   6.457   4.554   5.735 -0.5455  0.6977  0.0081
   25DOPE   C39 3197   6.426   4.460   5.548 -1.0767 -0.1581 -0.3244
   25DOPE   H9X 3198   6.414   4.362   5.597  2.0807  0.4808  2.1000
   25DOPE  C310 3199   6.393   4.477   5.416 -0.2495 -0.5003  0.2019
   25DOPE  H10X 3200   6.351   4.390   5.364  0.5665 -0.6605 -0.2163
   25DOPE  C311 3201   6.417   4.601   5.340 -0.0923 -0.1136  0.8895
   25DOPE  H11X 3202   6.508   4.652   5.376 -0.5120  2.4003 -1.3188
   25DOPE  H11Y 3203   6.448   4.566   5.239 -1.9644  1.9378 -0.4676
   25DOPE  C312 3204   6.292   4.685   5.318  0.0811 -0.6155  0.5142
   25DOPE  H12X 3205   6.252   4.719   5.416 -1.3999  1.5865 -0.7661
   25DOPE  H12Y 3206   6.220   4.606   5.285  1.7761 -1.5772 -1.1365
   25DOPE  C313 3207   6.303   4.792   5.207 -0.0492  0.0123  0.4869
   25DOPE  H13X 3208   6.380   4.868   5.232 -0.1149  0.2920 -0.1409
   25DOPE  H13Y 3209   6.331   4.746   5.110 -1.6069 -0.0271  0.0193
   25DOPE  C314 3210   6.177   4.859   5.170 -0.4398  0.9510 -0.1129
   25DOPE  H14X 3211   6.140   4.921   5.254 -0.2267  1.2112 -0.2071
   25DOPE  H14Y 3212   6.089   4.794   5.152 -2.2367  2.6992  1.8259
   25DOPE  C315 3213   6.185   4.952   5.051 -0.6050 -0.2622 -0.1533
   25DOPE  H15X 3214   6.233   4.910   4.960  0.0505  1.9458 -0.8897
   25DOPE  H15Y 3215   6.254   5.036   5.074  0.0252 -0.6845 -0.4659
   25DOPE  C316 3216   6.053   5.017   5.007  0.1407  1.0679  0.1944
   25DOPE  H16X 3217   6.006   5.053   5.101  2.4154  0.5005  1.6150
   25DOPE  H16Y 3218   5.993   4.933   4.965  2.0740  0.4995 -1.6056
   25DOPE  C317 3219   6.044   5.133   4.911 -0.2025 -1.0089  0.4400
   25DOPE  H17X 3220   5.941   5.175   4.915  0.1366 -0.0887 -0.1928
   25DOPE  H17Y 3221   6.113   5.211   4.950 -0.5621 -0.4492 -0.0248
   25DOPE  C318 3222   6.066   5.114   4.765  0.0358  0.0447  0.2018
   25DOPE  H18X 3223   6.112   5.202   4.716  0.7866 -1.1166 -1.2628
   25DOPE  H18Y 3224   6.139   5.035   4.740  0.6014 -0.3431  2.7823
   25DOPE  H18Z 3225   5.975   5.088   4.707  0.5239 -0.5863 -0.2911
   26DOPE     N 3226   0.089   6.216   7.021  0.0068  0.7450 -0.6527
   26DOPE   HN1 3227   0.145   6.292   6.977  0.7925 -0.1135 -1.1561
   26DOPE   HN2 3228  -0.008   6.245   7.046  0.0941 -1.0172  2.2269
   26DOPE   HN3 3229   0.139   6.181   7.105  0.2501  2.2853 -0.1226
   26DOPE   C12 3230   0.058   6.097   6.931  0.7002  0.1681 -0.4879
   26DOPE  H12A 3231   0.026   6.139   6.834 -0.6128  1.7002  0.5623
   26DOPE  H12B 3232  -0.028   6.039   6.970  2.9056 -1.9796  1.6428
   26DOPE   C11 3233   0.180   6.003   6.918  0.2136  0.6748 -0.3129
   26DOPE  H11A 3234   0.162   5.927   6.839  1.7476  0.1475 -0.1835
   26DOPE  H11B 3235   0.194   5.954   7.017 -0.6821  2.0970  0.5610
   26DOPE     P 3236   0.423   5.999   6.860 -0.2254 -0.0930  0.3159
   26DOPE   O13 3237   0.432   5.903   6.972 -0.1681 -0.4042  0.4812
   26DOPE   O14 3238   0.529   6.099   6.840 -0.0262 -0.0435 -0.3118
   26DOPE   O11 3239   0.394   5.924   6.728  0.0320  0.6637  0.6982
   26DOPE   O12 3240   0.292   6.075   6.888  0.5781  0.3178 -0.0562
   26DOPE    C1 3241   0.321   5.974   6.617 -0.9482  0.2333 -0.1476
   26DOPE    HA 3242   0.236   6.037   6.650 -1.2446 -0.6458  0.7945
   26DOPE    HB 3243   0.284   5.891   6.553 -0.3498 -0.3162  0.2038
   26DOPE    C2 3244   0.398   6.059   6.513 -0.3285 -0.2353 -0.6464
   26DOPE    HS 3245   0.336   6.060   6.421  0.6272  2.8373 -1.3682
   26DOPE   O21 3246   0.528   5.995   6.493  0.6366 -0.1091  0.3118
   26DOPE   C21 3247   0.541   5.904   6.394  0.2774  0.2092 -0.1346
   26DOPE   O22 3248   0.453   5.881   6.312  0.3437 -0.0142  0.1171
   26DOPE   C22 3249   0.685   5.851   6.398  0.0339 -0.6934  0.2115
   26DOPE   H2R 3250   0.695   5.802   6.498 -0.6476 -1.4573 -0.0796
   26DOPE   H2S 3251   0.756   5.935   6.409  1.0577 -1.4952 -0.1123
   26DOPE    C3 3252   0.413   6.208   6.546 -0.1277 -0.3489 -0.4476
   26DOPE    HX 3253   0.491   6.218   6.624 -1.1838 -1.2431  0.7686
   26DOPE    HY 3254   0.322   6.251   6.592  0.4864  1.8666 -1.1629
   26DOPE   O31 3255   0.438   6.286   6.431 -0.2501 -0.2405  0.0883
   26DOPE   C31 3256   0.562   6.288   6.385 -0.3410  0.4822  0.1608
   26DOPE   O32 3257   0.664   6.257   6.452 -0.5108 -0.2927  0.2774
   26DOPE   C32 3258   0.553   6.334   6.237  0.6865  0.7271 -1.0661
   26DOPE   H2X 3259   0.626   6.260   6.198  1.2065  0.1018  0.9529
   26DOPE   H2Y 3260   0.460   6.296   6.189 -1.4196  2.3074  1.4758
   26DOPE   C23 3261   0.730   5.762   6.280 -0.2944 -0.0753 -0.1727
   26DOPE   H3R 3262   0.642   5.730   6.220  0.1484 -0.2346 -0.7535
   26DOPE   H3S 3263   0.775   5.676   6.334  0.6983  0.7533  0.3531
   26DOPE   C24 3264   0.826   5.829   6.182  0.1825 -0.6347 -0.0360
   26DOPE   H4R 3265   0.853   5.761   6.099  2.1796 -0.5963  0.5164
   26DOPE   H4S 3266   0.915   5.854   6.244 -1.1356 -1.5449  2.3408
   26DOPE   C25 3267   0.761   5.958   6.125 -0.1453 -0.9478 -0.5775
   26DOPE   H5R 3268   0.765   6.040   6.200 -1.7051  0.0768 -1.5311
   26DOPE   H5S 3269   0.658   5.952   6.082 -0.9304  2.3911  0.4632
   26DOPE   C26 3270   0.849   6.021   6.015 -0.0055 -0.2167 -0.2427
   26DOPE   H6R 3271   0.857   5.945   5.935  3.1467 -1.2949  0.9398
   26DOPE   H6S 3272   0.945   6.035   6.069 -0.2927  1.6460 -0.1343
   26DOPE   C27 3273   0.788   6.148   5.962  0.1475  0.1360  0.1781
   26DOPE   H7R 3274   0.777   6.217   6.049  1.4886 -0.4574  0.8435
   26DOPE   H7S 3275   0.691   6.123   5.915  0.1663 -1.0869  0.7626
   26DOPE   C28 3276   0.860   6.213   5.837 -0.1115 -0.1260 -1.0116
   26DOPE   H8R 3277   0.961   6.242   5.874  0.0367 -2.2679  0.4597
   26DOPE   H8S 3278   0.796   6.294   5.796 -2.1991 -1.3636 -0.3852
   26DOPE   C29 3279   0.879   6.111   5.733 -0.0252  0.1258  0.9526
   26DOPE   H9R 3280   0.957   6.037   5.755 -0.3572  0.1108  2.1182
   26DOPE  C210 3281   0.815   6.105   5.607 -1.2451 -0.4335 -0.1936
   26DOPE  H10R 3282   0.836   6.011   5.554  4.5164 -0.2359  1.0163
   26DOPE  C211 3283   0.706   6.204   5.567  0.1373 -0.0926 -0.0178
   26DOPE  H11R 3284   0.726   6.239   5.463  2.1532  0.2933  0.4475
   26DOPE  H11S 3285   0.702   6.293   5.633  1.2280 -1.0856  1.4550
   26DOPE  C212 3286   0.566   6.136   5.564  0.3744 -0.4405 -0.2195
   26DOPE  H12R 3287   0.499   6.224   5.547 -0.1986 -1.1696 -1.8938
   26DOPE  H12S 3288   0.531   6.088   5.658 -2.1638  1.2791 -0.1646
   26DOPE  C213 3289   0.551   6.038   5.449 -0.0117  0.0851 -1.2838
   26DOPE  H13R 3290   0.592   5.941   5.485 -0.0406  0.2427 -0.8171
   26DOPE  H13S 3291   0.604   6.075   5.359 -0.3571 -1.3090 -2.0922
   26DOPE  C214 3292   0.409   6.018   5.394 -0.0826  1.3571  0.1299
   26DOPE  H14R 3293   0.371   6.116   5.358 -1.1700  0.3740 -1.5529
   26DOPE  H14S 3294   0.339   5.985   5.473 -0.0410 -1.8021 -1.0019
   26DOPE  C215 3295   0.387   5.919   5.272  0.1954  0.1535 -0.3089
   26DOPE  H15R 3296   0.404   5.811   5.293  0.3786  0.4685  1.3248
   26DOPE  H15S 3297   0.460   5.938   5.190  1.8178 -0.2484  0.9950
   26DOPE  C216 3298   0.246   5.941   5.212 -0.3951 -0.2011 -0.0774
   26DOPE  H16R 3299   0.239   6.047   5.178  1.5408  0.1264  0.4301
   26DOPE  H16S 3300   0.168   5.930   5.290  0.0430  0.5554  0.4823
   26DOPE  C217 3301   0.199   5.853   5.095  0.2856 -0.0647 -0.2107
   26DOPE  H17R 3302   0.223   5.746   5.115  0.3826 -0.4061 -1.9898
   26DOPE  H17S 3303   0.262   5.885   5.009 -0.3091 -1.6253 -1.2822
   26DOPE  C218 3304   0.050   5.862   5.067 -0.1332  0.0068  0.3171
   26DOPE  H18R 3305   0.019   5.929   4.984  2.5484 -1.0867 -1.7411
   26DOPE  H18S 3306  -0.012   5.875   5.158  1.6890 -1.0060  1.7713
   26DOPE  H18T 3307   0.024   5.763   5.023  1.3033 -1.0727  1.7675
   26DOPE   C33 3308   0.604   6.479   6.214 -0.1860 -0.1728  0.2873
   26DOPE   H3X 3309   0.700   6.484   6.269 -0.0786  0.0877  0.0779
   26DOPE   H3Y 3310   0.522   6.541   6.258 -1.6447 -0.9873 -1.1515
   26DOPE   C34 3311   0.639   6.514   6.072  0.2445  0.4971 -0.4124
   26DOPE   H4X 3312   0.719   6.451   6.027 -0.7480 -1.7254  0.7856
   26DOPE   H4Y 3313   0.542   6.501   6.019 -0.4563 -1.8652  1.2864
   26DOPE   C35 3314   0.685   6.658   6.048 -0.2768 -0.4318  0.4351
   26DOPE   H5X 3315   0.778   6.694   6.097 -0.5117  0.6583  0.1092
   26DOPE   H5Y 3316   0.600   6.726   6.073  0.7234  1.4206 -0.9621
   26DOPE   C36 3317   0.701   6.687   5.895 -0.1704 -0.7620  0.1978
   26DOPE   H6X 3318   0.760   6.606   5.846 -0.0188 -0.2257 -0.5195
   26DOPE   H6Y 3319   0.751   6.781   5.864 -1.0142 -0.7688 -1.2798
   26DOPE   C37 3320   0.560   6.701   5.820 -0.6039  0.1125 -0.7732
   26DOPE   H7X 3321   0.482   6.697   5.899  1.0528  1.5347  1.0344
   26DOPE   H7Y 3322   0.554   6.805   5.782  0.0177  1.0218  1.4463
   26DOPE   C38 3323   0.534   6.595   5.717  0.4182  0.2351 -0.3564
   26DOPE   H8X 3324   0.423   6.592   5.714  0.4083 -2.1920  0.2768
   26DOPE   H8Y 3325   0.572   6.496   5.748  0.1587 -0.1991 -1.4048
   26DOPE   C39 3326   0.594   6.626   5.585  0.5359  0.3995 -0.3524
   26DOPE   H9X 3327   0.700   6.651   5.594  0.9483 -0.5037 -2.2068
   26DOPE  C310 3328   0.536   6.639   5.460 -0.9126  0.5036 -0.0806
   26DOPE  H10X 3329   0.603   6.667   5.378  1.3437 -0.6570  1.2598
   26DOPE  C311 3330   0.391   6.613   5.423 -0.3689 -0.5477  0.1757
   26DOPE  H11X 3331   0.346   6.543   5.495 -1.5356 -2.7767 -2.5425
   26DOPE  H11Y 3332   0.346   6.715   5.419  0.5910 -0.0805  0.7485
   26DOPE  C312 3333   0.386   6.546   5.278  0.1591 -0.5761  0.8573
   26DOPE  H12X 3334   0.441   6.616   5.211  1.5037 -0.5758  1.9207
   26DOPE  H12Y 3335   0.285   6.523   5.238 -0.2195  0.3685  1.2374
   26DOPE  C313 3336   0.473   6.419   5.258 -0.3851 -0.2112  0.3867
   26DOPE  H13X 3337   0.579   6.450   5.272 -0.6526  1.2707 -0.6661
   26DOPE  H13Y 3338   0.454   6.342   5.336 -0.7082 -1.0742 -0.5263
   26DOPE  C314 3339   0.459   6.365   5.116 -0.5047 -0.2206  0.2348
   26DOPE  H14X 3340   0.514   6.437   5.051  0.6770  1.5771  3.0486
   26DOPE  H14Y 3341   0.353   6.376   5.083 -0.3994  3.3699  0.6092
   26DOPE  C315 3342   0.521   6.229   5.080  0.0766  0.0046  0.3726
   26DOPE  H15X 3343   0.460   6.157   5.140 -0.3715  0.5296  0.5508
   26DOPE  H15Y 3344   0.625   6.223   5.118 -0.3930 -2.2894  1.5270
   26DOPE  C316 3345   0.511   6.191   4.926  0.2058  0.3222 -0.5324
   26DOPE  H16X 3346   0.404   6.169   4.905 -0.4318  0.6346  2.0458
   26DOPE  H16Y 3347   0.563   6.096   4.900 -0.7715 -0.5255  0.5285
   26DOPE  C317 3348   0.555   6.300   4.828  0.6639 -0.4333  0.0263
   26DOPE  H17X 3349   0.495   6.389   4.858  0.5472 -1.0994  1.8921
   26DOPE  H17Y 3350   0.654   6.346   4.848 -0.1250  1.4527 -0.1663
   26DOPE  C318 3351   0.525   6.264   4.685 -0.3976 -0.2132  0.2711
   26DOPE  H18X 3352   0.417   6.246   4.666  0.1160 -1.3153 -1.9958
   26DOPE  H18Y 3353   0.555   6.347   4.618 -1.7395  0.0660 -0.0237
   26DOPE  H18Z 3354   0.586   6.172   4.672 -3.1427 -2.0629 -0.5225
   27DOPE     N 3355   6.273   5.946   7.037 -0.4232 -0.5864  0.4232
   27DOPE   HN1 3356   6.297   6.044   7.012 -2.8663  0.3809  1.4923
   27DOPE   HN2 3357   6.284   5.921   7.138  0.5881  0.1289  0.5028
   27DOPE   HN3 3358   6.336   5.881   6.986  0.3794 -0.1753  0.8838
   27DOPE   C12 3359   6.138   5.915   6.983 -0.7995  0.2131  0.0257
   27DOPE  H12A 3360   6.102   5.819   7.025  0.7238 -0.8835 -1.0444
   27DOPE  H12B 3361   6.138   5.911   6.872 -1.6230  0.6907 -0.0022
   27DOPE   C11 3362   6.045   6.030   7.024  0.0288  0.7387  0.1512
   27DOPE  H11A 3363   6.030   6.015   7.133  0.8854  0.2407  0.2098
   27DOPE  H11B 3364   5.948   6.010   6.973  0.2225  0.7327 -0.2210
   27DOPE     P 3365   6.042   6.302   7.043 -0.0979  0.3216 -0.1156
   27DOPE   O13 3366   6.154   6.396   7.018  0.2556 -0.2476  0.0692
   27DOPE   O14 3367   5.989   6.307   7.180  0.1238 -0.2688 -0.2199
   27DOPE   O11 3368   5.930   6.309   6.930  0.1590 -0.8267 -0.5468
   27DOPE   O12 3369   6.099   6.162   7.006 -0.0487  0.3122  0.1656
   27DOPE    C1 3370   5.944   6.361   6.797  0.2056 -0.1877 -0.0698
   27DOPE    HA 3371   6.013   6.446   6.779 -1.0335  0.7626 -0.4826
   27DOPE    HB 3372   5.845   6.394   6.759  0.3869  1.7323  1.0056
   27DOPE    C2 3373   5.981   6.251   6.686  0.7814  0.0457  0.0196
   27DOPE    HS 3374   6.080   6.209   6.715  1.2082 -0.6462 -2.2545
   27DOPE   O21 3375   5.977   6.312   6.550  0.6089 -0.3543  0.1729
   27DOPE   C21 3376   6.067   6.410   6.529 -0.9079 -0.6010 -0.4206
   27DOPE   O22 3377   6.164   6.438   6.598  0.1191  0.4006 -0.4711
   27DOPE   C22 3378   6.043   6.475   6.393  0.1876 -0.5445 -0.0474
   27DOPE   H2R 3379   6.107   6.566   6.401 -1.7238  0.8765 -0.4176
   27DOPE   H2S 3380   5.941   6.516   6.379  0.6369  0.9894  0.8837
   27DOPE    C3 3381   5.881   6.127   6.699 -0.4876 -0.5254  0.2011
   27DOPE    HX 3382   5.780   6.173   6.699 -0.4115 -0.1597 -2.7625
   27DOPE    HY 3383   5.903   6.081   6.798  2.6506  2.0105  0.8463
   27DOPE   O31 3384   5.880   6.036   6.587 -0.2963 -0.1833  0.3073
   27DOPE   C31 3385   5.981   5.946   6.581  0.5280 -0.5944  0.5771
   27DOPE   O32 3386   6.069   5.930   6.662 -0.1438 -0.3341  0.5897
   27DOPE   C32 3387   5.951   5.858   6.465  0.0972  0.7376  0.0394
   27DOPE   H2X 3388   6.016   5.768   6.472 -0.2034  0.3594 -1.5913
   27DOPE   H2Y 3389   5.846   5.822   6.477  1.0500 -1.8569  1.3505
   27DOPE   C23 3390   6.109   6.400   6.273 -0.3260 -0.3050 -0.7577
   27DOPE   H3R 3391   6.202   6.362   6.320  0.0108  1.5354  0.1217
   27DOPE   H3S 3392   6.134   6.477   6.197  0.8746 -0.2503 -0.3322
   27DOPE   C24 3393   6.028   6.287   6.208  0.7076 -0.0325  0.1023
   27DOPE   H4R 3394   5.994   6.217   6.288 -1.8479  0.6102 -0.3553
   27DOPE   H4S 3395   6.077   6.228   6.128  1.4101  2.1201 -1.1074
   27DOPE   C25 3396   5.908   6.346   6.131  0.2264 -0.4742  0.5240
   27DOPE   H5R 3397   5.841   6.384   6.211 -0.3733 -1.0578  0.3074
   27DOPE   H5S 3398   5.857   6.265   6.076 -0.3026  0.3509 -0.2205
   27DOPE   C26 3399   5.940   6.461   6.029 -0.3241 -0.3595 -0.6890
   27DOPE   H6R 3400   5.987   6.551   6.073  1.8195 -1.0113 -1.5492
   27DOPE   H6S 3401   5.843   6.494   5.986 -0.4779  0.8289  0.5037
   27DOPE   C27 3402   6.033   6.404   5.917  0.9067  0.3916 -0.0657
   27DOPE   H7R 3403   5.994   6.305   5.886  1.3489  1.0641 -3.1123
   27DOPE   H7S 3404   6.136   6.379   5.951  1.5712  1.8592 -0.9100
   27DOPE   C28 3405   6.033   6.488   5.797  0.1666 -0.0984 -0.3479
   27DOPE   H8R 3406   5.933   6.520   5.762  0.0674  3.0244  2.2189
   27DOPE   H8S 3407   6.082   6.425   5.719  0.9197 -4.0263  2.9340
   27DOPE   C29 3408   6.115   6.618   5.807  0.3139 -0.7358  0.2431
   27DOPE   H9R 3409   6.138   6.651   5.910  1.1184  0.8034 -0.3898
   27DOPE  C210 3410   6.180   6.673   5.707  0.7274  0.9620 -0.0931
   27DOPE  H10R 3411   6.239   6.760   5.741 -0.4614  2.2880 -1.2640
   27DOPE  C211 3412   6.163   6.644   5.561  0.1890 -0.3089  0.4660
   27DOPE  H11R 3413   6.167   6.741   5.508 -1.0075  0.1968  1.2701
   27DOPE  H11S 3414   6.059   6.611   5.540 -1.3267  3.4460  1.2282
   27DOPE  C212 3415   6.271   6.554   5.497 -0.1103 -0.0528 -0.5209
   27DOPE  H12R 3416   6.293   6.475   5.572  0.5999  0.0263 -0.6380
   27DOPE  H12S 3417   6.363   6.616   5.486  0.2568 -0.7411 -1.4367
   27DOPE  C213 3418   6.243   6.492   5.356 -0.8245 -0.3791  0.6018
   27DOPE  H13R 3419   6.233   6.574   5.281  2.2875 -0.1621  0.3155
   27DOPE  H13S 3420   6.143   6.445   5.368 -0.3158 -1.5332  0.3901
   27DOPE  C214 3421   6.342   6.387   5.305 -0.4453 -0.0537 -0.4729
   27DOPE  H14R 3422   6.360   6.305   5.377 -2.7060  0.8772  1.2767
   27DOPE  H14S 3423   6.431   6.453   5.298 -0.5040  0.0999  0.2173
   27DOPE  C215 3424   6.305   6.330   5.170  0.0873 -0.6510 -0.4449
   27DOPE  H15R 3425   6.285   6.412   5.097 -1.2307  0.0131  0.6266
   27DOPE  H15S 3426   6.207   6.282   5.188 -0.2424 -0.1927 -0.9772
   27DOPE  C216 3427   6.404   6.220   5.126  0.6930  0.0303 -0.9237
   27DOPE  H16R 3428   6.403   6.139   5.202 -0.6673  2.0291  1.3320
   27DOPE  H16S 3429   6.508   6.258   5.120  1.0823 -0.1873  2.4904
   27DOPE  C217 3430   6.352   6.159   5.000  0.7371  0.0040 -0.4145
   27DOPE  H17R 3431   6.355   6.236   4.920  0.2851 -0.9203 -1.3411
   27DOPE  H17S 3432   6.246   6.130   5.019  0.6778 -0.1534 -0.9707
   27DOPE  C218 3433   6.429   6.037   4.954  0.7482 -0.9814  0.1140
   27DOPE  H18R 3434   6.429   5.959   5.032 -2.1818  0.7083  1.9900
   27DOPE  H18S 3435   6.535   6.063   4.933 -0.4347  3.5566 -1.3857
   27DOPE  H18T 3436   6.384   5.997   4.861  1.6407  1.1803 -1.3355
   27DOPE   C33 3437   5.973   5.928   6.331 -0.6071 -0.8629 -0.1634
   27DOPE   H3X 3438   6.075   5.971   6.326 -0.4701 -1.1578  0.0748
   27DOPE   H3Y 3439   5.892   6.004   6.321  0.2385 -0.0296 -0.8768
   27DOPE   C34 3440   5.945   5.845   6.206 -0.2700  0.3405 -0.1502
   27DOPE   H4X 3441   6.014   5.759   6.199  1.2870  1.6377 -1.4153
   27DOPE   H4Y 3442   5.838   5.814   6.201 -0.2081 -0.3081  1.7418
   27DOPE   C35 3443   5.957   5.931   6.081  0.2796 -0.2298  0.0900
   27DOPE   H5X 3444   5.909   6.028   6.102 -0.6061 -0.6359 -0.0068
   27DOPE   H5Y 3445   5.888   5.886   6.006 -1.8153  0.5434  1.4675
   27DOPE   C36 3446   6.104   5.939   6.022  0.7968  0.3584  0.6437
   27DOPE   H6X 3447   6.134   5.837   5.990  2.2021  0.7213  0.7370
   27DOPE   H6Y 3448   6.164   5.972   6.109  1.0188  1.1095  0.2220
   27DOPE   C37 3449   6.125   6.041   5.906 -0.4511  0.5394  0.9137
   27DOPE   H7X 3450   6.128   6.143   5.949  0.3046  0.9435 -0.0470
   27DOPE   H7Y 3451   6.224   6.022   5.859 -1.4685 -2.7903 -0.1794
   27DOPE   C38 3452   6.027   6.050   5.786  0.0870  0.3483 -0.3742
   27DOPE   H8X 3453   6.045   6.144   5.731 -4.1633  0.6743 -1.5105
   27DOPE   H8Y 3454   5.928   6.059   5.836 -0.4405 -2.3036 -0.8114
   27DOPE   C39 3455   6.041   5.923   5.701  0.5568  0.1910 -0.1359
   27DOPE   H9X 3456   5.987   5.835   5.739 -0.1128  1.4984  2.1685
   27DOPE  C310 3457   6.110   5.908   5.589 -0.2338  0.1488 -0.2643
   27DOPE  H10X 3458   6.086   5.822   5.524  1.7295  1.3427 -2.7536
   27DOPE  C311 3459   6.171   6.026   5.515 -0.2960 -0.0575 -0.0991
   27DOPE  H11X 3460   6.211   6.111   5.574 -0.2005  0.0678 -0.3413
   27DOPE  H11Y 3461   6.268   6.007   5.464  0.2175 -2.0594  1.4745
   27DOPE  C312 3462   6.084   6.087   5.404 -0.1942 -0.4456  0.1442
   27DOPE  H12X 3463   6.121   6.185   5.366  0.3200 -0.1426  1.4010
   27DOPE  H12Y 3464   5.979   6.111   5.431 -0.5743  0.8141 -2.0987
   27DOPE  C313 3465   6.076   5.993   5.282 -0.7442 -0.0246 -0.7370
   27DOPE  H13X 3466   6.170   5.968   5.228 -1.5273 -1.3155 -1.5726
   27DOPE  H13Y 3467   6.036   5.893   5.310  0.3886 -0.8044 -1.7374
   27DOPE  C314 3468   5.987   6.054   5.172 -0.5343  0.0308  0.3382
   27DOPE  H14X 3469   6.040   6.125   5.105 -0.8037 -1.0914 -1.1135
   27DOPE  H14Y 3470   5.903   6.112   5.216  1.5910  2.6733  1.1651
   27DOPE  C315 3471   5.933   5.949   5.071  0.2323  0.2520 -0.8859
   27DOPE  H15X 3472   5.894   5.862   5.128 -0.4413  1.4382  0.5467
   27DOPE  H15Y 3473   6.018   5.922   5.006 -0.9468 -0.3101 -2.2474
   27DOPE  C316 3474   5.838   6.005   4.966 -0.6647  0.2139 -1.0093
   27DOPE  H16X 3475   5.761   6.053   5.031  0.0817  0.9969 -0.6820
   27DOPE  H16Y 3476   5.793   5.915   4.919 -1.3300  0.4460 -0.8298
   27DOPE  C317 3477   5.891   6.098   4.860 -0.3820 -0.1167  1.1652
   27DOPE  H17X 3478   5.816   6.164   4.811 -0.9810 -1.0438  0.7880
   27DOPE  H17Y 3479   5.959   6.170   4.910 -3.1623  2.7343  1.2002
   27DOPE  C318 3480   5.969   6.029   4.747 -0.3996 -0.4453  0.6375
   27DOPE  H18X 3481   5.902   5.970   4.681  1.0244  0.1721 -1.4650
   27DOPE  H18Y 3482   6.032   6.101   4.690 -0.1261 -1.2438 -0.0765
   27DOPE  H18Z 3483   6.047   5.964   4.792  0.9890  1.1387  0.6196
   28DOPE     N 3484   0.653   6.304   6.922  0.3494  0.1668  0.4626
   28DOPE   HN1 3485   0.757   6.301   6.912  0.3768  1.6320  0.1606
   28DOPE   HN2 3486   0.609   6.214   6.895 -0.5413  1.2394 -1.8781
   28DOPE   HN3 3487   0.608   6.375   6.862  0.1873  0.1623  0.5778
   28DOPE   C12 3488   0.624   6.316   7.068 -0.1153  0.4748 -0.8428
   28DOPE  H12A 3489   0.721   6.315   7.124 -0.8417 -1.4332  0.5354
   28DOPE  H12B 3490   0.590   6.218   7.109  3.7915 -1.0678 -0.7817
   28DOPE   C11 3491   0.550   6.439   7.102 -0.1861  0.3368 -0.0999
   28DOPE  H11A 3492   0.593   6.530   7.056  0.4778 -0.7453 -1.7030
   28DOPE  H11B 3493   0.562   6.458   7.211  0.4123 -0.8007  0.0444
   28DOPE     P 3494   0.359   6.490   6.932  0.2887  0.1199  0.5525
   28DOPE   O13 3495   0.226   6.427   6.900 -1.1392 -0.0611 -0.1778
   28DOPE   O14 3496   0.463   6.486   6.824 -0.5076  0.3024  0.1193
   28DOPE   O11 3497   0.340   6.645   6.971 -0.0571  0.7003 -0.3629
   28DOPE   O12 3498   0.413   6.421   7.063 -0.0367  0.3294  1.0883
   28DOPE    C1 3499   0.429   6.753   6.946 -0.4065  0.0175  0.3224
   28DOPE    HA 3500   0.529   6.711   6.925  0.2316  2.4267 -1.9628
   28DOPE    HB 3501   0.443   6.824   7.031 -0.6564 -0.8506  1.1124
   28DOPE    C2 3502   0.392   6.832   6.818  0.1977 -0.2677  0.9461
   28DOPE    HS 3503   0.285   6.860   6.818  0.2017  0.1516 -2.5139
   28DOPE   O21 3504   0.432   6.756   6.701  0.0066  0.1716  0.0420
   28DOPE   C21 3505   0.330   6.704   6.628 -0.4007 -0.2758 -1.2540
   28DOPE   O22 3506   0.212   6.709   6.665 -0.5932  0.1069 -0.0305
   28DOPE   C22 3507   0.375   6.632   6.502 -0.6059 -0.4040 -0.0634
   28DOPE   H2R 3508   0.445   6.553   6.538 -0.5134  0.8781  2.8449
   28DOPE   H2S 3509   0.428   6.712   6.446 -0.2290 -0.0463  0.7983
   28DOPE    C3 3510   0.470   6.966   6.802  0.1651 -0.2127  0.1001
   28DOPE    HX 3511   0.580   6.952   6.811  0.3863  0.8258 -0.7749
   28DOPE    HY 3512   0.441   7.030   6.888  1.6479  0.1550  0.3658
   28DOPE   O31 3513   0.437   7.028   6.677  0.1318  0.0717 -0.9626
   28DOPE   C31 3514   0.331   7.102   6.668 -0.0362 -0.7188  0.0959
   28DOPE   O32 3515   0.268   7.147   6.765 -0.1635  0.2175  0.2760
   28DOPE   C32 3516   0.313   7.132   6.524  0.6548  0.5060  0.2130
   28DOPE   H2X 3517   0.409   7.146   6.470  1.4455 -0.0154  1.4470
   28DOPE   H2Y 3518   0.264   7.044   6.477  1.3558 -0.0575  0.5251
   28DOPE   C23 3519   0.265   6.564   6.420 -0.3293  0.5917 -0.0864
   28DOPE   H3R 3520   0.179   6.537   6.485  1.5212  0.9250  2.6866
   28DOPE   H3S 3521   0.311   6.471   6.379 -0.0467  0.5767  0.2624
   28DOPE   C24 3522   0.228   6.640   6.294  1.2608 -0.2884 -0.4480
   28DOPE   H4R 3523   0.317   6.658   6.230  1.1336  0.5171 -0.4073
   28DOPE   H4S 3524   0.189   6.736   6.333 -1.2793 -1.6074  0.4750
   28DOPE   C25 3525   0.113   6.566   6.226  0.4061  0.4692  0.8834
   28DOPE   H5R 3526   0.044   6.529   6.305  0.7232 -0.5470  0.7077
   28DOPE   H5S 3527   0.144   6.475   6.170  0.5907 -0.4318  2.3800
   28DOPE   C26 3528   0.042   6.673   6.136  0.0089 -0.2999  0.3810
   28DOPE   H6R 3529   0.053   6.772   6.186 -1.8144 -0.6502  1.5652
   28DOPE   H6S 3530  -0.066   6.646   6.139  0.3800 -2.2680 -1.4681
   28DOPE   C27 3531   0.095   6.672   5.984 -0.3902  0.1195 -0.4201
   28DOPE   H7R 3532   0.060   6.589   5.919  0.4350 -1.1416  0.6646
   28DOPE   H7S 3533   0.202   6.643   5.996 -0.6117 -0.1002  1.3125
   28DOPE   C28 3534   0.075   6.808   5.918 -0.5450 -1.1789  0.0146
   28DOPE   H8R 3535   0.101   6.893   5.985  0.7678 -1.0579 -0.6188
   28DOPE   H8S 3536  -0.033   6.813   5.895 -0.6171  2.9606  0.3964
   28DOPE   C29 3537   0.158   6.817   5.789 -0.0546 -0.2728 -0.0097
   28DOPE   H9R 3538   0.268   6.815   5.798 -0.0664  0.2530  0.3014
   28DOPE  C210 3539   0.113   6.828   5.660 -0.0875  0.3500 -0.2982
   28DOPE  H10R 3540   0.194   6.819   5.586  1.4645  3.3391  0.8970
   28DOPE  C211 3541  -0.029   6.819   5.614  0.4161 -0.2497  0.4826
   28DOPE  H11R 3542  -0.071   6.918   5.588  2.5701  0.0440 -2.3851
   28DOPE  H11S 3543  -0.093   6.785   5.698 -0.4871  1.0418  0.3419
   28DOPE  C212 3544  -0.063   6.734   5.491  0.0492  0.0082 -0.8342
   28DOPE  H12R 3545  -0.173   6.731   5.477 -0.2060 -1.1397  1.0825
   28DOPE  H12S 3546  -0.035   6.631   5.521 -1.6932 -0.0216  0.9358
   28DOPE  C213 3547   0.014   6.785   5.369  0.7757 -0.2182  0.6273
   28DOPE  H13R 3548   0.124   6.784   5.388  0.3936  0.7167  3.2018
   28DOPE  H13S 3549  -0.014   6.888   5.340 -0.9765 -0.9836 -0.5378
   28DOPE  C214 3550  -0.008   6.687   5.249 -0.5074  0.2498  0.3488
   28DOPE  H14R 3551  -0.115   6.668   5.224 -0.8110  0.5310  1.3892
   28DOPE  H14S 3552   0.044   6.590   5.267  0.8969  0.7429 -0.9005
   28DOPE  C215 3553   0.069   6.743   5.125 -0.3546  0.4729  0.3776
   28DOPE  H15R 3554   0.177   6.737   5.151 -0.0957 -2.2563 -0.9473
   28DOPE  H15S 3555   0.037   6.847   5.104  1.7231  1.2803  0.9807
   28DOPE  C216 3556   0.027   6.661   5.002  0.0688 -0.2740 -0.0477
   28DOPE  H16R 3557  -0.078   6.677   4.971 -0.0109 -0.1166  0.2977
   28DOPE  H16S 3558   0.040   6.556   5.035  1.3958  0.5345  2.2642
   28DOPE  C217 3559   0.111   6.697   4.879 -0.2100  0.6871  0.0371
   28DOPE  H17R 3560   0.092   6.805   4.858 -1.7008 -0.1708 -3.8706
   28DOPE  H17S 3561   0.078   6.642   4.789 -0.6571 -0.0093  0.6186
   28DOPE  C218 3562   0.264   6.678   4.896  0.2322 -0.0624  0.2567
   28DOPE  H18R 3563   0.287   6.713   4.999 -3.9079 -1.1809  1.7645
   28DOPE  H18S 3564   0.340   6.725   4.829 -1.2764  0.6031 -1.0487
   28DOPE  H18T 3565   0.276   6.568   4.895 -4.3816 -0.7525 -1.2746
   28DOPE   C33 3566   0.235   7.256   6.488 -0.4663 -0.1351 -0.4286
   28DOPE   H3X 3567   0.149   7.243   6.558  0.6073 -1.0345  0.7682
   28DOPE   H3Y 3568   0.199   7.255   6.383 -1.7756 -1.4470 -0.0047
   28DOPE   C34 3569   0.293   7.388   6.529  0.4265 -0.1069  0.8361
   28DOPE   H4X 3570   0.329   7.392   6.634 -0.6830 -1.9380  1.3541
   28DOPE   H4Y 3571   0.380   7.404   6.463  0.5027 -0.9350  0.7173
   28DOPE   C35 3572   0.194   7.508   6.498 -0.1709 -0.2465  0.1226
   28DOPE   H5X 3573   0.115   7.494   6.575 -1.3399  0.8643 -0.8118
   28DOPE   H5Y 3574   0.152   7.506   6.395  0.7283  1.6979 -0.3283
   28DOPE   C36 3575   0.253   7.653   6.528  0.6967 -0.1743  0.5052
   28DOPE   H6X 3576   0.342   7.667   6.464 -0.1714  1.2055 -0.4786
   28DOPE   H6Y 3577   0.292   7.656   6.632  2.2518  1.1544 -0.0646
   28DOPE   C37 3578   0.141   7.754   6.500 -0.3805  0.4710  0.3278
   28DOPE   H7X 3579   0.096   7.734   6.401 -0.6029 -0.1808  0.5560
   28DOPE   H7Y 3580   0.065   7.752   6.581 -0.0813 -1.2048  0.5946
   28DOPE   C38 3581   0.180   7.906   6.513 -0.0217 -0.2098 -0.4174
   28DOPE   H8X 3582   0.272   7.919   6.452  0.7441 -1.9734  0.2841
   28DOPE   H8Y 3583   0.221   7.925   6.614  1.9605 -1.8388 -0.8551
   28DOPE   C39 3584   0.068   7.999   6.469  0.3668 -0.3561  0.5991
   28DOPE   H9X 3585  -0.038   7.974   6.487 -0.6797  3.7200  1.0915
   28DOPE  C310 3586   0.069   8.111   6.392  0.2445 -0.0535 -0.8276
   28DOPE  H10X 3587  -0.028   8.153   6.362  0.5235  1.6470  0.4868
   28DOPE  C311 3588   0.192   8.181   6.341  0.0649  0.0885 -0.2754
   28DOPE  H11X 3589   0.194   8.286   6.376  0.9487 -0.6758  2.1918
   28DOPE  H11Y 3590   0.286   8.132   6.376  0.5527  1.9575  1.2136
   28DOPE  C312 3591   0.187   8.179   6.185  0.4852 -0.5082  0.3145
   28DOPE  H12X 3592   0.279   8.214   6.133 -0.1133 -0.6087 -0.8607
   28DOPE  H12Y 3593   0.102   8.245   6.157 -0.7277 -0.3987  3.7888
   28DOPE  C313 3594   0.140   8.043   6.115 -0.1543 -0.9630 -0.3991
   28DOPE  H13X 3595   0.222   7.970   6.135  0.4311 -0.4306 -0.8180
   28DOPE  H13Y 3596   0.041   8.011   6.154 -0.9205  2.1893  0.5233
   28DOPE  C314 3597   0.146   8.059   5.958  1.1565 -0.1542  0.1942
   28DOPE  H14X 3598   0.093   8.147   5.915  2.9040  2.2860  2.6652
   28DOPE  H14Y 3599   0.097   7.967   5.920  0.4993  0.0867  0.4318
   28DOPE  C315 3600   0.280   8.048   5.900 -0.4443  0.0752 -0.7953
   28DOPE  H15X 3601   0.312   7.948   5.936 -0.6579  0.6729  1.1730
   28DOPE  H15Y 3602   0.351   8.123   5.942  1.4827 -0.2947 -3.1199
   28DOPE  C316 3603   0.291   8.045   5.748 -0.5519 -0.4643  0.3155
   28DOPE  H16X 3604   0.261   8.134   5.689 -1.1597 -1.1998 -0.5081
   28DOPE  H16Y 3605   0.237   7.956   5.710 -0.2027 -0.2430 -0.7106
   28DOPE  C317 3606   0.433   8.008   5.701  0.0022  0.2263  0.0000
   28DOPE  H17X 3607   0.444   8.023   5.592  3.2560 -1.0288  0.0566
   28DOPE  H17Y 3608   0.501   8.082   5.747 -0.5964  0.5709  0.3386
   28DOPE  C318 3609   0.482   7.867   5.751  0.5645 -0.0153 -0.4177
   28DOPE  H18X 3610   0.564   7.830   5.685  1.6651  2.1836 -0.3849
   28DOPE  H18Y 3611   0.508   7.864   5.859  1.4522  2.6130 -0.4843
   28DOPE  H18Z 3612   0.397   7.796   5.742  1.8217 -1.6328 -0.1128
   29DOPE     N 3613   0.043   0.160   7.151  0.2270  0.5333  0.0531
   29DOPE   HN1 3614  -0.003   0.082   7.100 -1.7697 -0.5150  3.1402
   29DOPE   HN2 3615   0.119   0.122   7.211 -1.1475  0.8944  2.1510
   29DOPE   HN3 3616  -0.034   0.200   7.208  0.8952  1.2803  0.4585
   29DOPE   C12 3617   0.072   0.262   7.039 -0.1632 -0.2275  0.4716
   29DOPE  H12A 3618  -0.032   0.289   7.011 -0.4565  1.5846  3.0805
   29DOPE  H12B 3619   0.123   0.215   6.952  0.2732  0.2017  0.4933
   29DOPE   C11 3620   0.140   0.390   7.090 -0.3415 -1.2013  0.1308
   29DOPE  H11A 3621   0.065   0.425   7.164  0.4380  1.2662 -0.1648
   29DOPE  H11B 3622   0.157   0.462   7.008  0.1474 -1.4486  0.0117
   29DOPE     P 3623   0.404   0.375   7.094 -0.0360  0.0289 -0.1069
   29DOPE   O13 3624   0.503   0.314   7.181  0.0664 -0.2645  0.3235
   29DOPE   O14 3625   0.416   0.515   7.056 -0.0509 -0.5514  0.2489
   29DOPE   O11 3626   0.403   0.299   6.960 -0.0329  0.1615 -0.2363
   29DOPE   O12 3627   0.263   0.352   7.162  0.5968  0.6575  0.0319
   29DOPE    C1 3628   0.412   0.153   6.978  0.3485  0.1783  0.0754
   29DOPE    HA 3629   0.334   0.098   6.921 -0.4361  2.7271 -1.4279
   29DOPE    HB 3630   0.403   0.114   7.082 -0.6703  2.3636  0.8632
   29DOPE    C2 3631   0.543   0.094   6.912  0.0221  0.4944 -0.2696
   29DOPE    HS 3632   0.632   0.133   6.966  1.2817 -1.9824 -0.4330
   29DOPE   O21 3633   0.546   0.117   6.772 -0.4038  0.2376  0.6904
   29DOPE   C21 3634   0.621   0.223   6.733 -0.1373  0.2357  0.2426
   29DOPE   O22 3635   0.698   0.282   6.808 -0.0944 -0.0469 -0.3733
   29DOPE   C22 3636   0.594   0.250   6.583 -0.0637 -0.8128 -0.1318
   29DOPE   H2R 3637   0.484   0.241   6.568 -0.1961  1.8687 -1.2415
   29DOPE   H2S 3638   0.637   0.168   6.522  1.9796  0.2726 -0.2352
   29DOPE    C3 3639   0.544  -0.061   6.922 -0.9896 -0.4469 -0.4277
   29DOPE    HX 3640   0.453  -0.095   6.868 -1.2087 -0.3824 -0.1042
   29DOPE    HY 3641   0.536  -0.089   7.030 -1.5636  1.9448  0.2133
   29DOPE   O31 3642   0.669  -0.126   6.868 -0.3447 -0.8980  0.2973
   29DOPE   C31 3643   0.653  -0.248   6.815 -0.0517 -0.3431  0.1881
   29DOPE   O32 3644   0.554  -0.318   6.815 -0.2491 -0.2172  0.0183
   29DOPE   C32 3645   0.784  -0.296   6.753 -0.3839  0.3831  0.8436
   29DOPE   H2X 3646   0.853  -0.209   6.759 -0.4334  0.3131  4.1250
   29DOPE   H2Y 3647   0.817  -0.387   6.807 -0.3359 -0.1145  0.0089
   29DOPE   C23 3648   0.626   0.391   6.522  0.9248  0.5181 -0.3645
   29DOPE   H3R 3649   0.736   0.403   6.524  0.9589  0.1568  0.9997
   29DOPE   H3S 3650   0.576   0.469   6.584 -0.5139  0.8854 -1.8958
   29DOPE   C24 3651   0.581   0.402   6.378  0.3014 -0.0287 -0.3993
   29DOPE   H4R 3652   0.471   0.414   6.373  0.4689  2.3639  0.2391
   29DOPE   H4S 3653   0.608   0.310   6.322 -0.0156  0.6722 -1.7362
   29DOPE   C25 3654   0.648   0.522   6.306  0.2623  0.2126 -0.7520
   29DOPE   H5R 3655   0.759   0.509   6.311  0.1863 -0.3996 -0.5831
   29DOPE   H5S 3656   0.631   0.612   6.369 -0.1001  0.3084 -0.9879
   29DOPE   C26 3657   0.603   0.539   6.160 -0.5626 -0.3874 -0.1379
   29DOPE   H6R 3658   0.493   0.551   6.161 -0.6286 -0.1589 -2.5416
   29DOPE   H6S 3659   0.635   0.452   6.098  0.3838  0.1588 -0.4264
   29DOPE   C27 3660   0.656   0.671   6.101 -0.4972 -0.0770 -0.4150
   29DOPE   H7R 3661   0.756   0.690   6.146 -0.4965  1.1117 -0.8804
   29DOPE   H7S 3662   0.587   0.755   6.124  1.0920  1.2728 -0.4149
   29DOPE   C28 3663   0.663   0.667   5.948 -0.0255 -0.1599 -0.3415
   29DOPE   H8R 3664   0.558   0.657   5.914  0.7913 -1.5375 -2.6854
   29DOPE   H8S 3665   0.709   0.571   5.918  0.8728 -0.1316  0.8505
   29DOPE   C29 3666   0.734   0.786   5.887  0.3758  0.3060 -0.6555
   29DOPE   H9R 3667   0.772   0.852   5.967  0.5188  0.4277 -0.8239
   29DOPE  C210 3668   0.759   0.811   5.756 -0.6423  0.4824 -0.7015
   29DOPE  H10R 3669   0.821   0.897   5.727  1.1106 -0.8211 -0.9730
   29DOPE  C211 3670   0.736   0.723   5.636  0.0896 -0.0370  0.6536
   29DOPE  H11R 3671   0.634   0.740   5.597 -0.4737  0.0779  2.1262
   29DOPE  H11S 3672   0.727   0.614   5.658 -1.1182  0.0469  0.6213
   29DOPE  C212 3673   0.836   0.742   5.518  0.5856  0.1984 -0.2600
   29DOPE  H12R 3674   0.936   0.733   5.566  0.4942  0.4222 -0.0257
   29DOPE  H12S 3675   0.824   0.845   5.478 -1.4821  0.3936  0.7841
   29DOPE  C213 3676   0.815   0.640   5.404 -0.5080  0.2869  0.0836
   29DOPE  H13R 3677   0.720   0.657   5.349  0.3802 -0.3300 -1.7173
   29DOPE  H13S 3678   0.822   0.536   5.442  1.3802  0.6156  0.7269
   29DOPE  C214 3679   0.926   0.643   5.298 -0.0250  0.1734  0.5594
   29DOPE  H14R 3680   1.025   0.617   5.342 -0.6821  0.2244  2.1536
   29DOPE  H14S 3681   0.933   0.747   5.261  1.5529 -0.8694 -2.3729
   29DOPE  C215 3682   0.890   0.553   5.177 -1.0385 -0.6824 -0.0189
   29DOPE  H15R 3683   0.800   0.597   5.129 -1.6783 -3.1548 -1.2193
   29DOPE  H15S 3684   0.867   0.451   5.212 -0.7716 -0.6322  0.3076
   29DOPE  C216 3685   1.011   0.534   5.072 -0.2301 -0.7707  0.8879
   29DOPE  H16R 3686   0.976   0.475   4.985 -3.1660  1.7270  0.1863
   29DOPE  H16S 3687   1.091   0.485   5.132 -0.1760 -0.9384  0.6802
   29DOPE  C217 3688   1.074   0.657   5.010  0.5823 -1.0555  0.6728
   29DOPE  H17R 3689   1.158   0.614   4.951 -0.5505 -2.6883  0.1648
   29DOPE  H17S 3690   1.123   0.724   5.083  2.2567 -3.0398  1.4839
   29DOPE  C218 3691   0.980   0.730   4.917 -0.1919  0.7707 -0.1511
   29DOPE  H18R 3692   0.882   0.749   4.966 -1.0989 -1.1760 -1.0984
   29DOPE  H18S 3693   0.948   0.660   4.837  1.5449  0.0502 -0.2582
   29DOPE  H18T 3694   1.008   0.828   4.873  1.0431  0.1318 -0.8556
   29DOPE   C33 3695   0.767  -0.343   6.607 -0.1402  0.3786 -0.0103
   29DOPE   H3X 3696   0.677  -0.406   6.594  0.2997  0.1418 -2.4533
   29DOPE   H3Y 3697   0.848  -0.416   6.584  0.6497  0.0321  3.3724
   29DOPE   C34 3698   0.750  -0.224   6.511 -0.1783 -0.4042  0.3039
   29DOPE   H4X 3699   0.673  -0.148   6.535 -0.8676 -1.0552  0.1780
   29DOPE   H4Y 3700   0.852  -0.179   6.502  2.2663 -5.5844 -3.4115
   29DOPE   C35 3701   0.700  -0.290   6.384 -0.1091 -0.0678  1.0624
   29DOPE   H5X 3702   0.619  -0.361   6.412  0.9822 -1.1744  1.5001
   29DOPE   H5Y 3703   0.782  -0.356   6.349 -0.9695 -0.3661 -0.4355
   29DOPE   C36 3704   0.650  -0.182   6.284  0.2127  0.1212  0.7993
   29DOPE   H6X 3705   0.725  -0.110   6.244  0.8068 -0.4953  0.7916
   29DOPE   H6Y 3706   0.587  -0.119   6.351  2.3570 -0.4667  3.5002
   29DOPE   C37 3707   0.570  -0.242   6.167  0.7633  0.2502  0.4779
   29DOPE   H7X 3708   0.639  -0.318   6.124  0.6526 -0.5949  1.7504
   29DOPE   H7Y 3709   0.486  -0.310   6.193 -2.8470  3.3835 -1.8783
   29DOPE   C38 3710   0.527  -0.142   6.058  0.0543  0.6770  0.0027
   29DOPE   H8X 3711   0.480  -0.204   5.978  0.3004 -2.0325  1.8239
   29DOPE   H8Y 3712   0.622  -0.095   6.024  0.2869  0.2927  0.1159
   29DOPE   C39 3713   0.435  -0.045   6.121  0.1028  0.0816 -0.7312
   29DOPE   H9X 3714   0.488   0.018   6.194 -0.1317 -1.1849  0.5556
   29DOPE  C310 3715   0.303  -0.053   6.134  0.6074 -0.7597 -0.1607
   29DOPE  H10X 3716   0.244   0.037   6.158  1.7844 -0.1759  0.6343
   29DOPE  C311 3717   0.223  -0.166   6.080  0.2569 -0.0693 -0.6179
   29DOPE  H11X 3718   0.285  -0.245   6.032  1.2269  0.0931  0.3476
   29DOPE  H11Y 3719   0.186  -0.221   6.169 -0.6173 -3.3722 -2.8316
   29DOPE  C312 3720   0.117  -0.131   5.974 -0.0569  0.0332 -0.1474
   29DOPE  H12X 3721   0.051  -0.049   6.008 -0.2951 -0.5614  0.8602
   29DOPE  H12Y 3722   0.055  -0.224   5.976  1.7559 -1.2763 -1.3495
   29DOPE  C313 3723   0.167  -0.120   5.835  0.0357  0.5086 -0.1801
   29DOPE  H13X 3724   0.244  -0.039   5.838 -0.2473  0.7490  0.9570
   29DOPE  H13Y 3725   0.208  -0.215   5.795 -3.0876  0.1103 -2.8054
   29DOPE  C314 3726   0.061  -0.070   5.734  0.6664  0.8255 -0.5161
   29DOPE  H14X 3727  -0.006   0.013   5.765  1.5854  1.7936 -1.0741
   29DOPE  H14Y 3728  -0.009  -0.155   5.718  1.5426  0.0510 -0.3598
   29DOPE  C315 3729   0.122  -0.031   5.596  0.4920 -0.5066 -0.1559
   29DOPE  H15X 3730   0.137  -0.134   5.557  1.0853 -1.6231  2.7468
   29DOPE  H15Y 3731   0.217   0.022   5.614 -0.2327  0.9482 -0.4829
   29DOPE  C316 3732   0.031   0.060   5.506 -0.0635 -0.4490  0.1311
   29DOPE  H16X 3733   0.011   0.160   5.549  1.3613 -0.1704  0.2118
   29DOPE  H16Y 3734  -0.063   0.005   5.485 -0.9523  0.6250  1.1932
   29DOPE  C317 3735   0.100   0.116   5.382 -0.9275  0.3161  0.1550
   29DOPE  H17X 3736   0.199   0.160   5.407 -0.7681  0.0370  0.0244
   29DOPE  H17Y 3737   0.116   0.028   5.315  1.1499  0.1756  0.7641
   29DOPE  C318 3738   0.029   0.224   5.303 -0.4011  0.2874 -0.8838
   29DOPE  H18X 3739  -0.063   0.195   5.248 -0.9824 -0.1122  0.2856
   29DOPE  H18Y 3740  -0.005   0.304   5.371 -1.0855 -0.1461 -0.7137
   29DOPE  H18Z 3741   0.103   0.269   5.233  0.9921 -0.8325 -0.1844
   30DOPE     N 3742   0.838   7.215   7.289  0.3571 -0.3305 -0.5186
   30DOPE   HN1 3743   0.914   7.255   7.346 -1.1291  1.2845  0.4465
   30DOPE   HN2 3744   0.861   7.221   7.188  0.2950 -1.3738 -0.6064
   30DOPE   HN3 3745   0.759   7.282   7.302 -0.5408 -1.4123 -0.1492
   30DOPE   C12 3746   0.810   7.071   7.334  0.3444 -0.0068 -0.5444
   30DOPE  H12A 3747   0.721   7.028   7.283 -1.2171  3.3702 -0.9989
   30DOPE  H12B 3748   0.792   7.078   7.444  1.6639 -2.8648 -0.0701
   30DOPE   C11 3749   0.929   6.984   7.305 -0.3960 -0.5628  0.1658
   30DOPE  H11A 3750   0.909   6.889   7.359  0.0593 -0.8021 -0.0796
   30DOPE  H11B 3751   1.016   7.021   7.364  0.6980 -1.9289 -0.5139
   30DOPE     P 3752   1.084   6.886   7.127  0.2899 -0.3499 -0.0067
   30DOPE   O13 3753   1.040   6.754   7.077 -0.2184  0.4224  0.4721
   30DOPE   O14 3754   1.162   6.869   7.253  0.3413 -0.1909 -0.2155
   30DOPE   O11 3755   1.154   6.972   7.016 -0.0583 -0.1264  0.5807
   30DOPE   O12 3756   0.953   6.966   7.164 -0.1961  0.6060 -0.1536
   30DOPE    C1 3757   1.102   7.099   6.968 -0.4927 -0.7346 -0.6965
   30DOPE    HA 3758   1.147   7.183   7.025 -0.7680  0.1119 -1.7019
   30DOPE    HB 3759   0.993   7.109   6.984 -0.4579 -0.5526 -0.5712
   30DOPE    C2 3760   1.127   7.121   6.817 -0.2049  0.5112  0.7002
   30DOPE    HS 3761   1.072   7.210   6.781  1.0423  1.1122  0.2320
   30DOPE   O21 3762   1.087   7.004   6.751  0.1824 -0.4006  0.1930
   30DOPE   C21 3763   0.954   6.982   6.751  0.7921 -0.0302  0.0452
   30DOPE   O22 3764   0.865   7.054   6.796  0.6393 -0.4374 -0.1647
   30DOPE   C22 3765   0.928   6.845   6.696 -0.1135 -0.3135 -0.3195
   30DOPE   H2R 3766   0.931   6.761   6.769  2.3219 -2.1050 -2.3111
   30DOPE   H2S 3767   1.007   6.826   6.621  1.2849 -1.1715  1.2795
   30DOPE    C3 3768   1.279   7.145   6.797 -0.0275 -0.4345 -0.1579
   30DOPE    HX 3769   1.336   7.053   6.823  0.1400 -1.6193 -4.0764
   30DOPE    HY 3770   1.305   7.225   6.870 -1.8444  1.2207 -1.2424
   30DOPE   O31 3771   1.324   7.175   6.657  0.0848 -0.8719 -0.6600
   30DOPE   C31 3772   1.297   7.292   6.604  0.2990 -0.0636  0.3259
   30DOPE   O32 3773   1.230   7.380   6.658 -0.6154 -0.3797  0.4339
   30DOPE   C32 3774   1.345   7.305   6.464 -0.0591 -0.0199 -0.1206
   30DOPE   H2X 3775   1.445   7.353   6.472 -0.9969  1.8521  0.9979
   30DOPE   H2Y 3776   1.340   7.207   6.410 -3.4962  0.5329 -0.9868
   30DOPE   C23 3777   0.789   6.829   6.618 -0.0571  0.3780 -0.7136
   30DOPE   H3R 3778   0.702   6.829   6.686 -0.1173  0.8229 -0.7873
   30DOPE   H3S 3779   0.792   6.728   6.572  0.7490  0.6407 -1.2743
   30DOPE   C24 3780   0.768   6.936   6.503  0.0101 -0.7696  0.7090
   30DOPE   H4R 3781   0.855   6.936   6.434 -0.3158 -0.8436  0.2932
   30DOPE   H4S 3782   0.781   7.035   6.551 -0.9140 -1.3766  2.3046
   30DOPE   C25 3783   0.639   6.913   6.428  0.2502 -0.6087 -0.2402
   30DOPE   H5R 3784   0.549   6.934   6.490  0.2152  2.7998 -1.2323
   30DOPE   H5S 3785   0.625   6.804   6.410  1.2120 -0.6925 -0.5471
   30DOPE   C26 3786   0.628   6.997   6.298  0.2190 -0.5398  1.0913
   30DOPE   H6R 3787   0.715   6.981   6.231 -0.1023 -0.0498  0.5547
   30DOPE   H6S 3788   0.647   7.102   6.329  3.4965  0.1779 -2.5898
   30DOPE   C27 3789   0.492   7.003   6.226  0.9882  0.1875 -0.2440
   30DOPE   H7R 3790   0.426   7.061   6.294  1.7405  0.6953  0.0751
   30DOPE   H7S 3791   0.450   6.900   6.227 -0.3986  0.7108  1.4277
   30DOPE   C28 3792   0.487   7.057   6.082 -0.0961 -0.4402 -0.6608
   30DOPE   H8R 3793   0.529   6.982   6.011  1.8061  0.9926 -1.1238
   30DOPE   H8S 3794   0.548   7.149   6.093 -0.1800 -0.4469 -0.1195
   30DOPE   C29 3795   0.346   7.085   6.041  0.1166 -0.3328 -0.2886
   30DOPE   H9R 3796   0.270   7.063   6.117  0.5481 -0.5966  0.0744
   30DOPE  C210 3797   0.309   7.154   5.930  0.4868  0.2048  0.3696
   30DOPE  H10R 3798   0.204   7.174   5.903  0.7540  2.7986  1.0126
   30DOPE  C211 3799   0.401   7.194   5.816  0.2606  0.0877  0.1091
   30DOPE  H11R 3800   0.508   7.178   5.840  0.3564 -0.9530 -0.9188
   30DOPE  H11S 3801   0.381   7.297   5.779 -0.1270 -0.4000 -1.0925
   30DOPE  C212 3802   0.390   7.111   5.680  0.4839 -0.4197  0.3145
   30DOPE  H12R 3803   0.284   7.096   5.649  0.6595  1.0574 -1.1306
   30DOPE  H12S 3804   0.429   7.009   5.699 -1.4047 -0.9018  1.9143
   30DOPE  C213 3805   0.466   7.171   5.563  0.0172  0.2449  0.4253
   30DOPE  H13R 3806   0.572   7.168   5.596 -0.2869 -1.5139  1.3342
   30DOPE  H13S 3807   0.440   7.279   5.562 -1.4952 -0.0859  1.1460
   30DOPE  C214 3808   0.431   7.099   5.423 -0.0653 -0.2993 -0.7589
   30DOPE  H14R 3809   0.477   6.998   5.419  2.3021  0.7763 -3.6771
   30DOPE  H14S 3810   0.488   7.150   5.343 -0.7987  1.1820 -0.3701
   30DOPE  C215 3811   0.284   7.085   5.389 -0.3454  1.1464  0.1078
   30DOPE  H15R 3812   0.244   7.188   5.390 -1.5803  0.7147 -1.2794
   30DOPE  H15S 3813   0.234   7.012   5.457  0.3033 -0.1899 -0.8074
   30DOPE  C216 3814   0.260   7.031   5.245  0.0973  0.5180 -0.8536
   30DOPE  H16R 3815   0.150   7.020   5.238 -0.0868  0.7706  1.0685
   30DOPE  H16S 3816   0.307   6.930   5.238 -1.6783 -0.2590 -2.3600
   30DOPE  C217 3817   0.322   7.105   5.134 -0.1890 -0.1630 -0.2659
   30DOPE  H17R 3818   0.431   7.090   5.147 -0.3880 -1.6137 -0.1262
   30DOPE  H17S 3819   0.297   7.214   5.136 -0.6275 -0.1917 -2.1243
   30DOPE  C218 3820   0.263   7.061   4.995 -0.2083  0.2691  0.0279
   30DOPE  H18R 3821   0.273   6.952   4.977  0.5432  0.4554 -0.7420
   30DOPE  H18S 3822   0.307   7.120   4.912  0.7030  0.2051  0.4572
   30DOPE  H18T 3823   0.155   7.086   4.993 -0.3715 -0.2978  0.9708
   30DOPE   C33 3824   1.274   7.405   6.365 -0.2849  0.2108  0.0559
   30DOPE   H3X 3825   1.348   7.422   6.284 -0.1012  0.4703  0.2747
   30DOPE   H3Y 3826   1.275   7.508   6.407  0.9877 -0.6490  2.3429
   30DOPE   C34 3827   1.147   7.360   6.301 -0.0599 -0.2597  0.3642
   30DOPE   H4X 3828   1.169   7.266   6.246  1.5956 -0.8502  1.9334
   30DOPE   H4Y 3829   1.083   7.342   6.390 -0.9792  1.5326  0.1137
   30DOPE   C35 3830   1.083   7.458   6.195  0.1228  0.1687 -0.5729
   30DOPE   H5X 3831   1.077   7.559   6.240 -0.1178  0.2211 -0.7160
   30DOPE   H5Y 3832   0.980   7.416   6.185 -0.1693  0.7039  0.1169
   30DOPE   C36 3833   1.154   7.456   6.058  0.6421  0.3994  0.7656
   30DOPE   H6X 3834   1.168   7.352   6.023  0.2319  0.8083 -0.7344
   30DOPE   H6Y 3835   1.250   7.510   6.069  0.3052  0.7551  2.0533
   30DOPE   C37 3836   1.067   7.534   5.962 -0.6128 -0.0745  0.1714
   30DOPE   H7X 3837   1.041   7.635   6.000 -1.4525 -0.8539  1.7916
   30DOPE   H7Y 3838   1.128   7.567   5.875 -0.2356  2.9964  1.4949
   30DOPE   C38 3839   0.948   7.463   5.905  0.7100  0.4004  0.1707
   30DOPE   H8X 3840   0.873   7.436   5.983 -1.4603  0.5965 -1.7320
   30DOPE   H8Y 3841   0.989   7.367   5.867  1.4723  0.1795  1.4903
   30DOPE   C39 3842   0.876   7.549   5.804 -0.4465  0.0264  0.0717
   30DOPE   H9X 3843   0.842   7.646   5.842 -0.7803 -0.2884  0.5779
   30DOPE  C310 3844   0.855   7.508   5.672 -0.4926 -0.0791 -0.5806
   30DOPE  H10X 3845   0.793   7.571   5.607 -0.0592  0.1386 -0.7891
   30DOPE  C311 3846   0.888   7.381   5.597  0.1468 -0.6906  0.5321
   30DOPE  H11X 3847   0.944   7.304   5.654  0.3019 -0.9553  0.0237
   30DOPE  H11Y 3848   0.792   7.329   5.579 -0.3107  0.0319  0.8447
   30DOPE  C312 3849   0.953   7.420   5.462  0.3421 -0.3911  0.6541
   30DOPE  H12X 3850   1.047   7.470   5.494  0.1290  2.1848 -2.2420
   30DOPE  H12Y 3851   0.896   7.498   5.406  0.9121 -0.9192 -0.7068
   30DOPE  C313 3852   0.966   7.300   5.370 -0.2417  0.2838  0.1986
   30DOPE  H13X 3853   1.011   7.223   5.436 -1.8177 -1.0111 -0.1632
   30DOPE  H13Y 3854   0.874   7.256   5.325 -0.0138 -0.4928  0.4866
   30DOPE  C314 3855   1.065   7.334   5.257 -0.2967  0.1114  0.0890
   30DOPE  H14X 3856   1.164   7.352   5.304 -0.4677  1.3226  0.0070
   30DOPE  H14Y 3857   1.030   7.422   5.199 -2.0440 -0.5659  0.0505
   30DOPE  C315 3858   1.083   7.211   5.175 -0.3450 -0.5956 -0.3910
   30DOPE  H15X 3859   0.997   7.191   5.109 -1.0987  0.1473  0.3481
   30DOPE  H15Y 3860   1.102   7.129   5.248  1.9956  2.7171  3.1521
   30DOPE  C316 3861   1.205   7.215   5.074  0.1383 -0.3547  0.9050
   30DOPE  H16X 3862   1.218   7.112   5.033 -1.1559 -0.1430 -0.0711
   30DOPE  H16Y 3863   1.284   7.228   5.151 -1.1840 -0.9684  2.4331
   30DOPE  C317 3864   1.206   7.318   4.970 -0.2397  1.0526 -0.1912
   30DOPE  H17X 3865   1.119   7.305   4.901 -0.2006  1.5887 -0.3430
   30DOPE  H17Y 3866   1.193   7.421   5.008 -3.3316  1.5226 -2.1145
   30DOPE  C318 3867   1.335   7.313   4.881  0.9691 -0.1093 -0.1718
   30DOPE  H18X 3868   1.340   7.215   4.828 -2.4759 -1.1407  1.1668
   30DOPE  H18Y 3869   1.325   7.399   4.811  1.2280 -0.5889 -0.8064
   30DOPE  H18Z 3870   1.430   7.334   4.935  0.0312  3.5226  0.3450
   31DOPE     N 3871   3.096   2.685   2.788 -0.4353 -0.0279  0.1840
   31DOPE   HN1 3872   3.071   2.641   2.697 -1.6440 -1.2917  1.0867
   31DOPE   HN2 3873   3.030   2.764   2.807  0.3427  0.3114  1.6427
   31DOPE   HN3 3874   3.194   2.717   2.794  0.0054 -1.0870 -0.9154
   31DOPE   C12 3875   3.056   2.588   2.897  0.4438  0.0842 -0.6739
   31DOPE  H12A 3876   3.084   2.634   2.994 -3.0470  1.2273 -0.0691
   31DOPE  H12B 3877   3.111   2.498   2.862 -1.2961 -0.5509 -1.9055
   31DOPE   C11 3878   2.905   2.563   2.894  0.2505 -0.9539 -0.4144
   31DOPE  H11A 3879   2.890   2.487   2.973  0.7681 -0.8853 -0.2409
   31DOPE  H11B 3880   2.893   2.516   2.794  0.4813 -1.9159  0.0045
   31DOPE     P 3881   2.686   2.683   2.934  0.4058 -0.1865 -0.4822
   31DOPE   O13 3882   2.618   2.591   2.841  0.1920  0.0248  0.3971
   31DOPE   O14 3883   2.637   2.825   2.932 -0.3499 -0.0612  0.0900
   31DOPE   O11 3884   2.656   2.627   3.079  0.1955  0.1973  0.0280
   31DOPE   O12 3885   2.839   2.683   2.920  0.5913  0.2123  0.2638
   31DOPE    C1 3886   2.638   2.486   3.102 -0.1061  0.3410 -0.9103
   31DOPE    HA 3887   2.722   2.441   3.044  0.7346  0.6155  0.0510
   31DOPE    HB 3888   2.541   2.461   3.055 -1.5525 -1.2021  2.5117
   31DOPE    C2 3889   2.630   2.453   3.246  0.3974 -0.4502  0.4203
   31DOPE    HS 3890   2.591   2.350   3.262  1.4445 -0.7114  1.4621
   31DOPE   O21 3891   2.553   2.549   3.318 -0.3397  0.2034  0.2075
   31DOPE   C21 3892   2.425   2.531   3.308  0.2501 -0.6217 -0.0321
   31DOPE   O22 3893   2.374   2.441   3.248  0.5621  0.1058  0.1196
   31DOPE   C22 3894   2.355   2.644   3.382  0.0610 -0.0215  0.6400
   31DOPE   H2R 3895   2.245   2.629   3.384 -0.0039  0.3266 -0.0387
   31DOPE   H2S 3896   2.369   2.739   3.327  0.0090 -1.4076 -1.9588
   31DOPE    C3 3897   2.775   2.451   3.305  0.4217  0.1773 -0.1069
   31DOPE    HX 3898   2.825   2.547   3.280 -0.1944  0.7507  0.7977
   31DOPE    HY 3899   2.832   2.373   3.250  0.9821  0.6132 -0.1576
   31DOPE   O31 3900   2.768   2.419   3.444  0.1219  0.0634  0.2005
   31DOPE   C31 3901   2.785   2.524   3.523 -0.9826  0.5142  0.1971
   31DOPE   O32 3902   2.796   2.639   3.491  0.2014 -0.1536 -0.0918
   31DOPE   C32 3903   2.794   2.476   3.668  0.9107 -0.5978 -0.0746
   31DOPE   H2X 3904   2.787   2.366   3.671  2.2750 -0.8137 -2.4715
   31DOPE   H2Y 3905   2.896   2.487   3.712  0.9978  1.3129 -0.6267
   31DOPE   C23 3906   2.407   2.658   3.529 -0.1128  0.5680  0.1986
   31DOPE   H3R 3907   2.517   2.666   3.520 -0.1514  1.8043  0.6778
   31DOPE   H3S 3908   2.380   2.559   3.573  2.2525 -0.8825 -1.4180
   31DOPE   C24 3909   2.351   2.776   3.599 -0.3707 -0.2381 -0.4850
   31DOPE   H4R 3910   2.241   2.760   3.610 -0.3513 -0.2288 -0.2589
   31DOPE   H4S 3911   2.362   2.871   3.544  1.4544 -1.1862 -1.8668
   31DOPE   C25 3912   2.411   2.789   3.743 -0.4269 -0.1575 -0.2920
   31DOPE   H5R 3913   2.518   2.814   3.727 -0.3590  1.1544  1.8745
   31DOPE   H5S 3914   2.411   2.690   3.792 -1.3201  0.8865  1.9378
   31DOPE   C26 3915   2.336   2.883   3.837  0.2472  0.0710 -0.9610
   31DOPE   H6R 3916   2.233   2.843   3.847  1.0075 -1.3649  2.5601
   31DOPE   H6S 3917   2.328   2.985   3.794 -0.5401  0.5146  0.2062
   31DOPE   C27 3918   2.409   2.898   3.975 -0.8950  0.5268 -0.3171
   31DOPE   H7R 3919   2.517   2.923   3.965 -0.2679  0.0323  3.6893
   31DOPE   H7S 3920   2.413   2.803   4.033  3.0104  0.0058 -1.1125
   31DOPE   C28 3921   2.356   3.015   4.054 -0.4979  0.2676 -0.1923
   31DOPE   H8R 3922   2.380   3.108   3.998 -0.2821  1.3814  1.6641
   31DOPE   H8S 3923   2.412   3.032   4.149  0.8043  1.1334 -1.0907
   31DOPE   C29 3924   2.205   3.004   4.067 -0.6735 -0.0396  0.2678
   31DOPE   H9R 3925   2.151   3.055   3.986  1.8723  1.7754 -0.4122
   31DOPE  C210 3926   2.149   2.951   4.181 -0.2252 -0.7336  0.1266
   31DOPE  H10R 3927   2.043   2.976   4.198 -0.3100 -1.1028  0.1551
   31DOPE  C211 3928   2.211   2.884   4.294  0.3987  0.7313  0.2966
   31DOPE  H11R 3929   2.293   2.817   4.262 -0.3673 -0.1079  0.0571
   31DOPE  H11S 3930   2.145   2.821   4.358  0.1071  0.8517  0.1166
   31DOPE  C212 3931   2.274   2.985   4.387 -0.4087 -0.3207  0.0272
   31DOPE  H12R 3932   2.192   3.024   4.451  0.2850  0.6178  0.3684
   31DOPE  H12S 3933   2.312   3.081   4.346 -1.4515  0.1452  0.1045
   31DOPE  C213 3934   2.398   2.922   4.461  0.8792  0.1391 -0.1928
   31DOPE  H13R 3935   2.483   2.887   4.398  2.0672  0.6123  1.0785
   31DOPE  H13S 3936   2.365   2.837   4.525  1.8219  0.2233  0.4294
   31DOPE  C214 3937   2.470   3.021   4.554  0.9790 -0.1011 -0.4949
   31DOPE  H14R 3938   2.385   3.048   4.621 -0.8501 -4.0728 -0.9146
   31DOPE  H14S 3939   2.500   3.109   4.494  0.8913  0.8355  0.7904
   31DOPE  C215 3940   2.579   2.961   4.650  0.4769  0.0650 -0.7319
   31DOPE  H15R 3941   2.611   3.045   4.716 -0.0765 -0.1155 -0.2152
   31DOPE  H15S 3942   2.664   2.920   4.592  0.7969  0.7795 -0.7757
   31DOPE  C216 3943   2.523   2.847   4.745  0.1988  0.0490  0.5352
   31DOPE  H16R 3944   2.505   2.756   4.685  0.2142  1.0781 -1.0737
   31DOPE  H16S 3945   2.429   2.886   4.791 -0.0854 -1.5685  1.4368
   31DOPE  C217 3946   2.631   2.809   4.847 -0.1983  0.0964 -0.5540
   31DOPE  H17R 3947   2.635   2.887   4.926 -1.6902 -0.1719 -0.1855
   31DOPE  H17S 3948   2.731   2.804   4.799 -1.1214  3.0505 -3.1580
   31DOPE  C218 3949   2.607   2.668   4.920  0.6449 -0.6396  0.6128
   31DOPE  H18R 3950   2.502   2.664   4.956  0.3231 -1.6873 -0.3850
   31DOPE  H18S 3951   2.687   2.647   4.995  1.0591 -1.7365 -0.1075
   31DOPE  H18T 3952   2.610   2.596   4.836  2.6708 -0.2757  0.2994
   31DOPE   C33 3953   2.689   2.558   3.758  0.2766  0.5621 -0.2401
   31DOPE   H3X 3954   2.584   2.524   3.741 -0.1079  0.2631  2.3183
   31DOPE   H3Y 3955   2.695   2.668   3.746 -1.1800  0.8089  0.9608
   31DOPE   C34 3956   2.713   2.519   3.909 -0.1897 -0.2281  0.7198
   31DOPE   H4X 3957   2.696   2.410   3.922  0.5274 -0.6471 -1.5010
   31DOPE   H4Y 3958   2.820   2.546   3.918 -0.2227  0.8515 -1.5394
   31DOPE   C35 3959   2.641   2.606   4.011 -0.0794  1.0588 -0.4255
   31DOPE   H5X 3960   2.532   2.602   3.988 -0.3796  0.0168  0.9812
   31DOPE   H5Y 3961   2.678   2.710   4.007  0.3699  0.9125 -0.1958
   31DOPE   C36 3962   2.665   2.569   4.156 -0.7919 -0.0756  0.0700
   31DOPE   H6X 3963   2.755   2.619   4.196 -0.0118 -2.1545  1.0607
   31DOPE   H6Y 3964   2.678   2.459   4.168 -1.1041 -0.4408 -2.3819
   31DOPE   C37 3965   2.544   2.608   4.247 -0.3589  0.5563  0.1431
   31DOPE   H7X 3966   2.541   2.718   4.261  2.9423  0.6731  0.6040
   31DOPE   H7Y 3967   2.450   2.589   4.190 -0.2057 -0.3473  0.1757
   31DOPE   C38 3968   2.537   2.535   4.386  0.1724  0.0775  0.0519
   31DOPE   H8X 3969   2.510   2.427   4.379 -2.5354  0.7249 -0.6721
   31DOPE   H8Y 3970   2.446   2.577   4.432 -1.7372 -1.8875 -1.6819
   31DOPE   C39 3971   2.663   2.564   4.467 -0.5641 -0.5246 -1.2721
   31DOPE   H9X 3972   2.704   2.666   4.461  0.1615 -0.4121  2.7431
   31DOPE  C310 3973   2.730   2.486   4.554  0.2400  0.5192 -0.5880
   31DOPE  H10X 3974   2.816   2.530   4.605 -0.8637  3.8219 -1.3338
   31DOPE  C311 3975   2.711   2.335   4.577 -0.0200  0.2385 -0.1941
   31DOPE  H11X 3976   2.701   2.318   4.686 -4.2483  4.2702  0.3792
   31DOPE  H11Y 3977   2.611   2.303   4.542 -0.0212 -1.2956  1.1276
   31DOPE  C312 3978   2.823   2.253   4.505  0.1797  0.5452 -0.8988
   31DOPE  H12X 3979   2.801   2.146   4.524  1.4057  0.7563  2.4236
   31DOPE  H12Y 3980   2.918   2.253   4.562 -0.3320  0.7492 -0.0303
   31DOPE  C313 3981   2.841   2.285   4.362  0.0650 -0.1750  0.1697
   31DOPE  H13X 3982   2.757   2.254   4.295 -0.3750  1.7294 -0.2244
   31DOPE  H13Y 3983   2.862   2.392   4.342 -0.5557  0.0636  0.7529
   31DOPE  C314 3984   2.964   2.199   4.313  0.5296 -0.6896 -1.0166
   31DOPE  H14X 3985   2.953   2.090   4.335  0.5296 -0.2204  1.6513
   31DOPE  H14Y 3986   3.050   2.216   4.380 -0.6505  1.2618  0.0926
   31DOPE  C315 3987   2.993   2.236   4.162  0.2533 -0.3809  0.4450
   31DOPE  H15X 3988   3.083   2.181   4.128 -0.6024  0.1562 -3.0950
   31DOPE  H15Y 3989   3.004   2.345   4.150 -1.5948 -0.2041  0.0050
   31DOPE  C316 3990   2.878   2.202   4.063 -0.3595 -0.0469 -0.4213
   31DOPE  H16X 3991   2.797   2.276   4.079 -0.7742 -0.6570  0.3211
   31DOPE  H16Y 3992   2.831   2.103   4.081  2.0016 -0.7209  3.0895
   31DOPE  C317 3993   2.931   2.218   3.919  0.5214 -0.2017 -0.0654
   31DOPE  H17X 3994   2.846   2.191   3.853  1.6138 -1.0627 -1.1640
   31DOPE  H17Y 3995   2.946   2.326   3.902 -0.5235 -0.1164 -0.5118
   31DOPE  C318 3996   3.052   2.143   3.875 -0.8602 -0.1135  0.1907
   31DOPE  H18X 3997   3.045   2.041   3.918  1.3321  1.4600  4.9490
   31DOPE  H18Y 3998   3.061   2.138   3.765  0.5210 -1.3631  0.3235
   31DOPE  H18Z 3999   3.151   2.183   3.906 -1.4913  1.3808  0.3629
   32DOPE     N 4000   4.886   2.272   2.569  0.2784  0.4915  0.3523
   32DOPE   HN1 4001   4.962   2.235   2.508  0.8209 -2.5126  2.5991
   32DOPE   HN2 4002   4.809   2.203   2.578 -1.4583  2.3522  0.3034
   32DOPE   HN3 4003   4.843   2.357   2.528 -0.8674 -0.2427 -0.0170
   32DOPE   C12 4004   4.943   2.316   2.696 -0.5649 -0.3466  0.1929
   32DOPE  H12A 4005   5.045   2.356   2.677 -0.7031 -0.5797 -1.1333
   32DOPE  H12B 4006   4.951   2.227   2.761  1.5425  1.7579  3.0545
   32DOPE   C11 4007   4.860   2.428   2.761  0.5390 -0.3341 -0.4554
   32DOPE  H11A 4008   4.920   2.454   2.851 -0.6194 -0.7566  0.4677
   32DOPE  H11B 4009   4.765   2.391   2.805  1.4380 -0.1494  1.8127
   32DOPE     P 4010   4.705   2.591   2.627  0.2221  0.1195  0.3165
   32DOPE   O13 4011   4.629   2.473   2.573 -0.4751 -0.1177  0.0240
   32DOPE   O14 4012   4.725   2.709   2.541  0.1844  0.8303  0.3903
   32DOPE   O11 4013   4.644   2.634   2.768 -0.1305  0.7187 -0.0869
   32DOPE   O12 4014   4.843   2.536   2.674 -0.1515 -0.0526  0.5058
   32DOPE    C1 4015   4.731   2.732   2.837  0.2009 -0.4373  0.6557
   32DOPE    HA 4016   4.744   2.819   2.769 -0.4442 -0.4802  0.4755
   32DOPE    HB 4017   4.830   2.685   2.857 -0.3590 -2.9017 -1.7398
   32DOPE    C2 4018   4.674   2.785   2.971 -0.5779 -0.3827  0.2303
   32DOPE    HS 4019   4.732   2.869   3.014  1.0836 -0.8923 -0.9237
   32DOPE   O21 4020   4.665   2.675   3.062  0.2502  0.0655 -0.1906
   32DOPE   C21 4021   4.774   2.613   3.092 -0.0256 -0.3452  0.0378
   32DOPE   O22 4022   4.891   2.635   3.059  0.2661  0.0615 -0.1785
   32DOPE   C22 4023   4.735   2.489   3.178  0.4554  0.2485  0.5365
   32DOPE   H2R 4024   4.818   2.418   3.156  0.3850  0.2934  0.1158
   32DOPE   H2S 4025   4.638   2.455   3.134  1.1399  0.2773 -1.0806
   32DOPE    C3 4026   4.528   2.837   2.934 -0.6893 -0.2624  0.2552
   32DOPE    HX 4027   4.475   2.767   2.866 -0.6420  2.3045 -2.6273
   32DOPE    HY 4028   4.552   2.928   2.875 -1.0406  0.3161  0.9837
   32DOPE   O31 4029   4.449   2.879   3.045 -0.3632 -0.2054  0.0745
   32DOPE   C31 4030   4.354   2.797   3.085  0.1548  0.0283 -0.1076
   32DOPE   O32 4031   4.336   2.687   3.040  0.8145 -0.4863 -0.1661
   32DOPE   C32 4032   4.266   2.864   3.187 -0.1720 -0.1878 -0.1094
   32DOPE   H2X 4033   4.314   2.952   3.236  0.5395 -1.0367  0.7427
   32DOPE   H2Y 4034   4.170   2.901   3.145 -1.6999 -0.7157  2.6945
   32DOPE   C23 4035   4.723   2.504   3.334  0.0633  0.5005 -0.1315
   32DOPE   H3R 4036   4.687   2.407   3.374 -1.4409  1.1592  0.1893
   32DOPE   H3S 4037   4.641   2.579   3.339 -0.3082  0.8164 -5.5634
   32DOPE   C24 4038   4.856   2.540   3.408  0.2825 -0.4370  0.7771
   32DOPE   H4R 4039   4.884   2.625   3.343 -0.8508 -1.9099 -1.7991
   32DOPE   H4S 4040   4.934   2.462   3.395  0.0328 -0.7228  0.9844
   32DOPE   C25 4041   4.837   2.563   3.556  0.1721  0.2413 -0.0347
   32DOPE   H5R 4042   4.764   2.645   3.570 -0.1328  0.0153 -0.2883
   32DOPE   H5S 4043   4.933   2.603   3.594 -0.5273  1.4185  0.5359
   32DOPE   C26 4044   4.793   2.444   3.637  0.7504  0.1700 -0.6454
   32DOPE   H6R 4045   4.709   2.383   3.598  2.3055 -3.0150  0.6403
   32DOPE   H6S 4046   4.768   2.487   3.736 -0.0054 -0.6231 -0.4771
   32DOPE   C27 4047   4.906   2.344   3.671 -0.2468 -0.2317 -0.3539
   32DOPE   H7R 4048   4.994   2.406   3.697 -1.2162 -0.0562  2.9304
   32DOPE   H7S 4049   4.946   2.299   3.578  0.9266  0.2427 -0.1013
   32DOPE   C28 4050   4.867   2.241   3.773 -0.1262  0.3086 -0.4764
   32DOPE   H8R 4051   4.790   2.175   3.728 -0.0298 -0.0037 -0.1903
   32DOPE   H8S 4052   4.824   2.294   3.861  1.8100  0.0782  0.6710
   32DOPE   C29 4053   4.972   2.144   3.833  0.5754  0.3977 -0.9584
   32DOPE   H9R 4054   5.062   2.129   3.771  1.7195 -1.5458  1.0518
   32DOPE  C210 4055   4.967   2.069   3.946 -0.2499 -0.1655 -0.2361
   32DOPE  H10R 4056   5.057   2.013   3.975 -0.8300 -1.3212 -0.6098
   32DOPE  C211 4057   4.848   2.068   4.041  0.4662  0.1856  0.4877
   32DOPE  H11R 4058   4.779   2.151   4.014  1.9351  1.6333  1.0149
   32DOPE  H11S 4059   4.874   2.077   4.149 -0.8174 -0.8033  0.9116
   32DOPE  C212 4060   4.772   1.931   4.030 -0.0740 -0.3486 -0.4103
   32DOPE  H12R 4061   4.732   1.921   3.926 -0.9407 -1.6831  0.0155
   32DOPE  H12S 4062   4.681   1.932   4.094 -0.0142 -2.9589 -0.1702
   32DOPE  C213 4063   4.855   1.804   4.054 -0.9711  0.4778  0.2274
   32DOPE  H13R 4064   4.875   1.802   4.163 -2.0180 -0.3138  0.4216
   32DOPE  H13S 4065   4.952   1.811   4.000 -1.0611 -1.1717 -0.2208
   32DOPE  C214 4066   4.773   1.681   4.006  0.4945  0.0022 -0.5371
   32DOPE  H14R 4067   4.848   1.599   3.997  0.9663  0.3844 -0.1489
   32DOPE  H14S 4068   4.735   1.703   3.904  0.1118 -1.3450 -0.7125
   32DOPE  C215 4069   4.655   1.642   4.092  0.2493 -0.1981 -0.1950
   32DOPE  H15R 4070   4.579   1.724   4.094 -0.5461 -0.8564 -1.8941
   32DOPE  H15S 4071   4.685   1.606   4.193  0.1859 -0.7978 -0.3861
   32DOPE  C216 4072   4.568   1.528   4.028 -0.2588 -0.0835  0.0741
   32DOPE  H16R 4073   4.639   1.444   4.013  0.7655  0.6728  0.5084
   32DOPE  H16S 4074   4.538   1.570   3.929  2.7211  0.5960 -0.6610
   32DOPE  C217 4075   4.438   1.499   4.107  0.4968 -1.1914  0.7783
   32DOPE  H17R 4076   4.365   1.445   4.042  1.9005 -0.5047 -1.5026
   32DOPE  H17S 4077   4.395   1.600   4.126 -0.7223 -0.9064 -2.7199
   32DOPE  C218 4078   4.451   1.430   4.243  0.4436 -0.2801 -0.0809
   32DOPE  H18R 4079   4.349   1.403   4.277  0.0568  0.9897 -0.1727
   32DOPE  H18S 4080   4.499   1.493   4.321  2.3161 -0.3123 -1.1383
   32DOPE  H18T 4081   4.508   1.335   4.236 -0.8052 -1.1460  0.9872
   32DOPE   C33 4082   4.200   2.772   3.297  0.0379  0.4690 -0.3055
   32DOPE   H3X 4083   4.135   2.692   3.255 -1.4616  0.1846  2.3374
   32DOPE   H3Y 4084   4.147   2.840   3.367  0.8218 -0.0257  0.7992
   32DOPE   C34 4085   4.298   2.708   3.390  0.2268 -0.2284  0.5469
   32DOPE   H4X 4086   4.355   2.631   3.335  0.4330 -1.8890  2.9179
   32DOPE   H4Y 4087   4.374   2.777   3.434  0.5067  0.1301 -0.4836
   32DOPE   C35 4088   4.228   2.641   3.508 -0.1838 -0.0301  0.6115
   32DOPE   H5X 4089   4.157   2.560   3.480 -0.1199 -0.7555  2.3974
   32DOPE   H5Y 4090   4.161   2.725   3.537 -0.8181 -0.6981  1.1264
   32DOPE   C36 4091   4.318   2.589   3.619 -0.8997  0.0074  0.2046
   32DOPE   H6X 4092   4.259   2.567   3.711  0.0446  2.9650  1.6251
   32DOPE   H6Y 4093   4.375   2.675   3.659 -0.0199 -0.5641  0.2130
   32DOPE   C37 4094   4.410   2.474   3.580  0.0374  1.0668 -0.3623
   32DOPE   H7X 4095   4.478   2.516   3.502  1.7094 -1.8445 -0.6396
   32DOPE   H7Y 4096   4.468   2.447   3.671  1.8030 -0.0142 -1.7351
   32DOPE   C38 4097   4.347   2.345   3.532  0.7200  0.1979 -0.1305
   32DOPE   H8X 4098   4.294   2.362   3.435  1.2316 -0.5590 -0.5522
   32DOPE   H8Y 4099   4.273   2.314   3.609  0.7448 -0.4635 -0.3689
   32DOPE   C39 4100   4.452   2.236   3.502 -0.1635 -0.1637  1.3157
   32DOPE   H9X 4101   4.487   2.239   3.398 -0.7405  2.0181  1.1397
   32DOPE  C310 4102   4.493   2.128   3.568  0.0549  0.4031  0.1448
   32DOPE  H10X 4103   4.559   2.062   3.511 -1.2042  0.7692 -1.8363
   32DOPE  C311 4104   4.461   2.087   3.710  0.7120  0.3667 -0.0047
   32DOPE  H11X 4105   4.548   2.096   3.778  1.6760  0.2824 -1.1900
   32DOPE  H11Y 4106   4.399   2.171   3.748 -0.8412 -0.5002 -0.5333
   32DOPE  C312 4107   4.378   1.962   3.723  0.0109 -0.5764 -0.8521
   32DOPE  H12X 4108   4.440   1.870   3.713  0.6383 -0.1623 -0.7950
   32DOPE  H12Y 4109   4.304   1.952   3.641  0.1768 -0.3423 -1.0307
   32DOPE  C313 4110   4.304   1.948   3.861  0.2605 -0.5739 -0.2227
   32DOPE  H13X 4111   4.233   2.034   3.867  3.0630  1.8228  0.6129
   32DOPE  H13Y 4112   4.232   1.864   3.849 -1.2901  0.6669  0.0055
   32DOPE  C314 4113   4.391   1.912   3.981 -0.0692  0.5925 -0.6017
   32DOPE  H14X 4114   4.478   1.973   4.012  0.3780 -1.1834  1.9502
   32DOPE  H14Y 4115   4.424   1.807   3.970 -1.2354  0.4514 -3.4164
   32DOPE  C315 4116   4.301   1.915   4.106  0.3474  0.3843 -0.1784
   32DOPE  H15X 4117   4.375   1.893   4.186  0.7624 -0.5149 -0.7994
   32DOPE  H15Y 4118   4.230   1.831   4.097  1.5167 -0.5112 -1.3937
   32DOPE  C316 4119   4.229   2.048   4.139  0.3516 -0.3423  0.9161
   32DOPE  H16X 4120   4.158   2.064   4.055  0.3782  1.2365  1.1483
   32DOPE  H16Y 4121   4.304   2.130   4.135  0.5270 -0.5473 -1.2576
   32DOPE  C317 4122   4.167   2.055   4.273  0.5262  0.6546 -0.1484
   32DOPE  H17X 4123   4.079   1.987   4.273  0.8685  0.1894 -1.2618
   32DOPE  H17Y 4124   4.240   2.020   4.349  0.2199 -0.9732 -0.5591
   32DOPE  C318 4125   4.124   2.200   4.310  0.9241  0.2086 -0.0580
   32DOPE  H18X 4126   4.207   2.272   4.329  0.6756  0.0101  1.9356
   32DOPE  H18Y 4127   4.049   2.223   4.231  0.3340  1.0509  0.7319
   32DOPE  H18Z 4128   4.065   2.195   4.404 -1.6448 -2.5906 -1.6653
   33DOPE     N 4129   2.143   1.580   2.825  0.0159 -0.0739 -0.8601
   33DOPE   HN1 4130   2.143   1.681   2.850 -0.8487  0.0216 -1.2314
   33DOPE   HN2 4131   2.233   1.541   2.790  1.7213  1.8203  1.0776
   33DOPE   HN3 4132   2.064   1.575   2.759 -0.2455 -2.6339 -0.4437
   33DOPE   C12 4133   2.117   1.504   2.952  0.6486 -0.1203  0.2906
   33DOPE  H12A 4134   2.067   1.411   2.917  0.7494 -0.3548  0.7563
   33DOPE  H12B 4135   2.050   1.558   3.022  0.1650 -1.7861  1.1800
   33DOPE   C11 4136   2.251   1.466   3.027 -0.1262  0.0547 -1.0813
   33DOPE  H11A 4137   2.237   1.385   3.101  1.3887  0.3528 -0.4504
   33DOPE  H11B 4138   2.280   1.559   3.079 -0.2182 -0.4458 -0.1260
   33DOPE     P 4139   2.398   1.281   2.924 -0.0844  0.3558  0.3210
   33DOPE   O13 4140   2.519   1.281   2.832 -0.1318  0.0520  0.1850
   33DOPE   O14 4141   2.277   1.200   2.892 -0.4048  0.1535  0.1538
   33DOPE   O11 4142   2.441   1.236   3.070  0.3801 -0.0526 -0.4305
   33DOPE   O12 4143   2.348   1.426   2.941 -0.1730 -0.2466  0.3244
   33DOPE    C1 4144   2.527   1.318   3.149  0.1171  0.8745  0.5965
   33DOPE    HA 4145   2.490   1.422   3.165  0.9664  1.0452  1.5531
   33DOPE    HB 4146   2.632   1.321   3.112  0.0259 -0.5661  0.1570
   33DOPE    C2 4147   2.540   1.263   3.296 -0.0361  0.2485 -0.8853
   33DOPE    HS 4148   2.555   1.153   3.295  0.7249  0.3465 -0.6793
   33DOPE   O21 4149   2.435   1.297   3.389 -0.6172 -0.4860  0.4419
   33DOPE   C21 4150   2.341   1.215   3.425 -0.4356  0.1019 -0.0148
   33DOPE   O22 4151   2.315   1.101   3.380  0.3814 -0.0711  0.4066
   33DOPE   C22 4152   2.263   1.281   3.545  0.4644  0.2373 -0.1135
   33DOPE   H2R 4153   2.211   1.374   3.512 -2.7919 -0.2581  3.0259
   33DOPE   H2S 4154   2.324   1.293   3.637 -1.0469 -0.5102  1.0210
   33DOPE    C3 4155   2.672   1.316   3.358  0.1909 -0.2400  0.2880
   33DOPE    HX 4156   2.659   1.425   3.374  0.5059 -0.3237  1.1365
   33DOPE    HY 4157   2.746   1.288   3.280 -2.3222 -0.2581 -2.2521
   33DOPE   O31 4158   2.706   1.242   3.484  0.2370 -0.8045  0.1885
   33DOPE   C31 4159   2.831   1.284   3.515  0.7912 -0.3600 -1.1069
   33DOPE   O32 4160   2.869   1.395   3.486 -0.4965  0.1101 -0.4447
   33DOPE   C32 4161   2.895   1.190   3.618 -0.8344  0.4620  0.3919
   33DOPE   H2X 4162   2.824   1.177   3.703  2.2415  1.7225  3.3853
   33DOPE   H2Y 4163   2.911   1.089   3.574  2.3326 -0.3093  2.8561
   33DOPE   C23 4164   2.155   1.182   3.589 -0.3188  0.0734 -0.6208
   33DOPE   H3R 4165   2.196   1.092   3.639 -2.5745  0.5142  2.2436
   33DOPE   H3S 4166   2.099   1.137   3.504 -1.2000 -0.1002  0.0418
   33DOPE   C24 4167   2.055   1.240   3.695  0.2982 -0.0280 -0.0794
   33DOPE   H4R 4168   1.988   1.304   3.635 -1.1338 -0.2222  1.2667
   33DOPE   H4S 4169   2.113   1.302   3.766  0.7522 -0.4095 -0.1055
   33DOPE   C25 4170   1.970   1.139   3.771  0.1080  0.0295  0.2067
   33DOPE   H5R 4171   2.031   1.056   3.811 -0.5207 -0.6559 -0.2324
   33DOPE   H5S 4172   1.898   1.100   3.696  1.3711  1.2966 -1.7650
   33DOPE   C26 4173   1.884   1.204   3.880 -0.9089 -0.0989  0.0888
   33DOPE   H6R 4174   1.806   1.130   3.907 -2.7021  1.9148  0.7231
   33DOPE   H6S 4175   1.829   1.292   3.841  2.0604  1.1106 -1.7299
   33DOPE   C27 4176   1.964   1.238   4.009 -0.2258 -0.1635 -0.1631
   33DOPE   H7R 4177   1.903   1.301   4.077 -0.4292  0.3759 -0.8304
   33DOPE   H7S 4178   2.062   1.284   3.985 -0.2334  0.3864  0.8111
   33DOPE   C28 4179   1.989   1.102   4.084 -0.1129  0.0941  0.3281
   33DOPE   H8R 4180   2.029   1.022   4.019  2.6936  0.6788  1.1838
   33DOPE   H8S 4181   1.884   1.082   4.114 -0.2776  0.2700 -0.1344
   33DOPE   C29 4182   2.060   1.112   4.213 -0.4923  0.1078  0.2188
   33DOPE   H9R 4183   1.994   1.155   4.289 -0.5370  4.1767 -1.8766
   33DOPE  C210 4184   2.185   1.078   4.226 -0.4610  0.2281 -0.7927
   33DOPE  H10R 4185   2.240   1.115   4.314  0.6863 -1.8181 -0.5820
   33DOPE  C211 4186   2.276   1.041   4.113  0.5761 -0.2304  0.7287
   33DOPE  H11R 4187   2.236   0.950   4.063  2.4242 -1.4550  1.4090
   33DOPE  H11S 4188   2.370   1.006   4.161 -0.1040 -1.0683  1.4991
   33DOPE  C212 4189   2.319   1.146   4.007  0.0001  0.1919  0.4860
   33DOPE  H12R 4190   2.226   1.170   3.951  0.7217  0.9022 -0.4495
   33DOPE  H12S 4191   2.397   1.105   3.939 -0.5215  0.5933 -0.3821
   33DOPE  C213 4192   2.382   1.272   4.076  0.1457 -0.2786 -0.0498
   33DOPE  H13R 4193   2.444   1.237   4.161  0.7951 -2.1500 -1.2179
   33DOPE  H13S 4194   2.301   1.334   4.119  0.3471  0.0600 -0.1547
   33DOPE  C214 4195   2.447   1.346   3.961 -0.3282  0.2800 -0.5300
   33DOPE  H14R 4196   2.364   1.352   3.886  1.6591  0.9703 -2.8233
   33DOPE  H14S 4197   2.528   1.296   3.904 -1.5749  0.8652 -2.9604
   33DOPE  C215 4198   2.471   1.493   3.990 -0.2159 -0.2443 -0.2624
   33DOPE  H15R 4199   2.538   1.491   4.079  0.0809 -2.0579 -0.4852
   33DOPE  H15S 4200   2.375   1.539   4.022 -0.4624 -0.0654 -1.2309
   33DOPE  C216 4201   2.530   1.564   3.866  0.0162  0.4166  0.8645
   33DOPE  H16R 4202   2.460   1.550   3.782 -0.6935  1.8906  1.1734
   33DOPE  H16S 4203   2.629   1.522   3.837 -0.3436 -0.9262  1.5023
   33DOPE  C217 4204   2.553   1.711   3.885 -0.4059 -0.2070 -0.1318
   33DOPE  H17R 4205   2.613   1.721   3.978  0.8293 -0.6200 -0.8524
   33DOPE  H17S 4206   2.457   1.765   3.897  0.0952  0.0887  3.9928
   33DOPE  C218 4207   2.640   1.777   3.771  1.0068  0.1111  0.0028
   33DOPE  H18R 4208   2.732   1.715   3.764  0.8281 -0.0602 -1.0334
   33DOPE  H18S 4209   2.666   1.879   3.804 -0.5842  1.0085 -1.3878
   33DOPE  H18T 4210   2.578   1.768   3.679  2.5193 -0.3914 -1.0137
   33DOPE   C33 4211   3.035   1.237   3.677  0.6080 -0.2977  0.0618
   33DOPE   H3X 4212   3.008   1.334   3.724 -2.0592 -1.2492  0.7118
   33DOPE   H3Y 4213   3.096   1.250   3.585 -0.8321  1.2612 -0.7361
   33DOPE   C34 4214   3.089   1.141   3.778  0.0207 -0.3983 -0.3518
   33DOPE   H4X 4215   3.090   1.042   3.729  0.8635 -0.5536 -0.0413
   33DOPE   H4Y 4216   3.193   1.175   3.799  0.6192 -1.3599 -1.6091
   33DOPE   C35 4217   3.004   1.123   3.898  0.6770  0.8914  0.0737
   33DOPE   H5X 4218   3.016   1.015   3.924  0.0462  0.3091 -1.8825
   33DOPE   H5Y 4219   2.897   1.132   3.870  1.3695  1.9752 -2.5817
   33DOPE   C36 4220   3.061   1.198   4.015 -0.2832  0.0343 -0.1592
   33DOPE   H6X 4221   3.070   1.308   4.002  2.6733 -0.0177  0.6761
   33DOPE   H6Y 4222   3.168   1.168   4.014 -0.6512 -1.3736 -1.2263
   33DOPE   C37 4223   2.978   1.178   4.140 -0.2992  0.0384 -0.2466
   33DOPE   H7X 4224   2.871   1.185   4.111  0.2877  2.0894 -2.2848
   33DOPE   H7Y 4225   2.993   1.076   4.179 -0.3559  0.1189 -0.0158
   33DOPE   C38 4226   3.017   1.279   4.250 -0.1594  0.0754  0.3510
   33DOPE   H8X 4227   2.938   1.282   4.328 -0.4878 -1.8469  0.1245
   33DOPE   H8Y 4228   3.029   1.383   4.213  0.6380 -0.4871 -1.0172
   33DOPE   C39 4229   3.147   1.245   4.311 -0.4488 -0.0232  0.0978
   33DOPE   H9X 4230   3.218   1.216   4.232 -0.0527 -1.4360  0.9267
   33DOPE  C310 4231   3.194   1.251   4.436  0.0596  0.5038 -0.1387
   33DOPE  H10X 4232   3.302   1.232   4.451 -0.2312 -0.6276  0.6488
   33DOPE  C311 4233   3.117   1.286   4.560 -0.3504 -0.3627 -0.3932
   33DOPE  H11X 4234   3.008   1.265   4.547 -0.5325 -0.2959  0.9470
   33DOPE  H11Y 4235   3.151   1.216   4.639  0.3478  0.8987  0.4494
   33DOPE  C312 4236   3.149   1.428   4.608 -0.0880  0.5493  0.4415
   33DOPE  H12X 4237   3.115   1.511   4.543  0.8418  0.7690  0.2272
   33DOPE  H12Y 4238   3.260   1.433   4.610  0.1573 -2.8301  0.8908
   33DOPE  C313 4239   3.098   1.450   4.755 -0.3094  0.2530 -0.2379
   33DOPE  H13X 4240   3.100   1.365   4.827  0.7860  0.9429  0.5810
   33DOPE  H13Y 4241   3.161   1.536   4.787 -1.3400  0.5932  0.9616
   33DOPE  C314 4242   2.951   1.491   4.737  0.7728 -0.6655 -0.4830
   33DOPE  H14X 4243   2.890   1.403   4.707 -1.7481  0.0606  2.0329
   33DOPE  H14Y 4244   2.948   1.581   4.672  2.1481  0.9234  1.5257
   33DOPE  C315 4245   2.882   1.534   4.866  0.6480 -0.1577 -0.2344
   33DOPE  H15X 4246   2.874   1.449   4.936  0.7135 -0.3140 -0.4144
   33DOPE  H15Y 4247   2.775   1.551   4.842  0.3699  2.6052  2.4359
   33DOPE  C316 4248   2.937   1.661   4.934 -0.0394  0.1126 -0.3165
   33DOPE  H16X 4249   2.952   1.745   4.863 -1.5141  0.5836 -0.0954
   33DOPE  H16Y 4250   3.036   1.643   4.981 -0.2906 -0.6576 -0.0783
   33DOPE  C317 4251   2.847   1.722   5.043 -0.1632  0.5385  0.4269
   33DOPE  H17X 4252   2.885   1.823   5.068  2.3840 -0.1046 -0.5381
   33DOPE  H17Y 4253   2.747   1.738   4.999  0.0315 -0.3397 -0.3771
   33DOPE  C318 4254   2.846   1.639   5.174 -0.1706  0.0813  0.3686
   33DOPE  H18X 4255   2.861   1.530   5.155  0.7472 -0.2484  2.5988
   33DOPE  H18Y 4256   2.939   1.659   5.231 -0.2315  0.8860  0.1896
   33DOPE  H18Z 4257   2.753   1.647   5.233 -0.5377  0.3960 -0.2409
   34DOPE     N 4258   3.077   3.792   2.967  0.6801 -0.1198 -0.6428
   34DOPE   HN1 4259   3.160   3.826   2.915  0.1044 -0.8345 -2.0612
   34DOPE   HN2 4260   3.029   3.715   2.917  0.8657 -0.7876  0.1877
   34DOPE   HN3 4261   3.017   3.871   3.000 -0.2091 -0.7886 -0.6234
   34DOPE   C12 4262   3.126   3.732   3.102  0.2722 -0.4024  0.1247
   34DOPE  H12A 4263   3.177   3.809   3.164  0.5435 -1.2046  0.9224
   34DOPE  H12B 4264   3.203   3.659   3.070 -0.0161 -0.3749 -0.6412
   34DOPE   C11 4265   3.006   3.661   3.180  0.6360  0.1060  0.4512
   34DOPE  H11A 4266   3.036   3.636   3.284  1.1200  1.9469  0.7875
   34DOPE  H11B 4267   2.981   3.566   3.128 -1.4309  0.2413  1.1093
   34DOPE     P 4268   2.877   3.890   3.250 -0.1625 -0.7536  0.1582
   34DOPE   O13 4269   2.735   3.929   3.259 -0.1675  0.0302  0.2428
   34DOPE   O14 4270   2.964   3.973   3.163  0.2449 -0.1315 -0.1601
   34DOPE   O11 4271   2.938   3.876   3.392  0.1617  0.0033 -0.6278
   34DOPE   O12 4272   2.885   3.742   3.190  1.3579  0.8405 -0.3559
   34DOPE    C1 4273   3.023   3.967   3.457 -0.0153  0.1333 -0.5935
   34DOPE    HA 4274   3.074   4.031   3.381 -0.5990  0.2400 -0.9021
   34DOPE    HB 4275   3.107   3.908   3.501  0.2438  1.2864  0.5296
   34DOPE    C2 4276   2.945   4.046   3.567  0.7929 -0.5066 -0.7891
   34DOPE    HS 4277   2.869   4.118   3.529  1.6393  2.1835  2.1687
   34DOPE   O21 4278   3.040   4.124   3.645  0.4211 -0.0274 -0.1375
   34DOPE   C21 4279   2.989   4.237   3.700 -0.4894 -0.5143 -0.7816
   34DOPE   O22 4280   2.874   4.266   3.690  0.1541 -0.4653  0.0629
   34DOPE   C22 4281   3.099   4.322   3.778  0.2956  0.5085  0.4839
   34DOPE   H2R 4282   3.158   4.362   3.692 -1.3381 -1.5668 -1.7444
   34DOPE   H2S 4283   3.171   4.258   3.834 -0.4813 -0.8837 -0.0598
   34DOPE    C3 4284   2.872   3.944   3.670 -0.0095 -0.4186  0.2206
   34DOPE    HX 4285   2.940   3.865   3.709 -0.3407 -0.9558 -0.2816
   34DOPE    HY 4286   2.793   3.894   3.611 -0.7952 -0.5609  1.3594
   34DOPE   O31 4287   2.813   4.012   3.785 -0.2742 -0.2275 -0.5094
   34DOPE   C31 4288   2.680   4.023   3.784 -0.7155  0.1509  0.3298
   34DOPE   O32 4289   2.609   3.958   3.708  0.3486 -0.3766  0.1842
   34DOPE   C32 4290   2.638   4.113   3.895 -0.4231  0.4785  0.6506
   34DOPE   H2X 4291   2.690   4.079   3.988 -0.3414 -0.0218  0.4235
   34DOPE   H2Y 4292   2.684   4.212   3.870  1.2624 -0.1826  0.9706
   34DOPE   C23 4293   3.035   4.431   3.867 -0.2385  0.2945 -0.0345
   34DOPE   H3R 4294   2.955   4.489   3.817 -0.6087 -0.4256 -0.2920
   34DOPE   H3S 4295   3.115   4.508   3.879 -0.9695  1.0670 -0.0742
   34DOPE   C24 4296   2.993   4.380   4.004  0.0327 -0.0165 -0.0981
   34DOPE   H4R 4297   3.066   4.340   4.078 -0.7354  1.9947  1.8314
   34DOPE   H4S 4298   2.926   4.293   3.987  0.4338 -0.1991 -0.7860
   34DOPE   C25 4299   2.911   4.480   4.083  0.3596 -0.7408  0.0867
   34DOPE   H5R 4300   2.849   4.538   4.012  0.5607 -0.3707  0.2157
   34DOPE   H5S 4301   2.974   4.562   4.123 -1.5083  0.5169  0.5953
   34DOPE   C26 4302   2.834   4.414   4.208  0.0407  0.3321  0.0969
   34DOPE   H6R 4303   2.838   4.492   4.287 -1.6685  1.3580 -0.7726
   34DOPE   H6S 4304   2.888   4.323   4.242  0.7775  0.7770  0.1485
   34DOPE   C27 4305   2.693   4.377   4.172 -0.0453 -0.3523  0.9367
   34DOPE   H7R 4306   2.634   4.321   4.247 -0.4226  2.2790  2.7197
   34DOPE   H7S 4307   2.694   4.318   4.077 -1.4032 -0.3471  0.9088
   34DOPE   C28 4308   2.606   4.504   4.146 -0.2790 -0.6065 -0.1609
   34DOPE   H8R 4309   2.652   4.573   4.072  2.3554 -0.0866  1.8135
   34DOPE   H8S 4310   2.619   4.560   4.241 -0.0982 -1.7108  0.4774
   34DOPE   C29 4311   2.464   4.476   4.115  0.2435 -0.3753 -0.5849
   34DOPE   H9R 4312   2.444   4.475   4.007  2.9139 -2.0431 -1.1573
   34DOPE  C210 4313   2.360   4.465   4.196  0.7596  0.2965 -0.5656
   34DOPE  H10R 4314   2.261   4.450   4.150  0.9509 -1.0667 -0.5726
   34DOPE  C211 4315   2.370   4.469   4.342 -0.5042 -0.2625 -0.2009
   34DOPE  H11R 4316   2.478   4.459   4.367 -0.6515  0.6087  0.9051
   34DOPE  H11S 4317   2.317   4.383   4.389 -2.7955  0.7724 -0.7765
   34DOPE  C212 4318   2.321   4.594   4.412  0.4463 -0.3138 -0.5579
   34DOPE  H12R 4319   2.211   4.603   4.401  0.4074 -0.0302  0.0694
   34DOPE  H12S 4320   2.362   4.687   4.366 -2.1445  0.4686 -1.4164
   34DOPE  C213 4321   2.339   4.590   4.562 -0.9010  0.1099  0.7698
   34DOPE  H13R 4322   2.442   4.557   4.585 -0.9442  0.1045  0.9551
   34DOPE  H13S 4323   2.278   4.501   4.588 -1.3646 -0.1430 -1.0312
   34DOPE  C214 4324   2.282   4.713   4.633 -0.3910  0.4048 -0.5136
   34DOPE  H14R 4325   2.171   4.710   4.623 -0.6145  1.2364  1.3034
   34DOPE  H14S 4326   2.322   4.800   4.577 -0.6094  0.7637 -0.1180
   34DOPE  C215 4327   2.315   4.730   4.783  0.8373 -0.0776  0.1462
   34DOPE  H15R 4328   2.425   4.749   4.787  0.8415  0.0022 -0.2226
   34DOPE  H15S 4329   2.309   4.631   4.832 -1.0475 -1.2915 -2.3123
   34DOPE  C216 4330   2.230   4.832   4.857 -0.3899  0.6964 -0.3368
   34DOPE  H16R 4331   2.124   4.803   4.845 -0.0301 -1.2743  0.9206
   34DOPE  H16S 4332   2.246   4.930   4.807 -0.9483  0.6738 -0.5695
   34DOPE  C217 4333   2.260   4.853   5.006 -0.2685 -0.8863  0.2026
   34DOPE  H17R 4334   2.361   4.899   5.007 -2.2469  4.3309 -1.9425
   34DOPE  H17S 4335   2.255   4.751   5.048 -0.8095 -1.1126 -0.3893
   34DOPE  C218 4336   2.161   4.951   5.077 -0.9225 -0.5122  0.0662
   34DOPE  H18R 4337   2.153   5.036   5.006  0.7830 -1.6471 -1.5848
   34DOPE  H18S 4338   2.213   4.991   5.167 -1.7698 -1.9668  1.2427
   34DOPE  H18T 4339   2.067   4.912   5.119 -0.6743 -1.4087 -0.1969
   34DOPE   C33 4340   2.483   4.118   3.913 -0.0848  0.2455 -0.0722
   34DOPE   H3X 4341   2.439   4.137   3.813 -0.5323  0.8181  0.2265
   34DOPE   H3Y 4342   2.464   4.218   3.959 -0.3534  1.3718 -2.4403
   34DOPE   C34 4343   2.425   4.003   3.993  0.0291 -0.0750  0.4034
   34DOPE   H4X 4344   2.472   3.910   3.955  0.0242 -1.0658  2.6433
   34DOPE   H4Y 4345   2.465   4.002   4.097  0.7519 -0.5759  0.1312
   34DOPE   C35 4346   2.274   4.009   4.013  0.3740  0.2901 -0.1466
   34DOPE   H5X 4347   2.230   4.014   3.911 -0.3520  0.7985  0.1860
   34DOPE   H5Y 4348   2.251   4.091   4.085  2.7115  0.1511  0.8550
   34DOPE   C36 4349   2.217   3.883   4.082 -0.3835 -1.0266 -0.1823
   34DOPE   H6X 4350   2.275   3.860   4.173 -1.7143 -2.3609  0.3662
   34DOPE   H6Y 4351   2.223   3.800   4.009  1.2044 -0.6643 -0.4966
   34DOPE   C37 4352   2.079   3.927   4.132  0.6437 -0.3007 -0.1649
   34DOPE   H7X 4353   2.092   4.001   4.214 -2.0182 -1.5043  1.4595
   34DOPE   H7Y 4354   2.020   3.967   4.047 -0.0173 -0.8860  0.0131
   34DOPE   C38 4355   1.998   3.805   4.183  0.0319  0.7860 -0.1921
   34DOPE   H8X 4356   2.053   3.774   4.275 -0.3830  2.9915  0.8567
   34DOPE   H8Y 4357   2.003   3.719   4.112  1.0585 -0.3440  1.1872
   34DOPE   C39 4358   1.856   3.847   4.212 -0.0116 -0.2711 -0.1601
   34DOPE   H9X 4359   1.801   3.901   4.135 -0.6059  1.4039  1.3765
   34DOPE  C310 4360   1.799   3.862   4.336  0.3788 -0.2539 -0.0956
   34DOPE  H10X 4361   1.697   3.905   4.331  0.3073 -0.5161 -1.4789
   34DOPE  C311 4362   1.850   3.831   4.467 -0.0127 -0.2700 -0.0817
   34DOPE  H11X 4363   1.959   3.847   4.476 -0.4012  2.4820  1.0813
   34DOPE  H11Y 4364   1.805   3.909   4.534 -1.4023  0.4581 -1.7881
   34DOPE  C312 4365   1.811   3.684   4.521 -0.5666  0.2995 -0.3023
   34DOPE  H12X 4366   1.813   3.617   4.433  1.8979  0.4171 -0.4033
   34DOPE  H12Y 4367   1.707   3.684   4.559  0.0300  0.7412  1.4482
   34DOPE  C313 4368   1.916   3.620   4.620  0.0449  0.5017 -0.0515
   34DOPE  H13X 4369   2.016   3.652   4.584  0.9544  0.8235  2.5237
   34DOPE  H13Y 4370   1.901   3.672   4.717 -0.6821 -2.2901  1.4417
   34DOPE  C314 4371   1.880   3.472   4.637  0.4003  0.3520 -0.3050
   34DOPE  H14X 4372   1.875   3.417   4.541 -3.4776  1.8156 -1.1151
   34DOPE  H14Y 4373   1.779   3.465   4.682  1.0610  2.0748  1.6029
   34DOPE  C315 4374   1.962   3.398   4.744 -0.0341  0.6997 -0.0939
   34DOPE  H15X 4375   1.901   3.384   4.836 -1.5665  0.0629 -1.1559
   34DOPE  H15Y 4376   2.053   3.460   4.760 -0.2935  0.4563  2.8994
   34DOPE  C316 4377   2.015   3.262   4.707 -0.0403  0.9284  0.6821
   34DOPE  H16X 4378   2.078   3.252   4.617  1.7095 -1.3960  2.0570
   34DOPE  H16Y 4379   1.924   3.199   4.698 -1.2595  2.4705  1.6675
   34DOPE  C317 4380   2.094   3.205   4.828 -0.5637  0.0565 -0.6953
   34DOPE  H17X 4381   2.042   3.231   4.923  1.1030  1.6335 -0.1470
   34DOPE  H17Y 4382   2.099   3.094   4.821 -1.9969 -0.0044 -1.1970
   34DOPE  C318 4383   2.245   3.246   4.820  0.1185  0.0783 -0.1441
   34DOPE  H18X 4384   2.316   3.200   4.891  1.1918  1.8627  0.0098
   34DOPE  H18Y 4385   2.281   3.227   4.716  3.2955 -2.6333  1.2580
   34DOPE  H18Z 4386   2.247   3.357   4.829 -0.2113  0.3638 -2.6935
   35DOPE     N 4387   5.508   1.236   3.040 -0.0515  0.0432 -0.4203
   35DOPE   HN1 4388   5.569   1.175   3.098 -1.0393  1.7892  2.6733
   35DOPE   HN2 4389   5.422   1.183   3.015 -0.0222 -0.3013  0.1715
   35DOPE   HN3 4390   5.539   1.264   2.945 -3.6277  0.0292 -1.7365
   35DOPE   C12 4391   5.473   1.354   3.129  0.6757 -0.0784  0.3417
   35DOPE  H12A 4392   5.574   1.389   3.160  0.4508 -0.2065  1.2600
   35DOPE  H12B 4393   5.416   1.320   3.218  1.0004 -0.2821  0.4726
   35DOPE   C11 4394   5.385   1.453   3.050 -0.3191 -0.1578  0.3188
   35DOPE  H11A 4395   5.434   1.496   2.961  0.3487  0.3660  0.9249
   35DOPE  H11B 4396   5.374   1.548   3.107 -2.8787  0.9580 -1.8638
   35DOPE     P 4397   5.127   1.412   3.121  0.2726 -0.2325  0.0534
   35DOPE   O13 4398   5.053   1.288   3.110 -0.0627  0.0494  0.0153
   35DOPE   O14 4399   5.056   1.536   3.081  0.4735 -0.2684 -0.2480
   35DOPE   O11 4400   5.189   1.433   3.267 -0.6055  0.5737 -0.1586
   35DOPE   O12 4401   5.255   1.398   3.028 -0.1305  0.1208 -0.1989
   35DOPE    C1 4402   5.179   1.566   3.328  0.6177  0.0704 -0.1801
   35DOPE    HA 4403   5.086   1.624   3.306  1.7566  1.4478 -1.5662
   35DOPE    HB 4404   5.260   1.633   3.292  1.1888  0.6147  1.9486
   35DOPE    C2 4405   5.191   1.571   3.490  0.3191 -0.2888 -0.0901
   35DOPE    HS 4406   5.202   1.679   3.516 -1.6587  0.0413 -0.4093
   35DOPE   O21 4407   5.303   1.488   3.524  0.2706  0.0416 -0.2601
   35DOPE   C21 4408   5.411   1.552   3.549 -0.5220  0.0806 -0.0458
   35DOPE   O22 4409   5.444   1.665   3.520 -0.4091 -0.1317  0.1207
   35DOPE   C22 4410   5.506   1.460   3.627  0.3115 -0.7428 -0.1248
   35DOPE   H2R 4411   5.538   1.382   3.556  0.2752 -1.3408  0.5022
   35DOPE   H2S 4412   5.452   1.406   3.708  0.8507  0.1379  0.8508
   35DOPE    C3 4413   5.073   1.516   3.577  0.1775  0.0978 -0.5232
   35DOPE    HX 4414   5.101   1.521   3.685  1.2766 -1.1353 -0.7216
   35DOPE    HY 4415   5.070   1.408   3.551  2.1713 -0.1059 -0.0834
   35DOPE   O31 4416   4.953   1.590   3.535 -0.0614 -0.2568  0.6014
   35DOPE   C31 4417   4.924   1.695   3.614 -0.4341 -0.0441  0.0007
   35DOPE   O32 4418   4.982   1.715   3.719  0.1706 -0.3964 -0.5336
   35DOPE   C32 4419   4.822   1.790   3.545  0.2604 -0.6083  0.2673
   35DOPE   H2X 4420   4.862   1.893   3.556 -0.7140 -0.3226  1.2647
   35DOPE   H2Y 4421   4.821   1.766   3.436 -1.1644 -2.2785  0.5885
   35DOPE   C23 4422   5.629   1.535   3.686 -0.2727 -0.2031  0.3453
   35DOPE   H3R 4423   5.588   1.612   3.755 -1.2639 -1.9078  1.7400
   35DOPE   H3S 4424   5.669   1.595   3.601 -1.4512  0.9996  0.6029
   35DOPE   C24 4425   5.729   1.439   3.746  0.1730 -0.0451 -0.2283
   35DOPE   H4R 4426   5.776   1.369   3.674  1.4507 -1.5126  1.9290
   35DOPE   H4S 4427   5.680   1.376   3.824  2.5830 -1.4460  0.2473
   35DOPE   C25 4428   5.831   1.514   3.832 -0.1616 -0.2544 -0.1581
   35DOPE   H5R 4429   5.877   1.595   3.772  1.9351 -0.1164  1.5315
   35DOPE   H5S 4430   5.910   1.438   3.847 -1.3757 -1.9733 -2.0085
   35DOPE   C26 4431   5.775   1.572   3.965  0.0364 -0.2406 -0.9625
   35DOPE   H6R 4432   5.706   1.497   4.009 -0.3757  0.4940 -0.3551
   35DOPE   H6S 4433   5.708   1.657   3.942 -1.8229 -1.3213  0.1523
   35DOPE   C27 4434   5.881   1.612   4.072  0.3864 -0.6263 -0.0974
   35DOPE   H7R 4435   5.930   1.697   4.020 -2.0058  1.5762  1.0421
   35DOPE   H7S 4436   5.952   1.530   4.097 -0.1746 -0.6597  1.5161
   35DOPE   C28 4437   5.824   1.677   4.207 -0.0210 -0.0820  0.7600
   35DOPE   H8R 4438   5.893   1.758   4.238  0.3120  0.5572 -1.4960
   35DOPE   H8S 4439   5.819   1.599   4.286 -1.1088 -0.0149  0.7635
   35DOPE   C29 4440   5.679   1.727   4.202  0.2910  0.3082 -0.4622
   35DOPE   H9R 4441   5.613   1.649   4.162  0.5067  0.4976 -1.2179
   35DOPE  C210 4442   5.621   1.848   4.226 -0.0166  0.0059  0.3386
   35DOPE  H10R 4443   5.515   1.871   4.209  0.1778  0.5254 -0.1581
   35DOPE  C211 4444   5.703   1.974   4.252 -0.2229 -0.1503 -0.2543
   35DOPE  H11R 4445   5.805   1.952   4.289 -0.2825 -0.3561 -0.2129
   35DOPE  H11S 4446   5.655   2.030   4.335  0.7160 -0.7651  0.7163
   35DOPE  C212 4447   5.715   2.064   4.122  0.3756  0.7801  0.3447
   35DOPE  H12R 4448   5.777   2.152   4.149  1.2100  0.7255 -1.2885
   35DOPE  H12S 4449   5.613   2.094   4.090  0.8312 -0.1336 -2.2686
   35DOPE  C213 4450   5.767   1.994   3.995 -0.8123 -0.2430  0.4828
   35DOPE  H13R 4451   5.695   1.921   3.954  0.8477 -0.6656 -1.8189
   35DOPE  H13S 4452   5.864   1.942   4.009  0.1445  1.1861 -0.4759
   35DOPE  C214 4453   5.786   2.102   3.888  0.1655  1.3027 -0.0194
   35DOPE  H14R 4454   5.880   2.161   3.901  0.8399  0.0614  0.9560
   35DOPE  H14S 4455   5.704   2.176   3.899  0.5756  1.7075  0.3864
   35DOPE  C215 4456   5.782   2.049   3.739 -0.5471  0.4154  0.1314
   35DOPE  H15R 4457   5.755   2.135   3.675  0.9635  1.8639  1.3510
   35DOPE  H15S 4458   5.705   1.969   3.733  1.0337 -1.0517 -2.4154
   35DOPE  C216 4459   5.916   1.996   3.691  0.4498  0.7681  0.1537
   35DOPE  H16R 4460   5.922   1.898   3.744 -0.6574  0.6630  0.1071
   35DOPE  H16S 4461   6.001   2.060   3.723  1.1329  0.3656 -0.8137
   35DOPE  C217 4462   5.922   1.963   3.542 -0.2418  0.9483 -0.6829
   35DOPE  H17R 4463   5.904   2.057   3.486  0.9814  1.8675  0.3831
   35DOPE  H17S 4464   5.837   1.900   3.510  0.1711 -0.4923  0.9198
   35DOPE  C218 4465   6.060   1.909   3.505  0.1042 -0.5622  0.1514
   35DOPE  H18R 4466   6.066   1.886   3.396  0.0017 -2.7573  0.5773
   35DOPE  H18S 4467   6.080   1.819   3.566  0.6923 -1.1418 -0.8639
   35DOPE  H18T 4468   6.138   1.983   3.532  1.6980 -0.7506 -3.3489
   35DOPE   C33 4469   4.677   1.771   3.598 -0.8721 -0.2269 -0.3967
   35DOPE   H3X 4470   4.617   1.860   3.570  1.3115  1.4791  0.1316
   35DOPE   H3Y 4471   4.673   1.782   3.709  1.9461  3.0950 -0.4462
   35DOPE   C34 4472   4.604   1.646   3.555 -0.1944 -0.2525  0.2159
   35DOPE   H4X 4473   4.494   1.666   3.554 -0.2337 -0.3630  1.0706
   35DOPE   H4Y 4474   4.633   1.625   3.450  0.6693  3.2137 -0.3862
   35DOPE   C35 4475   4.633   1.536   3.657  0.0340 -0.2277  0.3120
   35DOPE   H5X 4476   4.599   1.573   3.756 -1.7518  1.2937 -0.7913
   35DOPE   H5Y 4477   4.742   1.522   3.645 -0.2249 -0.9307 -1.6843
   35DOPE   C36 4478   4.557   1.410   3.614  0.3833 -0.3892  0.4194
   35DOPE   H6X 4479   4.600   1.366   3.522  0.1732 -2.2407  1.1498
   35DOPE   H6Y 4480   4.453   1.447   3.600  0.6542  0.8338  1.3776
   35DOPE   C37 4481   4.566   1.288   3.704  0.0226  0.7734 -0.4004
   35DOPE   H7X 4482   4.510   1.302   3.798  1.4676 -1.2923  0.8502
   35DOPE   H7Y 4483   4.505   1.209   3.655  1.0243  1.9587 -3.8984
   35DOPE   C38 4484   4.710   1.255   3.738  0.6869 -0.3245 -0.0127
   35DOPE   H8X 4485   4.708   1.185   3.824  0.5173  1.7605  1.7631
   35DOPE   H8Y 4486   4.759   1.346   3.779 -0.7535 -0.2864  1.7230
   35DOPE   C39 4487   4.797   1.201   3.627 -0.0052 -0.4478  0.2798
   35DOPE   H9X 4488   4.795   1.265   3.538 -2.2933 -1.1887 -0.2496
   35DOPE  C310 4489   4.871   1.093   3.622  0.3248 -0.5434 -0.0980
   35DOPE  H10X 4490   4.919   1.078   3.524 -0.1198  1.6379 -0.7086
   35DOPE  C311 4491   4.889   0.985   3.724 -0.5984  0.2021 -0.2392
   35DOPE  H11X 4492   4.794   0.940   3.762  0.6808 -2.3115  0.2408
   35DOPE  H11Y 4493   4.939   0.898   3.676 -1.2914  0.8223 -2.1665
   35DOPE  C312 4494   4.970   1.032   3.854  0.2420  0.6092  0.3608
   35DOPE  H12X 4495   4.905   1.107   3.903 -2.3739 -1.3484  0.1087
   35DOPE  H12Y 4496   5.063   1.090   3.833 -0.9634  2.7278  0.6138
   35DOPE  C313 4497   4.996   0.919   3.959 -0.1068  0.2004  0.1908
   35DOPE  H13X 4498   4.901   0.876   3.995 -0.1644  0.1863  0.0236
   35DOPE  H13Y 4499   5.055   0.838   3.911 -0.7693 -2.0882  2.9898
   35DOPE  C314 4500   5.075   0.977   4.078  0.0255 -0.4673 -0.0507
   35DOPE  H14X 4501   5.181   0.987   4.046 -0.6337 -1.8150 -2.9703
   35DOPE  H14Y 4502   5.083   0.895   4.152 -0.7189 -1.5636 -1.1503
   35DOPE  C315 4503   5.023   1.103   4.149  0.6244  0.3753 -0.5723
   35DOPE  H15X 4504   5.011   1.194   4.086 -0.6448  1.0870  0.6134
   35DOPE  H15Y 4505   5.093   1.126   4.232 -1.9493 -0.7065  2.0843
   35DOPE  C316 4506   4.897   1.058   4.224  0.3899  0.7762  0.1688
   35DOPE  H16X 4507   4.923   0.966   4.281  0.5482 -0.0567 -1.1862
   35DOPE  H16Y 4508   4.817   1.022   4.156  1.1153  0.6549 -0.6355
   35DOPE  C317 4509   4.829   1.156   4.323 -0.2689 -0.0260 -0.6821
   35DOPE  H17X 4510   4.891   1.171   4.414 -1.9089  0.1438  0.4488
   35DOPE  H17Y 4511   4.808   1.256   4.279 -0.9137  0.7443  1.2785
   35DOPE  C318 4512   4.693   1.108   4.366  0.6057  1.2418  0.0825
   35DOPE  H18X 4513   4.714   1.006   4.403 -1.4732  1.1491  1.1218
   35DOPE  H18Y 4514   4.660   1.180   4.444 -0.4265  1.7861 -0.8226
   35DOPE  H18Z 4515   4.617   1.097   4.286 -1.5167  0.6151  2.0894
   36DOPE     N 4516   5.059   3.849   3.038  0.6236 -0.4464 -0.2897
   36DOPE   HN1 4517   5.039   3.904   2.952 -2.9677 -0.4780  0.3553
   36DOPE   HN2 4518   5.125   3.904   3.097 -0.6076  1.1851 -0.3620
   36DOPE   HN3 4519   5.091   3.752   3.020 -1.1265 -1.6901  2.6198
   36DOPE   C12 4520   4.925   3.828   3.103 -0.0614  0.5071  0.0015
   36DOPE  H12A 4521   4.869   3.921   3.081 -1.3629 -0.3661 -0.5170
   36DOPE  H12B 4522   4.931   3.818   3.214  3.1680 -1.3624 -0.2050
   36DOPE   C11 4523   4.854   3.699   3.043 -0.2197  0.0723 -0.3673
   36DOPE  H11A 4524   4.853   3.718   2.934  1.1150 -0.7373 -0.5377
   36DOPE  H11B 4525   4.751   3.705   3.083  0.2292  1.4996  0.6962
   36DOPE     P 4526   4.862   3.491   3.197 -0.0290  0.0199  0.0033
   36DOPE   O13 4527   4.894   3.349   3.176 -0.0496 -0.1827  0.0826
   36DOPE   O14 4528   4.722   3.528   3.225 -0.2847 -0.3897  0.1720
   36DOPE   O11 4529   4.944   3.545   3.322  0.9901  0.0156  0.0814
   36DOPE   O12 4530   4.929   3.578   3.079  0.2047 -0.0625  0.1822
   36DOPE    C1 4531   5.088   3.530   3.317  0.2836 -0.6724 -0.3244
   36DOPE    HA 4532   5.134   3.604   3.248  1.9315  0.2167  1.6343
   36DOPE    HB 4533   5.126   3.427   3.298  1.6579 -0.2787  0.1675
   36DOPE    C2 4534   5.141   3.562   3.462  0.2065 -0.0842 -0.4797
   36DOPE    HS 4535   5.134   3.668   3.493 -1.2235  0.0618 -1.2121
   36DOPE   O21 4536   5.275   3.513   3.456  0.1915 -0.2925 -0.2096
   36DOPE   C21 4537   5.362   3.593   3.391  0.4057 -0.5502 -0.0432
   36DOPE   O22 4538   5.324   3.699   3.343  0.7791  0.6249  0.3025
   36DOPE   C22 4539   5.507   3.545   3.395  0.0654  0.5444  0.1780
   36DOPE   H2R 4540   5.568   3.635   3.371 -0.9242  0.6827 -2.0190
   36DOPE   H2S 4541   5.527   3.461   3.325  0.3611  0.0818  0.8012
   36DOPE    C3 4542   5.059   3.480   3.573 -0.1276  0.7938 -0.6636
   36DOPE    HX 4543   5.061   3.374   3.541 -0.2416  0.6400 -0.1701
   36DOPE    HY 4544   4.952   3.510   3.583 -0.3747 -0.6798  1.6920
   36DOPE   O31 4545   5.121   3.489   3.700 -0.3582 -0.4263 -0.2977
   36DOPE   C31 4546   5.191   3.395   3.750 -0.1202  0.2355 -0.1886
   36DOPE   O32 4547   5.194   3.281   3.708  0.0349 -0.5180 -0.2895
   36DOPE   C32 4548   5.270   3.451   3.868  0.9631  0.1867 -1.0220
   36DOPE   H2X 4549   5.336   3.530   3.827 -0.1892  1.2033 -0.9855
   36DOPE   H2Y 4550   5.193   3.495   3.935  0.6811 -1.8296  0.0565
   36DOPE   C23 4551   5.560   3.513   3.539 -0.1486  0.3099 -0.4622
   36DOPE   H3R 4552   5.668   3.490   3.523 -0.7131 -2.4496 -0.8257
   36DOPE   H3S 4553   5.517   3.423   3.587 -0.5709  1.3523  1.1809
   36DOPE   C24 4554   5.555   3.641   3.633 -0.0660 -0.4357  0.4246
   36DOPE   H4R 4555   5.449   3.665   3.655 -0.3149  0.0332 -1.1551
   36DOPE   H4S 4556   5.597   3.731   3.584  1.5388  0.1945  2.7661
   36DOPE   C25 4557   5.642   3.638   3.754 -0.7492 -0.5510 -0.2968
   36DOPE   H5R 4558   5.746   3.633   3.716 -0.9208 -0.9580 -0.7187
   36DOPE   H5S 4559   5.619   3.552   3.822 -0.6638  0.9604  1.7513
   36DOPE   C26 4560   5.645   3.776   3.841  0.4775 -0.0966  0.1710
   36DOPE   H6R 4561   5.551   3.797   3.897  0.7069  0.4819  0.3483
   36DOPE   H6S 4562   5.653   3.855   3.763  0.5381 -0.6550 -0.3895
   36DOPE   C27 4563   5.780   3.789   3.923  0.6989  0.2119  0.0981
   36DOPE   H7R 4564   5.796   3.688   3.967  1.0638  0.4846  0.6029
   36DOPE   H7S 4565   5.762   3.863   4.004  0.9328 -1.4216  1.7160
   36DOPE   C28 4566   5.907   3.825   3.846 -0.0138 -0.0077  0.3142
   36DOPE   H8R 4567   5.917   3.767   3.751 -1.4857  1.1943 -0.6249
   36DOPE   H8S 4568   5.994   3.792   3.906  0.6018 -2.4260 -1.7035
   36DOPE   C29 4569   5.902   3.977   3.807  0.2113  0.5313 -0.3624
   36DOPE   H9R 4570   5.820   4.018   3.747 -0.2476  0.4325  0.1941
   36DOPE  C210 4571   5.993   4.065   3.843  0.3799 -0.4655 -0.1471
   36DOPE  H10R 4572   5.976   4.166   3.803 -0.0975 -0.9663 -1.2655
   36DOPE  C211 4573   6.103   4.052   3.942  0.4115  0.9040 -0.1925
   36DOPE  H11R 4574   6.067   3.986   4.024 -0.2636 -0.5951 -1.6209
   36DOPE  H11S 4575   6.128   4.155   3.974 -3.1866  1.4659  1.2808
   36DOPE  C212 4576   6.229   3.989   3.876 -0.7243  0.2021  0.4914
   36DOPE  H12R 4577   6.207   3.886   3.843 -0.0808 -0.3477  1.7136
   36DOPE  H12S 4578   6.301   3.975   3.959  0.5303  0.4312 -0.5323
   36DOPE  C213 4579   6.287   4.072   3.749 -0.3938 -0.1428 -0.1085
   36DOPE  H13R 4580   6.210   4.111   3.678  0.2052  0.8596 -0.2149
   36DOPE  H13S 4581   6.356   4.001   3.698 -2.8303 -0.9478 -2.6215
   36DOPE  C214 4582   6.364   4.194   3.794 -0.4178 -0.4490  0.2443
   36DOPE  H14R 4583   6.450   4.173   3.861  1.4880 -0.4355 -2.0780
   36DOPE  H14S 4584   6.283   4.250   3.845 -0.6531 -0.5415 -0.0266
   36DOPE  C215 4585   6.407   4.275   3.674 -0.0296  0.2971 -0.7785
   36DOPE  H15R 4586   6.326   4.298   3.601  1.2860 -1.3854 -2.9042
   36DOPE  H15S 4587   6.482   4.222   3.612  1.9278 -1.0984  2.4991
   36DOPE  C216 4588   6.480   4.407   3.707 -0.1348  0.3807  0.2549
   36DOPE  H16R 4589   6.559   4.428   3.632  0.6253 -1.7774  0.3731
   36DOPE  H16S 4590   6.527   4.401   3.808 -1.5828  2.0580  1.0813
   36DOPE  C217 4591   6.385   4.530   3.718 -0.3854  0.4401  0.0051
   36DOPE  H17R 4592   6.311   4.514   3.799 -0.7539 -0.4386 -0.4890
   36DOPE  H17S 4593   6.341   4.518   3.617  0.4596 -0.1933 -0.2950
   36DOPE  C218 4594   6.451   4.669   3.752  0.0860 -0.1731  0.3341
   36DOPE  H18R 4595   6.545   4.682   3.694  0.9439  0.3428  1.7888
   36DOPE  H18S 4596   6.475   4.672   3.860 -1.2036  0.7885  0.6223
   36DOPE  H18T 4597   6.371   4.741   3.725 -0.5538 -1.4342 -1.3374
   36DOPE   C33 4598   5.353   3.348   3.942  0.5205  0.2778  0.1769
   36DOPE   H3X 4599   5.416   3.303   3.862  0.0962  0.0262 -0.0229
   36DOPE   H3Y 4600   5.288   3.271   3.988 -0.4464 -0.2095 -1.8614
   36DOPE   C34 4601   5.433   3.414   4.053  0.1399  0.0850 -0.0303
   36DOPE   H4X 4602   5.507   3.474   3.997  1.5049  0.8295  2.4036
   36DOPE   H4Y 4603   5.362   3.485   4.100 -2.3145 -2.3248  0.1944
   36DOPE   C35 4604   5.467   3.321   4.164 -0.4051  0.1915  0.1038
   36DOPE   H5X 4605   5.516   3.234   4.115  0.4214 -0.1411  1.4577
   36DOPE   H5Y 4606   5.375   3.271   4.202 -0.5784  0.3179 -0.1461
   36DOPE   C36 4607   5.554   3.379   4.275 -0.5090 -0.8048  0.7688
   36DOPE   H6X 4608   5.525   3.485   4.286  0.4656 -0.5032  0.5158
   36DOPE   H6Y 4609   5.659   3.379   4.239 -0.8237 -1.7835 -0.2219
   36DOPE   C37 4610   5.562   3.299   4.400  0.1161  0.6803 -0.0459
   36DOPE   H7X 4611   5.461   3.302   4.446  0.2214  0.8380  0.1737
   36DOPE   H7Y 4612   5.584   3.191   4.384  1.5654  0.9025  0.3448
   36DOPE   C38 4613   5.654   3.347   4.515 -0.1812  0.1398 -0.3234
   36DOPE   H8X 4614   5.632   3.451   4.545 -1.8144 -0.5671  1.1002
   36DOPE   H8Y 4615   5.762   3.353   4.487  0.2916  1.1138  1.5878
   36DOPE   C39 4616   5.651   3.254   4.635  0.1394  0.1508 -0.1095
   36DOPE   H9X 4617   5.694   3.154   4.623  1.0749  0.3528  1.3177
   36DOPE  C310 4618   5.619   3.288   4.761 -0.1157 -0.1974 -0.5929
   36DOPE  H10X 4619   5.624   3.216   4.844 -0.4362 -1.0371 -1.2924
   36DOPE  C311 4620   5.561   3.421   4.804  0.0631  0.3877 -0.5168
   36DOPE  H11X 4621   5.520   3.476   4.717 -2.2880 -0.2482  0.1117
   36DOPE  H11Y 4622   5.478   3.402   4.876  0.3002 -1.8981 -0.7880
   36DOPE  C312 4623   5.652   3.510   4.876  0.0211  0.2651 -0.1274
   36DOPE  H12X 4624   5.752   3.518   4.828  2.2113  0.9518  4.0691
   36DOPE  H12Y 4625   5.677   3.467   4.976 -1.8487  2.0401  1.2053
   36DOPE  C313 4626   5.606   3.654   4.895 -0.1675 -1.0329  0.2808
   36DOPE  H13X 4627   5.604   3.693   4.791 -2.4784 -0.3896  0.5043
   36DOPE  H13Y 4628   5.504   3.647   4.939 -0.9590  3.4080 -0.4010
   36DOPE  C314 4629   5.697   3.743   4.983 -0.1070  0.2798 -0.0767
   36DOPE  H14X 4630   5.684   3.848   4.951 -3.2119 -0.4718 -1.6662
   36DOPE  H14Y 4631   5.801   3.711   4.960 -0.1166  0.1254  0.0911
   36DOPE  C315 4632   5.670   3.733   5.132 -0.7554 -0.5068 -0.4190
   36DOPE  H15X 4633   5.679   3.626   5.161 -1.4957 -0.2155  0.9496
   36DOPE  H15Y 4634   5.569   3.771   5.158 -1.1648 -2.0714  0.3503
   36DOPE  C316 4635   5.780   3.800   5.221  0.0463  0.5148 -0.3136
   36DOPE  H16X 4636   5.776   3.910   5.205  1.6077  0.6404  0.0765
   36DOPE  H16Y 4637   5.878   3.760   5.190 -0.2215 -0.5438  0.1888
   36DOPE  C317 4638   5.751   3.776   5.365  0.1155  0.2860  0.0090
   36DOPE  H17X 4639   5.645   3.810   5.368  0.6416  2.0126  0.1276
   36DOPE  H17Y 4640   5.758   3.674   5.410 -1.2014  0.1518 -0.0430
   36DOPE  C318 4641   5.826   3.873   5.470  0.3252 -0.2575 -0.1759
   36DOPE  H18X 4642   5.798   3.861   5.577  1.5704  1.6451  0.4217
   36DOPE  H18Y 4643   5.936   3.857   5.472  0.1704 -1.5253 -0.7862
   36DOPE  H18Z 4644   5.805   3.981   5.455  1.5154  0.2913  1.7469
   37DOPE     N 4645   2.134   2.041   2.747 -0.2815  0.4722 -0.6323
   37DOPE   HN1 4646   2.084   2.050   2.657  1.5553 -0.6167 -1.8333
   37DOPE   HN2 4647   2.073   1.976   2.801  1.2877  0.8193  1.7359
   37DOPE   HN3 4648   2.138   2.139   2.782  0.3589 -0.0571  0.8803
   37DOPE   C12 4649   2.265   1.974   2.736  0.1590 -0.8254  0.2459
   37DOPE  H12A 4650   2.325   2.049   2.680 -2.3176  0.7981 -0.4201
   37DOPE  H12B 4651   2.242   1.888   2.669 -2.7484 -0.1743  0.2505
   37DOPE   C11 4652   2.335   1.940   2.863  0.4849  0.5309 -0.5912
   37DOPE  H11A 4653   2.352   2.038   2.912  0.7870  1.3798 -2.3351
   37DOPE  H11B 4654   2.437   1.899   2.842 -0.0340 -0.5924 -1.0026
   37DOPE     P 4655   2.259   1.866   3.096  0.2556 -0.5631 -0.1175
   37DOPE   O13 4656   2.170   1.763   3.153 -0.6087 -0.4666  0.3590
   37DOPE   O14 4657   2.236   2.009   3.138  0.2956  0.1781 -0.2284
   37DOPE   O11 4658   2.418   1.829   3.107 -0.3044 -0.4209 -0.1733
   37DOPE   O12 4659   2.248   1.855   2.937 -0.2579  0.3677  0.4537
   37DOPE    C1 4660   2.457   1.752   3.220 -0.0533  0.4727  0.0411
   37DOPE    HA 4661   2.559   1.717   3.195 -1.1360 -2.6527 -0.3847
   37DOPE    HB 4662   2.397   1.660   3.236 -0.1359  0.5885  0.4029
   37DOPE    C2 4663   2.459   1.847   3.346 -0.2912  0.0862  0.1256
   37DOPE    HS 4664   2.521   1.793   3.421 -1.6882 -0.3865  0.9747
   37DOPE   O21 4665   2.324   1.876   3.393 -0.0816  0.2136 -0.0459
   37DOPE   C21 4666   2.274   1.765   3.451 -0.4964 -0.2606 -0.6148
   37DOPE   O22 4667   2.343   1.666   3.474  0.7836 -0.5020  0.3144
   37DOPE   C22 4668   2.134   1.785   3.497  0.9938 -0.5096 -0.5174
   37DOPE   H2R 4669   2.081   1.688   3.506 -1.1053  0.6163  0.1578
   37DOPE   H2S 4670   2.075   1.828   3.413  1.4486  1.2473  0.0028
   37DOPE    C3 4671   2.538   1.976   3.317  0.5775 -0.8207 -0.3663
   37DOPE    HX 4672   2.474   2.050   3.265  2.6310  0.9939 -0.4669
   37DOPE    HY 4673   2.616   1.939   3.246 -0.8653 -3.0635 -0.8733
   37DOPE   O31 4674   2.599   2.033   3.439  0.3788 -0.1923 -0.6386
   37DOPE   C31 4675   2.523   2.120   3.505 -0.7539 -0.8609 -0.2564
   37DOPE   O32 4676   2.421   2.173   3.465  0.4354 -0.3742  0.7970
   37DOPE   C32 4677   2.591   2.149   3.634  0.5494  0.3101 -0.4257
   37DOPE   H2X 4678   2.592   2.057   3.696 -0.2612  0.3267 -0.3661
   37DOPE   H2Y 4679   2.694   2.185   3.615  0.5334  0.5093 -0.1470
   37DOPE   C23 4680   2.115   1.882   3.625  0.2789  0.2558  1.0658
   37DOPE   H3R 4681   2.006   1.898   3.639  0.2815  1.6481 -0.2946
   37DOPE   H3S 4682   2.162   1.978   3.597 -1.2756  1.2515  1.7396
   37DOPE   C24 4683   2.179   1.815   3.751  0.3572 -0.1892 -0.3259
   37DOPE   H4R 4684   2.290   1.811   3.743  0.6504  2.5535  1.1227
   37DOPE   H4S 4685   2.152   1.707   3.745 -0.5424 -0.1720  2.1270
   37DOPE   C25 4686   2.138   1.883   3.883 -0.0775  0.2048  0.3878
   37DOPE   H5R 4687   2.029   1.898   3.896 -0.2766 -1.0246  0.2542
   37DOPE   H5S 4688   2.192   1.980   3.885 -0.7161  0.5603  0.7264
   37DOPE   C26 4689   2.185   1.797   3.995  0.0498  0.3572 -0.3157
   37DOPE   H6R 4690   2.171   1.856   4.088 -1.2102  1.2479 -1.0453
   37DOPE   H6S 4691   2.295   1.779   3.989  0.4571  2.3886  0.3670
   37DOPE   C27 4692   2.109   1.663   4.020  0.0530  0.0213 -0.4684
   37DOPE   H7R 4693   2.167   1.607   4.097  1.3617  1.0736 -0.6571
   37DOPE   H7S 4694   2.118   1.607   3.924  0.5115  0.7735 -0.8780
   37DOPE   C28 4695   1.958   1.691   4.062 -0.9725 -0.6146 -0.9055
   37DOPE   H8R 4696   1.906   1.726   3.971  0.3930  1.4578 -0.9504
   37DOPE   H8S 4697   1.943   1.780   4.127 -0.8017  1.8921 -4.0541
   37DOPE   C29 4698   1.871   1.583   4.116 -0.1415 -0.2467 -0.2524
   37DOPE   H9R 4699   1.830   1.516   4.039  0.8042 -0.4237 -0.6139
   37DOPE  C210 4700   1.828   1.566   4.245  0.2691  0.3471 -0.2858
   37DOPE  H10R 4701   1.760   1.482   4.267 -1.3652  1.1138 -2.0765
   37DOPE  C211 4702   1.857   1.668   4.355  0.0925 -0.1956 -0.2274
   37DOPE  H11R 4703   1.773   1.673   4.428  1.3377 -0.1478  1.2615
   37DOPE  H11S 4704   1.880   1.767   4.312  1.5230 -1.2112 -1.9707
   37DOPE  C212 4705   1.980   1.637   4.449 -0.3787  0.2452  0.0474
   37DOPE  H12R 4706   1.982   1.708   4.535 -2.9169 -1.4631  1.6703
   37DOPE  H12S 4707   2.068   1.646   4.382 -0.7718  0.5975 -0.4223
   37DOPE  C213 4708   1.958   1.502   4.518 -0.5522 -0.5829 -0.4031
   37DOPE  H13R 4709   1.925   1.420   4.450 -1.7177 -1.6721  1.3905
   37DOPE  H13S 4710   1.880   1.517   4.596  0.5449  1.2547  0.3859
   37DOPE  C214 4711   2.086   1.471   4.597 -0.1796 -0.2070  1.0371
   37DOPE  H14R 4712   2.058   1.398   4.675 -0.4861 -2.7096 -1.2449
   37DOPE  H14S 4713   2.124   1.560   4.651  0.6490 -1.5239  2.7369
   37DOPE  C215 4714   2.197   1.404   4.523 -0.3266 -0.3988  0.2370
   37DOPE  H15R 4715   2.177   1.458   4.428 -2.6040 -0.4368  0.6408
   37DOPE  H15S 4716   2.178   1.296   4.506  0.0717 -0.7584  1.8816
   37DOPE  C216 4717   2.335   1.440   4.574 -1.4614  0.0757  0.3262
   37DOPE  H16R 4718   2.363   1.390   4.669  1.4701 -0.2341 -0.5914
   37DOPE  H16S 4719   2.346   1.548   4.594  0.1569  0.7936 -3.5227
   37DOPE  C217 4720   2.446   1.403   4.471 -0.6216 -0.1933  0.0670
   37DOPE  H17R 4721   2.406   1.397   4.368 -1.8395 -1.6111  0.5920
   37DOPE  H17S 4722   2.470   1.299   4.499  0.8768 -0.4202 -1.8327
   37DOPE  C218 4723   2.571   1.486   4.471 -0.3324 -0.3954  0.3537
   37DOPE  H18R 4724   2.640   1.427   4.407  0.7300  0.3618  0.7767
   37DOPE  H18S 4725   2.607   1.490   4.576 -2.2923  0.3051  1.0573
   37DOPE  H18T 4726   2.567   1.591   4.434  0.6376 -0.3660  0.3073
   37DOPE   C33 4727   2.511   2.246   3.731 -0.2287  0.1407 -0.1175
   37DOPE   H3X 4728   2.485   2.341   3.678  1.5870 -1.3146 -3.9728
   37DOPE   H3Y 4729   2.583   2.277   3.810 -0.7669  0.8298  0.1200
   37DOPE   C34 4730   2.377   2.202   3.802  0.3918  0.4737 -0.5204
   37DOPE   H4X 4731   2.293   2.193   3.729 -1.3680 -0.5418  1.4964
   37DOPE   H4Y 4732   2.379   2.102   3.849  0.1388  0.2193 -1.0386
   37DOPE   C35 4733   2.336   2.304   3.918 -0.6504 -0.4528 -0.2258
   37DOPE   H5X 4734   2.226   2.309   3.934 -0.3040 -0.0100  2.3474
   37DOPE   H5Y 4735   2.368   2.403   3.879  0.0032 -0.8838 -0.8144
   37DOPE   C36 4736   2.407   2.273   4.049 -0.6167  0.5927 -0.1744
   37DOPE   H6X 4737   2.397   2.356   4.122  1.0179  1.2886 -0.6873
   37DOPE   H6Y 4738   2.515   2.261   4.023 -0.3175  0.4101  1.0720
   37DOPE   C37 4739   2.363   2.150   4.125 -0.8649 -0.2450 -0.6647
   37DOPE   H7X 4740   2.254   2.167   4.138 -0.9224 -1.7031  1.3113
   37DOPE   H7Y 4741   2.369   2.055   4.068 -0.8349  0.2388 -1.4677
   37DOPE   C38 4742   2.430   2.126   4.258 -0.2257  0.1005  0.2808
   37DOPE   H8X 4743   2.440   2.228   4.302 -1.9125  0.3973  0.0635
   37DOPE   H8Y 4744   2.526   2.080   4.228 -1.0440 -0.9060 -0.8717
   37DOPE   C39 4745   2.350   2.027   4.337  0.2117  0.7272 -0.2496
   37DOPE   H9X 4746   2.331   1.927   4.294 -0.6353  0.5325  0.5485
   37DOPE  C310 4747   2.317   2.037   4.467  0.1020 -0.8300  0.4596
   37DOPE  H10X 4748   2.254   1.956   4.507 -0.1221 -1.0188 -0.2763
   37DOPE  C311 4749   2.331   2.147   4.571 -0.4013  0.0602  0.1561
   37DOPE  H11X 4750   2.331   2.243   4.515  0.5198  0.1016  0.2084
   37DOPE  H11Y 4751   2.241   2.145   4.635  0.5519  0.8941  1.5800
   37DOPE  C312 4752   2.447   2.125   4.670  0.0467  0.3337  0.0145
   37DOPE  H12X 4753   2.472   2.217   4.727  2.2440  0.5712 -1.2341
   37DOPE  H12Y 4754   2.545   2.112   4.619  0.1498  1.6040 -0.1342
   37DOPE  C313 4755   2.443   2.004   4.765  0.3575 -1.1992  0.1825
   37DOPE  H13X 4756   2.365   2.025   4.840  0.7544  1.1022  0.0245
   37DOPE  H13Y 4757   2.407   1.917   4.706  0.1507  0.7292 -2.7240
   37DOPE  C314 4758   2.579   1.965   4.820 -0.1534 -0.5225  0.0899
   37DOPE  H14X 4759   2.650   1.939   4.739 -0.8491 -0.0425 -0.6873
   37DOPE  H14Y 4760   2.549   1.876   4.881 -0.7093  0.2395  0.9674
   37DOPE  C315 4761   2.649   2.064   4.908 -0.1308  0.5571 -0.5734
   37DOPE  H15X 4762   2.706   2.141   4.851  2.2106 -0.2653  0.5452
   37DOPE  H15Y 4763   2.723   2.006   4.966  0.3116  0.2083 -1.4620
   37DOPE  C316 4764   2.557   2.142   5.015 -0.4559 -0.3237 -0.6519
   37DOPE  H16X 4765   2.518   2.065   5.085 -0.1730  0.7033  0.6729
   37DOPE  H16Y 4766   2.467   2.183   4.965  0.5792  0.3984 -2.0265
   37DOPE  C317 4767   2.640   2.236   5.098  0.0580 -0.1581  0.1856
   37DOPE  H17X 4768   2.728   2.187   5.145 -0.5530 -0.1489  1.3750
   37DOPE  H17Y 4769   2.673   2.314   5.026 -0.6495 -0.2571 -0.2530
   37DOPE  C318 4770   2.561   2.301   5.216  0.2695 -0.0032  0.8392
   37DOPE  H18X 4771   2.466   2.343   5.175  1.5814  2.4498  0.1563
   37DOPE  H18Y 4772   2.541   2.232   5.301 -1.8053  0.5872  0.8895
   37DOPE  H18Z 4773   2.620   2.384   5.260 -0.2647  0.4476  0.7248
   38DOPE     N 4774   5.606   3.580   2.928  0.1277  0.2628 -0.1616
   38DOPE   HN1 4775   5.616   3.479   2.951 -0.9622  0.1090 -0.3412
   38DOPE   HN2 4776   5.537   3.586   2.851 -2.2153 -0.4081  1.7739
   38DOPE   HN3 4777   5.695   3.612   2.883  1.7832 -3.5300  0.0412
   38DOPE   C12 4778   5.584   3.636   3.062  0.1366  0.0549 -0.5835
   38DOPE  H12A 4779   5.652   3.586   3.134  1.0451  1.9317 -0.0991
   38DOPE  H12B 4780   5.482   3.604   3.094  0.1714  0.3205 -0.2007
   38DOPE   C11 4781   5.588   3.790   3.064  0.1182 -0.6689 -0.1091
   38DOPE  H11A 4782   5.576   3.816   3.171 -1.4039  2.0861 -0.8700
   38DOPE  H11B 4783   5.505   3.833   3.005  0.1938  0.9198  0.9013
   38DOPE     P 4784   5.735   3.983   2.981 -0.0527  0.2924 -0.1227
   38DOPE   O13 4785   5.734   3.989   2.833 -0.1344 -0.1241  0.2101
   38DOPE   O14 4786   5.858   4.033   3.046 -0.5361  0.3250  0.4093
   38DOPE   O11 4787   5.609   4.061   3.035 -0.3569  0.5313  0.1159
   38DOPE   O12 4788   5.716   3.833   3.025  0.0445  0.1500  0.2653
   38DOPE    C1 4789   5.578   4.193   2.984  0.2427  0.3997 -0.2098
   38DOPE    HA 4790   5.520   4.187   2.890 -0.5914  2.5473  0.1056
   38DOPE    HB 4791   5.669   4.254   2.963  1.9693 -1.9133  0.2401
   38DOPE    C2 4792   5.496   4.283   3.082 -0.0356  0.0246  0.3275
   38DOPE    HS 4793   5.468   4.382   3.040 -2.2092  0.2676  2.1767
   38DOPE   O21 4794   5.580   4.296   3.199 -0.0630 -0.4818 -0.3193
   38DOPE   C21 4795   5.574   4.413   3.264  0.3479 -0.7903 -0.5149
   38DOPE   O22 4796   5.517   4.521   3.227 -0.0728 -0.3511  1.0225
   38DOPE   C22 4797   5.643   4.399   3.392 -0.5241 -0.1027 -0.7384
   38DOPE   H2R 4798   5.639   4.495   3.447  2.5728  0.0519 -0.6055
   38DOPE   H2S 4799   5.754   4.398   3.383 -0.3893 -2.7524  0.3615
   38DOPE    C3 4800   5.367   4.212   3.120  0.9909 -0.4913  0.1329
   38DOPE    HX 4801   5.387   4.111   3.162 -0.6495 -1.2810 -0.8515
   38DOPE    HY 4802   5.306   4.195   3.028 -3.2159  1.4448  2.2670
   38DOPE   O31 4803   5.285   4.296   3.208 -0.0756 -0.0720  0.0428
   38DOPE   C31 4804   5.258   4.248   3.330  0.4096 -0.7971 -0.1250
   38DOPE   O32 4805   5.287   4.140   3.373  0.2577  0.4754 -0.3118
   38DOPE   C32 4806   5.198   4.367   3.418  0.0874  0.5845 -0.2536
   38DOPE   H2X 4807   5.267   4.447   3.383 -0.8841  0.4475 -2.5854
   38DOPE   H2Y 4808   5.103   4.394   3.368 -0.2535 -0.0785  0.0256
   38DOPE   C23 4809   5.596   4.293   3.488  0.0388  0.0800 -0.0819
   38DOPE   H3R 4810   5.654   4.199   3.474  1.0418  0.4300  1.5339
   38DOPE   H3S 4811   5.489   4.263   3.491  0.1781 -0.4219  0.0196
   38DOPE   C24 4812   5.621   4.344   3.633  0.3137  0.2606  0.4029
   38DOPE   H4R 4813   5.575   4.444   3.650  1.7572  1.1647 -0.7673
   38DOPE   H4S 4814   5.727   4.369   3.652  0.4934 -0.2226  0.0358
   38DOPE   C25 4815   5.591   4.232   3.729 -0.3395 -0.1556  0.1808
   38DOPE   H5R 4816   5.648   4.142   3.698  0.1648  0.6078 -1.2271
   38DOPE   H5S 4817   5.484   4.203   3.717 -0.9789  2.3434 -0.9692
   38DOPE   C26 4818   5.630   4.269   3.872 -0.1688  0.5983 -0.0516
   38DOPE   H6R 4819   5.562   4.351   3.903 -3.0521 -0.6366 -2.6411
   38DOPE   H6S 4820   5.738   4.295   3.878 -0.4588  1.9310 -0.3128
   38DOPE   C27 4821   5.600   4.151   3.963  0.5055 -0.3710  0.0559
   38DOPE   H7R 4822   5.656   4.061   3.928 -0.9732 -0.9892 -0.7994
   38DOPE   H7S 4823   5.491   4.138   3.949  0.2610  0.4489  1.0909
   38DOPE   C28 4824   5.645   4.170   4.108 -0.5678  0.2046  0.4637
   38DOPE   H8R 4825   5.625   4.081   4.171  1.1062 -1.1704 -0.8546
   38DOPE   H8S 4826   5.591   4.260   4.143  1.4089  1.2157  1.0355
   38DOPE   C29 4827   5.793   4.204   4.113  0.0034  0.3261 -0.2447
   38DOPE   H9R 4828   5.874   4.134   4.090  0.5969  1.4230 -1.7313
   38DOPE  C210 4829   5.845   4.319   4.163  0.0053 -0.0922  0.0827
   38DOPE  H10R 4830   5.953   4.330   4.144 -0.4866  2.5210 -1.7754
   38DOPE  C211 4831   5.782   4.443   4.235 -0.2514  0.3504 -0.5476
   38DOPE  H11R 4832   5.859   4.513   4.274  1.7813 -0.8588 -2.1809
   38DOPE  H11S 4833   5.710   4.404   4.311 -0.4227  0.0742 -0.8483
   38DOPE  C212 4834   5.687   4.520   4.142  0.2429 -0.6983 -0.3355
   38DOPE  H12R 4835   5.645   4.600   4.207 -1.0894 -2.3060  0.8590
   38DOPE  H12S 4836   5.605   4.459   4.098  0.1814  1.0799 -2.9115
   38DOPE  C213 4837   5.760   4.590   4.021  0.0507 -0.7385 -0.2376
   38DOPE  H13R 4838   5.790   4.512   3.947 -0.0576 -0.5589 -0.4714
   38DOPE  H13S 4839   5.855   4.640   4.053  0.2763  0.9270 -3.1531
   38DOPE  C214 4840   5.667   4.689   3.952  0.7173  0.3527 -0.2201
   38DOPE  H14R 4841   5.697   4.790   3.989 -1.7546  0.6485  1.1878
   38DOPE  H14S 4842   5.558   4.670   3.968  0.7924 -0.4721 -0.6686
   38DOPE  C215 4843   5.668   4.705   3.801  0.5644 -0.0604  0.1779
   38DOPE  H15R 4844   5.696   4.608   3.757  0.2825  0.4774 -1.2397
   38DOPE  H15S 4845   5.749   4.774   3.770 -0.0282  0.1737 -0.8853
   38DOPE  C216 4846   5.527   4.756   3.742 -0.5811  0.0920 -0.0542
   38DOPE  H16R 4847   5.502   4.849   3.798 -2.0497 -0.5770  0.4448
   38DOPE  H16S 4848   5.445   4.683   3.754 -0.4464  0.2982  2.8607
   38DOPE  C217 4849   5.552   4.802   3.598 -0.1902  0.3205  0.3997
   38DOPE  H17R 4850   5.593   4.720   3.536 -1.6933 -0.4258  0.3379
   38DOPE  H17S 4851   5.633   4.878   3.607  0.9505 -0.9680  1.6391
   38DOPE  C218 4852   5.434   4.873   3.530 -0.7174 -0.1144  0.2735
   38DOPE  H18R 4853   5.391   4.956   3.591 -0.8164 -2.2255  3.3068
   38DOPE  H18S 4854   5.346   4.805   3.522 -0.8497  0.1852 -0.9749
   38DOPE  H18T 4855   5.470   4.905   3.430  1.0427 -1.9619  0.2599
   38DOPE   C33 4856   5.184   4.327   3.565  0.0310 -0.2108 -0.6041
   38DOPE   H3X 4857   5.268   4.256   3.582  0.0686 -0.3814 -1.4553
   38DOPE   H3Y 4858   5.083   4.282   3.572  0.2666 -0.5021  1.7628
   38DOPE   C34 4859   5.199   4.429   3.673 -0.2565  0.0248 -0.3043
   38DOPE   H4X 4860   5.284   4.497   3.650 -1.6225  0.9839 -2.9667
   38DOPE   H4Y 4861   5.110   4.495   3.683  0.3588  0.6938  1.1699
   38DOPE   C35 4862   5.221   4.357   3.812  0.2309  0.6070 -0.2710
   38DOPE   H5X 4863   5.299   4.279   3.803 -0.8362 -0.8008  1.8014
   38DOPE   H5Y 4864   5.128   4.301   3.837  1.3246 -1.4111 -0.5482
   38DOPE   C36 4865   5.247   4.449   3.923 -0.5139 -0.0771 -0.5724
   38DOPE   H6X 4866   5.156   4.510   3.941  0.6776  1.2661  1.2097
   38DOPE   H6Y 4867   5.334   4.518   3.915 -0.5787 -0.0055 -0.6609
   38DOPE   C37 4868   5.281   4.372   4.050  0.1659 -0.7117  0.5394
   38DOPE   H7X 4869   5.191   4.320   4.088 -0.0358 -0.5712  0.2563
   38DOPE   H7Y 4870   5.367   4.303   4.032  1.3997  1.1613 -1.2990
   38DOPE   C38 4871   5.310   4.461   4.174 -0.7951  0.1612  0.9038
   38DOPE   H8X 4872   5.216   4.515   4.199 -1.2191  0.3005 -0.8938
   38DOPE   H8Y 4873   5.384   4.537   4.142 -1.5118  0.5354  0.0853
   38DOPE   C39 4874   5.357   4.389   4.294 -0.2621  0.5816  0.0720
   38DOPE   H9X 4875   5.421   4.300   4.282 -0.5771  0.2572  0.7446
   38DOPE  C310 4876   5.316   4.407   4.420  0.6804  0.2067  0.7406
   38DOPE  H10X 4877   5.351   4.324   4.485 -0.6934 -1.5671 -0.6737
   38DOPE  C311 4878   5.227   4.515   4.471  0.1620 -0.1641  0.3377
   38DOPE  H11X 4879   5.219   4.592   4.391 -1.6776 -1.3835 -0.7075
   38DOPE  H11Y 4880   5.125   4.480   4.493  0.5212 -0.6344  1.2866
   38DOPE  C312 4881   5.278   4.573   4.605  0.2261  0.3186  0.3822
   38DOPE  H12X 4882   5.204   4.654   4.619 -0.9212 -0.4497 -1.0201
   38DOPE  H12Y 4883   5.378   4.620   4.598 -0.2456  1.3129  0.1047
   38DOPE  C313 4884   5.250   4.472   4.722 -0.8183  0.8694 -0.2205
   38DOPE  H13X 4885   5.148   4.428   4.713 -0.7225  0.9569 -2.3138
   38DOPE  H13Y 4886   5.323   4.389   4.712 -0.1948  1.5212 -1.2871
   38DOPE  C314 4887   5.275   4.537   4.868  0.8792 -0.7105  0.1935
   38DOPE  H14X 4888   5.171   4.569   4.888  0.8533  0.4235 -1.5329
   38DOPE  H14Y 4889   5.337   4.629   4.864 -0.5710  0.3071  0.1427
   38DOPE  C315 4890   5.324   4.441   4.974 -0.5682  0.2594 -0.2344
   38DOPE  H15X 4891   5.418   4.394   4.939  0.7352 -0.5196  3.8655
   38DOPE  H15Y 4892   5.246   4.361   4.978 -0.2622 -0.1136 -1.2290
   38DOPE  C316 4893   5.341   4.490   5.123 -0.4268 -0.7432 -0.3491
   38DOPE  H16X 4894   5.345   4.396   5.183 -2.5847 -0.1120  0.9267
   38DOPE  H16Y 4895   5.252   4.552   5.149  2.2293  3.1387  0.4028
   38DOPE  C317 4896   5.470   4.577   5.145 -0.7858  0.5290  0.2003
   38DOPE  H17X 4897   5.470   4.669   5.082 -0.3185  0.3282 -0.0995
   38DOPE  H17Y 4898   5.466   4.616   5.249  2.4038  1.7513 -0.0247
   38DOPE  C318 4899   5.590   4.487   5.118 -0.2799  1.2519  0.6167
   38DOPE  H18X 4900   5.602   4.394   5.179  2.0633 -0.5057 -2.2130
   38DOPE  H18Y 4901   5.609   4.456   5.013  0.1918 -1.7260  1.4628
   38DOPE  H18Z 4902   5.678   4.552   5.141  0.8086  0.0900 -0.0934
   39DOPE     N 4903   1.109   3.776   2.872 -0.5848  0.7003 -0.1272
   39DOPE   HN1 4904   1.007   3.792   2.858 -0.3314  2.1544 -0.5173
   39DOPE   HN2 4905   1.132   3.782   2.974 -0.0390 -3.1808  0.1067
   39DOPE   HN3 4906   1.164   3.843   2.816 -0.9299 -0.5086 -1.9781
   39DOPE   C12 4907   1.163   3.644   2.831 -0.7227 -0.2846 -0.0546
   39DOPE  H12A 4908   1.273   3.653   2.842 -0.9861  2.5867  0.8951
   39DOPE  H12B 4909   1.138   3.625   2.724  2.5824 -0.4935 -0.9036
   39DOPE   C11 4910   1.113   3.522   2.913 -0.2392 -0.6198  0.2105
   39DOPE  H11A 4911   1.134   3.425   2.865  0.9681 -0.7966  1.0402
   39DOPE  H11B 4912   1.002   3.529   2.911 -0.2983 -0.6571 -3.6091
   39DOPE     P 4913   1.221   3.427   3.139  0.5328  0.2454  0.2993
   39DOPE   O13 4914   1.278   3.328   3.046  0.0357  0.8132 -0.1367
   39DOPE   O14 4915   1.115   3.375   3.224 -0.0987 -0.2660 -0.0847
   39DOPE   O11 4916   1.349   3.476   3.225  0.1005  0.3561 -0.2139
   39DOPE   O12 4917   1.165   3.550   3.048 -0.1204 -0.0697  0.1067
   39DOPE    C1 4918   1.364   3.617   3.251  0.4107 -0.1073 -0.4471
   39DOPE    HA 4919   1.287   3.685   3.209 -0.8143  0.0720  1.9215
   39DOPE    HB 4920   1.466   3.643   3.215  0.4601  0.6881  0.2365
   39DOPE    C2 4921   1.344   3.665   3.400  0.0843 -0.0664  0.1696
   39DOPE    HS 4922   1.427   3.621   3.460 -0.0058  0.5000  0.7166
   39DOPE   O21 4923   1.220   3.614   3.454 -0.0127 -0.2017 -0.1595
   39DOPE   C21 4924   1.221   3.595   3.587 -0.0181 -0.7445 -0.2828
   39DOPE   O22 4925   1.312   3.631   3.660  0.9258 -0.6187  0.4459
   39DOPE   C22 4926   1.081   3.548   3.639 -0.2401 -0.3526 -0.6798
   39DOPE   H2R 4927   1.074   3.437   3.641 -3.5463 -0.2474  0.8727
   39DOPE   H2S 4928   0.993   3.575   3.576 -1.5354 -2.7489 -0.0061
   39DOPE    C3 4929   1.349   3.821   3.405 -0.7419  0.7358  0.5565
   39DOPE    HX 4930   1.272   3.859   3.334 -1.9994 -1.6558  0.5411
   39DOPE    HY 4931   1.448   3.852   3.367 -0.9150  0.5163 -0.0727
   39DOPE   O31 4932   1.307   3.873   3.534 -0.1226 -0.1294 -0.0596
   39DOPE   C31 4933   1.413   3.894   3.617  0.4260  0.0543 -0.0413
   39DOPE   O32 4934   1.525   3.857   3.595  0.3097 -0.2777 -0.3774
   39DOPE   C32 4935   1.370   3.965   3.740  0.6210 -0.3437 -0.5008
   39DOPE   H2X 4936   1.383   4.070   3.709 -3.0543  1.0012  1.7368
   39DOPE   H2Y 4937   1.259   3.957   3.750  0.4728  0.2138 -1.5566
   39DOPE   C23 4938   1.063   3.603   3.786  0.3491  0.5056  0.5249
   39DOPE   H3R 4939   0.957   3.614   3.817  0.3879  0.8434  0.5517
   39DOPE   H3S 4940   1.104   3.706   3.797 -0.3073  0.5372  3.2217
   39DOPE   C24 4941   1.132   3.513   3.883 -0.2824  0.0634 -0.0168
   39DOPE   H4R 4942   1.239   3.510   3.856 -0.4998  3.0465 -1.6583
   39DOPE   H4S 4943   1.101   3.408   3.864  0.3547 -0.1076 -0.1142
   39DOPE   C25 4944   1.119   3.545   4.028  0.7597 -0.1442 -0.7370
   39DOPE   H5R 4945   1.016   3.510   4.052  0.9345  0.1581  0.5119
   39DOPE   H5S 4946   1.124   3.653   4.052  1.6569 -0.3771  0.1878
   39DOPE   C26 4947   1.217   3.462   4.110  0.1108  0.2919 -0.4352
   39DOPE   H6R 4948   1.324   3.479   4.084  0.9607  1.3185  3.1242
   39DOPE   H6S 4949   1.194   3.355   4.090  0.3624  0.1675 -0.0801
   39DOPE   C27 4950   1.227   3.492   4.262  0.9286  0.0515  0.4242
   39DOPE   H7R 4951   1.124   3.472   4.299  1.2001  1.0663  1.8302
   39DOPE   H7S 4952   1.243   3.602   4.273 -1.0361  0.5013 -0.8067
   39DOPE   C28 4953   1.317   3.415   4.350 -0.5096  0.4540  0.0049
   39DOPE   H8R 4954   1.301   3.306   4.343  0.0073  0.2378  1.6524
   39DOPE   H8S 4955   1.288   3.443   4.454 -2.0733 -1.8813  0.2640
   39DOPE   C29 4956   1.471   3.443   4.342 -0.3700 -0.1751  0.6144
   39DOPE   H9R 4957   1.498   3.545   4.374  0.8278 -0.1015 -0.5587
   39DOPE  C210 4958   1.569   3.360   4.311 -0.2197  0.4407  0.7920
   39DOPE  H10R 4959   1.675   3.391   4.309  0.0086 -0.3104 -0.3197
   39DOPE  C211 4960   1.554   3.211   4.276  0.4333 -0.0392 -0.1350
   39DOPE  H11R 4961   1.651   3.166   4.244  0.8461  1.0882 -0.5170
   39DOPE  H11S 4962   1.476   3.196   4.199  0.8331 -0.2125 -0.5124
   39DOPE  C212 4963   1.508   3.120   4.398  0.4785 -0.4561  0.0201
   39DOPE  H12R 4964   1.398   3.131   4.412  0.1290 -3.2856 -0.0262
   39DOPE  H12S 4965   1.542   3.175   4.489 -0.1291 -0.7995  0.4654
   39DOPE  C213 4966   1.566   2.984   4.433 -0.0060 -0.2341 -0.2700
   39DOPE  H13R 4967   1.539   2.925   4.343  1.0066  1.6244 -1.8604
   39DOPE  H13S 4968   1.510   2.951   4.523  1.5589 -2.4940 -0.0167
   39DOPE  C214 4969   1.716   2.986   4.451 -0.7649  0.2885  0.5261
   39DOPE  H14R 4970   1.751   3.053   4.532 -0.7521  0.2924  0.5173
   39DOPE  H14S 4971   1.755   3.034   4.359 -4.5730  0.3755 -1.2696
   39DOPE  C215 4972   1.772   2.850   4.468  0.2725 -0.1051 -0.5407
   39DOPE  H15R 4973   1.773   2.798   4.370 -1.7895 -1.5400  0.1335
   39DOPE  H15S 4974   1.707   2.788   4.533 -0.6533  1.0911 -0.3004
   39DOPE  C216 4975   1.916   2.856   4.526  0.1616  0.4911 -0.8467
   39DOPE  H16R 4976   1.967   2.946   4.485 -0.3287 -0.0861 -2.8166
   39DOPE  H16S 4977   1.975   2.768   4.495 -1.4557 -1.3308  0.9520
   39DOPE  C217 4978   1.918   2.869   4.681  0.3230 -0.2363  0.0651
   39DOPE  H17R 4979   1.843   2.797   4.721  0.6873 -0.6938 -0.0780
   39DOPE  H17S 4980   1.884   2.972   4.707 -1.4646 -0.6938 -0.3395
   39DOPE  C218 4981   2.052   2.837   4.739 -0.6472  0.1926  0.5689
   39DOPE  H18R 4982   2.064   2.726   4.739  1.3257  0.3782  0.3851
   39DOPE  H18S 4983   2.041   2.861   4.847 -2.8125 -2.8783  1.1544
   39DOPE  H18T 4984   2.133   2.888   4.683  0.2595 -0.8928  0.8654
   39DOPE   C33 4985   1.446   3.913   3.864  0.1646  0.0705  0.3448
   39DOPE   H3X 4986   1.439   3.996   3.937  1.0297  3.2182 -2.8443
   39DOPE   H3Y 4987   1.557   3.903   3.857  0.0358 -1.5926  0.2208
   39DOPE   C34 4988   1.390   3.788   3.937  0.5267  0.3688 -0.3443
   39DOPE   H4X 4989   1.279   3.781   3.933  0.4127  1.7971 -0.1821
   39DOPE   H4Y 4990   1.430   3.697   3.887  0.0688  1.2618 -2.4203
   39DOPE   C35 4991   1.431   3.775   4.080 -0.1873 -0.3667  0.3619
   39DOPE   H5X 4992   1.536   3.811   4.091 -0.1485 -0.0846 -0.7676
   39DOPE   H5Y 4993   1.444   3.667   4.102  2.7735 -0.8802 -2.9289
   39DOPE   C36 4994   1.336   3.853   4.179 -0.3741  0.1985  0.1761
   39DOPE   H6X 4995   1.230   3.820   4.171 -0.1220 -1.6257  3.0596
   39DOPE   H6Y 4996   1.331   3.961   4.151  0.0659  0.1019 -0.2745
   39DOPE   C37 4997   1.377   3.847   4.328 -0.1580 -0.3357 -0.0716
   39DOPE   H7X 4998   1.370   3.741   4.362  0.3926 -0.2493  0.3308
   39DOPE   H7Y 4999   1.485   3.872   4.322  0.9128 -3.7174  1.9450
   39DOPE   C38 5000   1.297   3.935   4.417  0.3179 -0.3206  0.8372
   39DOPE   H8X 5001   1.195   3.890   4.425 -0.1638  0.1739 -1.7086
   39DOPE   H8Y 5002   1.292   4.038   4.376  1.5359 -0.4212  0.3959
   39DOPE   C39 5003   1.376   3.959   4.551 -1.1082  0.0308  0.2943
   39DOPE   H9X 5004   1.423   4.057   4.567  0.3049 -0.3037 -1.4801
   39DOPE  C310 5005   1.400   3.866   4.644 -0.1336 -0.9452  0.4317
   39DOPE  H10X 5006   1.440   3.904   4.739 -1.3797  3.2021 -0.5167
   39DOPE  C311 5007   1.352   3.718   4.640 -0.7751 -0.7250 -0.1355
   39DOPE  H11X 5008   1.264   3.711   4.572  0.0881  1.2694 -1.5397
   39DOPE  H11Y 5009   1.438   3.651   4.619  0.1808 -0.4263  2.4264
   39DOPE  C312 5010   1.295   3.682   4.782  1.1248 -0.0582  0.2792
   39DOPE  H12X 5011   1.236   3.588   4.776 -0.4852  0.9721 -0.5287
   39DOPE  H12Y 5012   1.221   3.758   4.815  0.3460 -0.6035 -0.1763
   39DOPE  C313 5013   1.406   3.676   4.887 -0.8378 -0.1652 -0.6041
   39DOPE  H13X 5014   1.449   3.777   4.904  0.0017 -0.1098 -2.7041
   39DOPE  H13Y 5015   1.346   3.645   4.975  1.6950  0.3198  1.4284
   39DOPE  C314 5016   1.528   3.583   4.873  0.3649 -0.2868 -0.1170
   39DOPE  H14X 5017   1.583   3.580   4.970 -1.1935 -0.4454  0.7969
   39DOPE  H14Y 5018   1.592   3.627   4.794  0.0344  2.2739  0.9660
   39DOPE  C315 5019   1.487   3.432   4.846 -0.0745 -0.6959  0.1062
   39DOPE  H15X 5020   1.575   3.365   4.846 -0.4213 -1.1869 -1.0902
   39DOPE  H15Y 5021   1.439   3.433   4.746 -0.2537 -2.0170  0.1593
   39DOPE  C316 5022   1.385   3.373   4.954 -0.5708  0.1304  0.3148
   39DOPE  H16X 5023   1.302   3.440   4.984  0.5579  0.6546  2.5112
   39DOPE  H16Y 5024   1.444   3.355   5.046  2.2134 -1.8527 -1.6575
   39DOPE  C317 5025   1.323   3.246   4.904 -0.5556 -0.2607  1.1958
   39DOPE  H17X 5026   1.389   3.201   4.828 -0.0551  1.6123  0.4567
   39DOPE  H17Y 5027   1.310   3.173   4.987  0.8128 -1.5033  0.3366
   39DOPE  C318 5028   1.187   3.266   4.831  0.6007  0.5303 -0.0928
   39DOPE  H18X 5029   1.208   3.342   4.752  2.3986 -0.7530 -0.9134
   39DOPE  H18Y 5030   1.153   3.171   4.786  3.1735 -0.1639 -0.6977
   39DOPE  H18Z 5031   1.118   3.304   4.909  1.5345  0.7491  0.6434
   40DOPE     N 5032   4.479   5.764   2.998  0.4303 -0.5652 -0.2757
   40DOPE   HN1 5033   4.550   5.802   3.064 -0.5374  1.5705 -0.3935
   40DOPE   HN2 5034   4.447   5.848   2.947  1.8616 -1.2130 -2.3633
   40DOPE   HN3 5035   4.400   5.717   3.049 -0.2651  0.1470 -0.6766
   40DOPE   C12 5036   4.532   5.666   2.899 -0.3928  0.2809 -0.0206
   40DOPE  H12A 5037   4.595   5.722   2.825 -0.6978 -1.0554 -1.3393
   40DOPE  H12B 5038   4.451   5.608   2.850  0.4586 -2.7174  1.8587
   40DOPE   C11 5039   4.618   5.557   2.974  0.2184  0.0084  0.0583
   40DOPE  H11A 5040   4.704   5.613   3.017 -0.7387  0.9538  0.7919
   40DOPE  H11B 5041   4.663   5.499   2.891 -0.1246 -0.9861  0.5499
   40DOPE     P 5042   4.578   5.439   3.208 -0.3591 -0.0061 -0.1993
   40DOPE   O13 5043   4.716   5.484   3.244 -0.0336 -0.3612 -0.0304
   40DOPE   O14 5044   4.554   5.291   3.209 -0.2109 -0.3340  0.1708
   40DOPE   O11 5045   4.468   5.521   3.282 -0.1611 -0.2756 -0.4500
   40DOPE   O12 5046   4.545   5.479   3.060 -0.0909  0.5334  0.1895
   40DOPE    C1 5047   4.488   5.659   3.323  0.7079 -0.3653 -0.1140
   40DOPE    HA 5048   4.403   5.717   3.281 -0.4184 -1.8491  0.0265
   40DOPE    HB 5049   4.579   5.709   3.283  0.0838 -0.5075 -1.7667
   40DOPE    C2 5050   4.476   5.668   3.482 -0.6701 -0.3402  0.1869
   40DOPE    HS 5051   4.498   5.770   3.519 -1.1415  0.1984 -0.9547
   40DOPE   O21 5052   4.550   5.566   3.550 -1.0063 -0.3209 -0.1831
   40DOPE   C21 5053   4.678   5.596   3.562 -0.0632  0.0027  0.1738
   40DOPE   O22 5054   4.726   5.693   3.502  0.1233  0.0105  0.2840
   40DOPE   C22 5055   4.759   5.491   3.642  0.7105  0.0814 -0.3221
   40DOPE   H2R 5056   4.857   5.471   3.594  1.3644 -0.4721  1.1775
   40DOPE   H2S 5057   4.703   5.394   3.640 -1.6989  1.3924 -1.5341
   40DOPE    C3 5058   4.331   5.643   3.521 -0.2287 -0.0178 -0.5053
   40DOPE    HX 5059   4.299   5.548   3.474 -1.1494  0.4088 -0.7847
   40DOPE    HY 5060   4.275   5.721   3.464 -0.4556 -0.2662 -0.6221
   40DOPE   O31 5061   4.299   5.636   3.660 -0.7286 -1.2643  0.0439
   40DOPE   C31 5062   4.204   5.716   3.705 -0.2467 -0.2382  0.8254
   40DOPE   O32 5063   4.144   5.801   3.634 -0.5730  0.3391 -0.7096
   40DOPE   C32 5064   4.168   5.686   3.850  0.0787 -0.2387 -0.6653
   40DOPE   H2X 5065   4.092   5.758   3.886 -0.5367  0.8658 -3.8600
   40DOPE   H2Y 5066   4.127   5.583   3.855  1.9112 -1.1184 -2.4375
   40DOPE   C23 5067   4.782   5.527   3.793  0.2325 -0.1610  0.5044
   40DOPE   H3R 5068   4.819   5.430   3.833  2.2275 -0.2561 -1.3746
   40DOPE   H3S 5069   4.686   5.541   3.848  0.4458  0.4084  0.7465
   40DOPE   C24 5070   4.869   5.653   3.809  0.0149  0.5028  1.1029
   40DOPE   H4R 5071   4.888   5.697   3.708 -2.7595  1.0552  0.7561
   40DOPE   H4S 5072   4.968   5.627   3.852  0.3019 -2.0748 -0.8762
   40DOPE   C25 5073   4.789   5.757   3.883  0.3232 -0.5599  0.2066
   40DOPE   H5R 5074   4.689   5.776   3.839  1.6059  1.7691 -1.9647
   40DOPE   H5S 5075   4.844   5.854   3.882  0.9503 -0.8727  1.6806
   40DOPE   C26 5076   4.779   5.720   4.040 -0.6117  0.9242  0.9155
   40DOPE   H6R 5077   4.723   5.624   4.046  0.7174 -0.1219 -1.5827
   40DOPE   H6S 5078   4.717   5.796   4.091  0.5171  2.4097  0.1529
   40DOPE   C27 5079   4.914   5.718   4.114  0.3428 -0.6337  1.2526
   40DOPE   H7R 5080   4.962   5.818   4.099 -1.0371 -0.1988 -0.6704
   40DOPE   H7S 5081   4.976   5.645   4.059 -0.7551 -0.9556  0.4231
   40DOPE   C28 5082   4.914   5.682   4.258  0.1139  0.2238  0.0957
   40DOPE   H8R 5083   4.878   5.577   4.262  0.6821 -0.0784 -1.7434
   40DOPE   H8S 5084   4.839   5.748   4.307 -0.7866 -0.6415 -0.0944
   40DOPE   C29 5085   5.041   5.701   4.335 -0.5722 -0.5365 -0.2585
   40DOPE   H9R 5086   5.134   5.714   4.278 -0.3575 -1.2279 -0.0682
   40DOPE  C210 5087   5.042   5.711   4.475  0.4169  0.4867  0.4807
   40DOPE  H10R 5088   5.140   5.716   4.525  0.6952 -1.6184  0.2489
   40DOPE  C211 5089   4.933   5.703   4.575  0.0324 -0.6027  0.3165
   40DOPE  H11R 5090   4.946   5.626   4.654 -1.0134  0.8849  2.0101
   40DOPE  H11S 5091   4.839   5.674   4.524  0.0544 -1.0937  0.5446
   40DOPE  C212 5092   4.908   5.837   4.634  0.0815 -0.2921  0.3058
   40DOPE  H12R 5093   4.811   5.832   4.688 -0.8391 -0.3000 -1.2817
   40DOPE  H12S 5094   4.896   5.909   4.550  2.5444  0.2195  0.3074
   40DOPE  C213 5095   5.014   5.889   4.724  0.1893  0.0711  0.4609
   40DOPE  H13R 5096   5.093   5.941   4.666 -0.4644  0.3451 -0.2131
   40DOPE  H13S 5097   5.057   5.813   4.792  0.9305 -0.7301 -0.8771
   40DOPE  C214 5098   4.957   6.001   4.822  0.1674 -0.2250 -1.1898
   40DOPE  H14R 5099   4.877   5.961   4.888  1.9801  0.5256  1.6347
   40DOPE  H14S 5100   4.917   6.078   4.751 -0.3862  0.0006 -0.6418
   40DOPE  C215 5101   5.060   6.067   4.919 -0.7380 -0.3875 -0.1041
   40DOPE  H15R 5102   5.028   6.166   4.956  0.5740  0.0587 -0.1210
   40DOPE  H15S 5103   5.160   6.089   4.876 -1.4738  2.2762 -0.5922
   40DOPE  C216 5104   5.088   5.975   5.039  0.3315 -0.4763  1.2272
   40DOPE  H16R 5105   5.175   5.907   5.023  0.4504 -0.0991  0.1476
   40DOPE  H16S 5106   5.000   5.909   5.054  0.7405 -0.8110  2.2093
   40DOPE  C217 5107   5.113   6.054   5.165  0.4723  0.5449  0.6000
   40DOPE  H17R 5108   5.015   6.097   5.196  0.4484 -0.0570  1.4200
   40DOPE  H17S 5109   5.178   6.142   5.152 -0.0198  0.6411 -1.5497
   40DOPE  C218 5110   5.151   5.969   5.288 -0.0105 -0.3392  0.2640
   40DOPE  H18R 5111   5.066   5.903   5.313 -1.2058  1.4950  1.3109
   40DOPE  H18S 5112   5.167   6.035   5.376  2.1237 -1.2170  0.5902
   40DOPE  H18T 5113   5.254   5.931   5.269  0.2868  0.6841 -0.2586
   40DOPE   C33 5114   4.291   5.689   3.949 -0.0532 -0.3588  0.3650
   40DOPE   H3X 5115   4.350   5.779   3.921 -1.9005  0.5542 -0.7505
   40DOPE   H3Y 5116   4.344   5.594   3.926 -1.0793 -0.8129 -0.1878
   40DOPE   C34 5117   4.242   5.702   4.095  1.3577 -0.6887 -0.4322
   40DOPE   H4X 5118   4.183   5.795   4.112  2.7408  0.2420 -0.5653
   40DOPE   H4Y 5119   4.186   5.607   4.107  0.8708 -0.2943  0.5763
   40DOPE   C35 5120   4.359   5.718   4.197  0.3591 -0.1071  0.6143
   40DOPE   H5X 5121   4.432   5.795   4.163 -0.7329  0.0400 -1.5723
   40DOPE   H5Y 5122   4.407   5.618   4.200 -0.5730 -0.5704  0.7580
   40DOPE   C36 5123   4.305   5.751   4.347 -0.1656 -0.0087  0.3055
   40DOPE   H6X 5124   4.236   5.672   4.386  1.9941 -1.4358  1.4089
   40DOPE   H6Y 5125   4.248   5.845   4.329  1.2708  0.5663 -1.5331
   40DOPE   C37 5126   4.426   5.767   4.440 -0.1845 -0.1691  0.0294
   40DOPE   H7X 5127   4.480   5.671   4.449  0.1456 -0.0846 -0.9324
   40DOPE   H7Y 5128   4.483   5.849   4.391 -2.0464  2.1828  1.5365
   40DOPE   C38 5129   4.381   5.812   4.582  0.1077  0.8181 -0.2773
   40DOPE   H8X 5130   4.299   5.743   4.613  0.3432  0.2657 -0.8510
   40DOPE   H8Y 5131   4.333   5.911   4.569  0.3968  1.0265  0.2231
   40DOPE   C39 5132   4.488   5.822   4.684 -0.1086 -0.4168  0.4121
   40DOPE   H9X 5133   4.592   5.805   4.653 -0.3519 -1.6341  0.2436
   40DOPE  C310 5134   4.468   5.843   4.820  0.5253 -0.6442  0.5242
   40DOPE  H10X 5135   4.555   5.860   4.885  1.7116 -0.0283 -1.1231
   40DOPE  C311 5136   4.336   5.858   4.895  0.1231  0.3367 -0.3636
   40DOPE  H11X 5137   4.258   5.783   4.866  0.0487 -0.1451  1.0318
   40DOPE  H11Y 5138   4.354   5.837   5.002  0.9190 -0.6508 -0.6758
   40DOPE  C312 5139   4.276   5.998   4.882 -0.2626  0.2498  0.0331
   40DOPE  H12X 5140   4.290   6.034   4.778  2.3203  0.0680  0.2468
   40DOPE  H12Y 5141   4.341   6.067   4.940  0.1178  0.2636 -0.4061
   40DOPE  C313 5142   4.128   6.013   4.919  0.0625 -0.5372 -0.7064
   40DOPE  H13X 5143   4.121   6.124   4.915 -0.8714 -0.5296  0.7236
   40DOPE  H13Y 5144   4.057   5.969   4.846 -0.4241 -0.4747 -0.2677
   40DOPE  C314 5145   4.090   5.963   5.055  0.6797 -0.4353 -0.3427
   40DOPE  H14X 5146   4.164   5.983   5.135 -0.4151 -2.1375  1.1850
   40DOPE  H14Y 5147   4.082   5.853   5.043  0.0910 -0.5396  0.8933
   40DOPE  C315 5148   3.957   6.009   5.097  0.4023  0.5560 -0.1543
   40DOPE  H15X 5149   3.888   5.957   5.027 -0.9862  1.3285  0.5854
   40DOPE  H15Y 5150   3.940   6.118   5.084  1.5597  0.8644  0.7255
   40DOPE  C316 5151   3.932   5.969   5.247  0.7630 -0.3185  0.8633
   40DOPE  H16X 5152   4.015   6.014   5.305  1.6046 -2.1542  1.1677
   40DOPE  H16Y 5153   3.932   5.860   5.269 -0.8541  0.0090  2.8308
   40DOPE  C317 5154   3.793   6.007   5.308 -0.0655 -0.1016  0.1827
   40DOPE  H17X 5155   3.790   6.117   5.327  0.9584  0.0798 -0.6102
   40DOPE  H17Y 5156   3.718   5.967   5.236 -1.9220  2.3514  0.5998
   40DOPE  C318 5157   3.761   5.947   5.449 -0.3854  0.1419 -0.6030
   40DOPE  H18X 5158   3.812   5.848   5.459 -0.6178  0.0490 -0.3110
   40DOPE  H18Y 5159   3.806   6.015   5.524  0.6887  2.1908 -2.9616
   40DOPE  H18Z 5160   3.652   5.935   5.470 -0.6658  0.4733 -1.7875
   41DOPE     N 5161   2.626   5.620   2.569 -0.0885 -0.6032 -0.9911
   41DOPE   HN1 5162   2.710   5.642   2.628 -1.7016  1.0444  0.8401
   41DOPE   HN2 5163   2.658   5.641   2.472 -2.0355 -2.2690 -2.0550
   41DOPE   HN3 5164   2.549   5.684   2.597 -0.0179 -0.5776 -0.8522
   41DOPE   C12 5165   2.584   5.472   2.585 -0.8643  0.3508 -0.3236
   41DOPE  H12A 5166   2.675   5.410   2.571  0.2269  2.0736 -1.0912
   41DOPE  H12B 5167   2.518   5.442   2.501  0.1415 -0.2848 -0.9011
   41DOPE   C11 5168   2.512   5.454   2.718  0.2951  0.2055 -0.4309
   41DOPE  H11A 5169   2.584   5.483   2.797 -0.9260  2.7388 -0.1295
   41DOPE  H11B 5170   2.491   5.346   2.726  2.0922 -0.1058  0.6463
   41DOPE     P 5171   2.324   5.578   2.856  0.3222 -0.0855 -0.3167
   41DOPE   O13 5172   2.177   5.564   2.856  0.2584 -0.1658 -0.2515
   41DOPE   O14 5173   2.379   5.710   2.891 -0.0900 -0.4201  0.1116
   41DOPE   O11 5174   2.392   5.473   2.953 -0.1630  0.5547  0.4719
   41DOPE   O12 5175   2.392   5.534   2.717 -0.4877 -0.3493  0.2743
   41DOPE    C1 5176   2.340   5.338   2.957 -0.6340  0.1113 -0.2132
   41DOPE    HA 5177   2.422   5.264   2.969 -0.6362 -0.1408 -1.5557
   41DOPE    HB 5178   2.278   5.318   2.867 -1.8312  3.7190 -0.3486
   41DOPE    C2 5179   2.272   5.308   3.089  0.3365 -0.0837  0.4393
   41DOPE    HS 5180   2.247   5.200   3.100  1.4548 -0.3855  0.1499
   41DOPE   O21 5181   2.158   5.394   3.115 -0.3750  0.4653 -0.1341
   41DOPE   C21 5182   2.051   5.366   3.045  1.0669  0.0395 -0.0623
   41DOPE   O22 5183   2.039   5.284   2.953  0.6277  0.5332  0.4454
   41DOPE   C22 5184   1.942   5.468   3.079  0.2339 -0.6505  0.1979
   41DOPE   H2R 5185   1.847   5.429   3.035  0.1280 -0.2287  0.0480
   41DOPE   H2S 5186   1.967   5.563   3.027  0.8565 -0.2984  1.1329
   41DOPE    C3 5187   2.375   5.311   3.206 -0.9294 -0.0345 -0.4040
   41DOPE    HX 5188   2.409   5.416   3.208  1.1163 -0.5922  3.6378
   41DOPE    HY 5189   2.466   5.251   3.183 -1.7533 -2.1300  1.4352
   41DOPE   O31 5190   2.317   5.267   3.332 -0.5111  0.0713  0.1481
   41DOPE   C31 5191   2.282   5.363   3.411  0.6773  0.4570 -0.5259
   41DOPE   O32 5192   2.294   5.483   3.393  0.0139 -0.2158 -0.1131
   41DOPE   C32 5193   2.216   5.303   3.534 -0.1667 -0.5735 -0.1198
   41DOPE   H2X 5194   2.142   5.369   3.583 -3.0172 -3.0624 -0.7690
   41DOPE   H2Y 5195   2.166   5.205   3.515  0.1734 -0.4561 -1.7107
   41DOPE   C23 5196   1.927   5.505   3.225  0.0286 -0.3345  0.6325
   41DOPE   H3R 5197   1.862   5.594   3.237 -0.0751 -0.4476  0.9266
   41DOPE   H3S 5198   2.025   5.526   3.273  0.8967 -3.4222  0.3908
   41DOPE   C24 5199   1.860   5.390   3.307 -0.5226  0.2311  0.5112
   41DOPE   H4R 5200   1.921   5.297   3.308 -1.6159 -0.5452 -0.5834
   41DOPE   H4S 5201   1.765   5.353   3.261 -0.2365 -0.2021  0.2609
   41DOPE   C25 5202   1.836   5.430   3.448 -0.6476 -0.1673  0.4223
   41DOPE   H5R 5203   1.780   5.526   3.458  1.4106  1.2416 -0.6516
   41DOPE   H5S 5204   1.930   5.444   3.505  1.6686 -1.8308 -2.6709
   41DOPE   C26 5205   1.771   5.323   3.530 -0.1980 -0.1712 -0.6814
   41DOPE   H6R 5206   1.831   5.230   3.539 -0.5974 -0.4467 -0.8257
   41DOPE   H6S 5207   1.674   5.292   3.485 -0.7033 -2.1172  1.5185
   41DOPE   C27 5208   1.722   5.368   3.677 -0.6823 -0.3863  0.0520
   41DOPE   H7R 5209   1.636   5.300   3.696 -0.4845 -1.3283 -2.1447
   41DOPE   H7S 5210   1.700   5.476   3.676  0.1474 -0.2134 -0.1540
   41DOPE   C28 5211   1.831   5.360   3.788 -0.1764  0.1080 -0.1661
   41DOPE   H8R 5212   1.795   5.415   3.878  0.3380  0.2703 -0.0515
   41DOPE   H8S 5213   1.923   5.408   3.749 -0.4998  1.1610  0.3291
   41DOPE   C29 5214   1.859   5.212   3.819 -0.8602  0.2751 -0.4722
   41DOPE   H9R 5215   1.938   5.170   3.755 -1.6590 -0.0547 -1.2619
   41DOPE  C210 5216   1.813   5.142   3.920 -1.0698  0.0983  0.0848
   41DOPE  H10R 5217   1.827   5.033   3.924 -0.8480  0.1524  1.0839
   41DOPE  C211 5218   1.710   5.196   4.015  0.3029 -0.1295 -0.2464
   41DOPE  H11R 5219   1.613   5.143   4.006  0.2595 -0.2770  0.9825
   41DOPE  H11S 5220   1.693   5.304   3.996  1.5345 -0.3125 -3.0429
   41DOPE  C212 5221   1.770   5.186   4.154  0.1004  0.5279 -0.7805
   41DOPE  H12R 5222   1.860   5.251   4.161  1.0068 -0.8521  1.7560
   41DOPE  H12S 5223   1.800   5.080   4.172  1.8446  0.7718 -1.9953
   41DOPE  C213 5224   1.662   5.234   4.263 -0.5857  0.5015 -0.0761
   41DOPE  H13R 5225   1.570   5.172   4.253  0.8993 -1.9051  0.6410
   41DOPE  H13S 5226   1.624   5.339   4.256 -1.9416  0.1726  1.6018
   41DOPE  C214 5227   1.696   5.215   4.407  0.3037  0.5597  0.2326
   41DOPE  H14R 5228   1.750   5.300   4.454 -0.1463  1.4610 -0.8194
   41DOPE  H14S 5229   1.776   5.138   4.416 -1.0294 -0.9011 -0.1341
   41DOPE  C215 5230   1.577   5.176   4.491  0.4514 -0.3549 -0.9431
   41DOPE  H15R 5231   1.533   5.089   4.438 -0.3737 -0.3907 -0.2047
   41DOPE  H15S 5232   1.503   5.258   4.485 -0.3315 -1.0377 -0.6781
   41DOPE  C216 5233   1.614   5.130   4.637  0.5293  0.3379 -0.7088
   41DOPE  H16R 5234   1.644   5.224   4.688  0.1157 -0.2003  0.5586
   41DOPE  H16S 5235   1.703   5.063   4.639  1.0506  0.7665  4.5312
   41DOPE  C217 5236   1.513   5.054   4.716  0.4078 -0.1292 -0.0346
   41DOPE  H17R 5237   1.492   4.954   4.673 -0.6676 -0.0388  0.2567
   41DOPE  H17S 5238   1.413   5.102   4.701 -0.0761 -1.3776 -1.0158
   41DOPE  C218 5239   1.560   5.039   4.866 -0.3499  0.1237  0.7364
   41DOPE  H18R 5240   1.654   4.980   4.870 -0.2472  0.1595 -0.6732
   41DOPE  H18S 5241   1.489   4.986   4.933  0.6909  0.1286  1.8761
   41DOPE  H18T 5242   1.581   5.142   4.900  0.0813  0.9845 -1.9107
   41DOPE   C33 5243   2.319   5.274   3.645 -0.1216 -0.0722 -0.4942
   41DOPE   H3X 5244   2.410   5.337   3.632  0.0650 -0.0866  0.6299
   41DOPE   H3Y 5245   2.347   5.167   3.636 -1.0174 -0.3636  0.1227
   41DOPE   C34 5246   2.259   5.298   3.785 -0.7825 -0.7523  0.9175
   41DOPE   H4X 5247   2.259   5.407   3.811 -2.0425 -0.4117 -0.4287
   41DOPE   H4Y 5248   2.152   5.271   3.791 -0.7228 -0.8136  1.8868
   41DOPE   C35 5249   2.308   5.212   3.901  0.2710  0.3114 -0.2051
   41DOPE   H5X 5250   2.409   5.228   3.944  0.6263 -1.6617 -0.2106
   41DOPE   H5Y 5251   2.335   5.112   3.861  2.2175  1.2704 -1.4277
   41DOPE   C36 5252   2.201   5.200   4.013  0.1792  0.2499 -0.5576
   41DOPE   H6X 5253   2.114   5.151   3.963 -0.4886  2.1436 -1.3614
   41DOPE   H6Y 5254   2.174   5.304   4.041 -1.1566  0.3137 -1.9309
   41DOPE   C37 5255   2.250   5.123   4.131 -1.0948 -0.1392 -0.0094
   41DOPE   H7X 5256   2.312   5.034   4.106 -0.0821  0.1703  1.2600
   41DOPE   H7Y 5257   2.320   5.190   4.185  0.4139 -0.8627 -1.0052
   41DOPE   C38 5258   2.146   5.085   4.238  0.2136 -0.1981  0.5289
   41DOPE   H8X 5259   2.065   5.028   4.188 -2.0172  0.5482  3.0328
   41DOPE   H8Y 5260   2.095   5.181   4.260 -0.2987  0.2140 -2.2057
   41DOPE   C39 5261   2.210   5.021   4.357 -0.4395 -0.3069 -0.5679
   41DOPE   H9X 5262   2.236   4.914   4.350  1.2961  0.0996 -0.8542
   41DOPE  C310 5263   2.242   5.083   4.471  0.4995 -0.5213 -0.0313
   41DOPE  H10X 5264   2.275   5.019   4.553  1.8355  0.0371 -0.0993
   41DOPE  C311 5265   2.234   5.231   4.484  0.9516 -0.7294  0.0666
   41DOPE  H11X 5266   2.319   5.271   4.544 -0.3924  1.7464  0.4264
   41DOPE  H11Y 5267   2.240   5.277   4.383  2.3090 -3.8994 -1.4447
   41DOPE  C312 5268   2.103   5.266   4.569  0.8146 -0.2127  0.6303
   41DOPE  H12X 5269   2.019   5.214   4.517  2.9306  0.8377 -4.4393
   41DOPE  H12Y 5270   2.072   5.373   4.564 -1.8875 -0.9629 -1.6350
   41DOPE  C313 5271   2.111   5.235   4.720 -0.1001  0.0435  0.0157
   41DOPE  H13X 5272   2.132   5.127   4.732 -0.2575 -0.0338 -0.3815
   41DOPE  H13Y 5273   2.201   5.286   4.759  0.2067  0.0836 -0.7267
   41DOPE  C314 5274   1.987   5.268   4.799  0.0139 -0.1790  0.4809
   41DOPE  H14X 5275   1.927   5.175   4.805 -0.6659  0.2590  0.6529
   41DOPE  H14Y 5276   1.939   5.355   4.747  0.7627 -0.4343 -0.6801
   41DOPE  C315 5277   2.030   5.313   4.940  0.7023 -0.3169  0.1989
   41DOPE  H15X 5278   2.068   5.417   4.940  2.6894 -0.9968  0.4899
   41DOPE  H15Y 5279   2.102   5.249   4.996  2.6605  2.2456  0.7738
   41DOPE  C316 5280   1.903   5.330   5.032  0.1130 -0.2282 -0.0168
   41DOPE  H16X 5281   1.821   5.392   4.991 -0.1372  1.0357  2.2077
   41DOPE  H16Y 5282   1.933   5.381   5.126 -0.1803  2.6948 -1.4112
   41DOPE  C317 5283   1.842   5.192   5.074 -0.0248 -0.5358 -0.1940
   41DOPE  H17X 5284   1.794   5.140   4.989 -1.2891  0.3597 -0.0706
   41DOPE  H17Y 5285   1.928   5.128   5.105  0.8205 -0.0882 -1.5262
   41DOPE  C318 5286   1.733   5.206   5.183 -0.2884 -0.9454 -0.5575
   41DOPE  H18X 5287   1.768   5.266   5.270 -0.6332 -0.7894 -0.5233
   41DOPE  H18Y 5288   1.652   5.263   5.133 -0.0363  0.7079  0.8162
   41DOPE  H18Z 5289   1.700   5.104   5.213  0.3920 -0.7035  1.1430
   42DOPE     N 5290   1.940   5.068   2.804  0.0952 -0.8800 -0.7753
   42DOPE   HN1 5291   1.948   5.102   2.902 -1.0606 -0.9863 -0.6227
   42DOPE   HN2 5292   1.917   5.147   2.740 -2.9876 -1.4223 -0.4770
   42DOPE   HN3 5293   1.855   5.009   2.799 -0.8933  0.3616  0.3923
   42DOPE   C12 5294   2.067   5.009   2.763  0.4894  0.3328 -0.2826
   42DOPE  H12A 5295   2.142   5.089   2.774  0.7615 -0.2447  3.2439
   42DOPE  H12B 5296   2.057   4.972   2.659 -1.1417 -0.6123  0.1548
   42DOPE   C11 5297   2.110   4.903   2.866  0.1773 -0.7958 -0.6016
   42DOPE  H11A 5298   2.209   4.871   2.827  3.0557  4.1264  1.7739
   42DOPE  H11B 5299   2.038   4.818   2.871  0.1100 -0.9686 -3.0279
   42DOPE     P 5300   2.238   4.890   3.093  0.3493  0.4071  0.1890
   42DOPE   O13 5301   2.370   4.949   3.060 -0.1994  0.2501  0.1321
   42DOPE   O14 5302   2.219   4.738   3.085  0.1040  0.1562 -0.1126
   42DOPE   O11 5303   2.192   4.942   3.236 -0.1097 -0.3642  0.4059
   42DOPE   O12 5304   2.130   4.956   2.999 -0.2176 -0.4468 -0.1101
   42DOPE    C1 5305   2.055   4.963   3.260  0.1273 -0.8389 -0.1366
   42DOPE    HA 5306   1.999   5.000   3.172  0.9964 -1.0897 -0.8060
   42DOPE    HB 5307   2.053   5.049   3.330 -0.1093 -0.0600 -1.0861
   42DOPE    C2 5308   1.981   4.849   3.344  0.5703 -0.0440 -0.2035
   42DOPE    HS 5309   1.885   4.896   3.377  1.7690  0.8019  2.3317
   42DOPE   O21 5310   2.062   4.810   3.459  0.1870 -0.0931  0.3706
   42DOPE   C21 5311   2.073   4.896   3.556 -1.0143 -0.4407 -0.6675
   42DOPE   O22 5312   2.014   5.002   3.568 -0.3680  1.0229 -0.8041
   42DOPE   C22 5313   2.184   4.849   3.648  0.0826  0.4325  0.2261
   42DOPE   H2R 5314   2.280   4.897   3.619 -1.0310  2.3695 -0.4635
   42DOPE   H2S 5315   2.191   4.739   3.632 -2.5194  0.5994 -3.2321
   42DOPE    C3 5316   1.947   4.732   3.252 -0.3267  0.2836  0.0023
   42DOPE    HX 5317   2.045   4.694   3.216 -0.6730  0.1884 -0.8636
   42DOPE    HY 5318   1.905   4.782   3.162  2.9316  2.4440 -0.4715
   42DOPE   O31 5319   1.863   4.630   3.313 -0.0043 -0.5120  0.1302
   42DOPE   C31 5320   1.838   4.516   3.249 -0.2179  0.2033 -0.5398
   42DOPE   O32 5321   1.880   4.487   3.138 -0.7083 -0.3374  0.5535
   42DOPE   C32 5322   1.746   4.425   3.332  0.3210 -0.3131  0.0541
   42DOPE   H2X 5323   1.703   4.347   3.267 -0.5100 -0.7305  1.0755
   42DOPE   H2Y 5324   1.805   4.371   3.410 -0.6626 -2.4963 -0.6465
   42DOPE   C23 5325   2.159   4.873   3.801 -0.2625 -0.2647 -0.3170
   42DOPE   H3R 5326   2.119   4.977   3.810  0.3573 -0.0610  0.1252
   42DOPE   H3S 5327   2.257   4.871   3.852 -0.9149  0.0976  0.9873
   42DOPE   C24 5328   2.063   4.764   3.853 -0.4120  0.5129  0.3093
   42DOPE   H4R 5329   2.120   4.669   3.862 -0.6758  0.2483 -0.6719
   42DOPE   H4S 5330   1.984   4.752   3.776 -0.6601 -1.1843  0.7911
   42DOPE   C25 5331   2.016   4.797   3.999  0.0151 -0.1068 -0.7147
   42DOPE   H5R 5332   1.947   4.884   3.988 -0.2630 -0.0178  1.3045
   42DOPE   H5S 5333   2.109   4.829   4.051 -0.0750 -2.4814  1.0583
   42DOPE   C26 5334   1.941   4.683   4.075 -0.5743  0.7494  0.3351
   42DOPE   H6R 5335   2.016   4.604   4.097 -0.0893  0.5240 -1.8862
   42DOPE   H6S 5336   1.862   4.636   4.013 -0.9970  0.7158  0.8956
   42DOPE   C27 5337   1.889   4.725   4.214  0.5738  0.0763  0.3897
   42DOPE   H7R 5338   1.804   4.660   4.245  0.0196  1.8863  2.9983
   42DOPE   H7S 5339   1.860   4.830   4.195  2.4218  0.2231 -2.0434
   42DOPE   C28 5340   1.993   4.736   4.325  0.0405  0.8014  0.0537
   42DOPE   H8R 5341   2.073   4.805   4.292  0.1539  0.6141 -0.0675
   42DOPE   H8S 5342   2.024   4.633   4.353 -0.5862  0.3974 -0.7155
   42DOPE   C29 5343   1.933   4.800   4.450  0.0630  0.2081 -0.4217
   42DOPE   H9R 5344   1.966   4.902   4.475  0.3785 -0.7403  3.9709
   42DOPE  C210 5345   1.840   4.748   4.533  0.9214  0.3513 -0.0083
   42DOPE  H10R 5346   1.808   4.814   4.615  3.0399  0.9788  0.3667
   42DOPE  C211 5347   1.773   4.615   4.547  0.4666 -0.5220  0.2123
   42DOPE  H11R 5348   1.800   4.540   4.470 -1.8531  0.1131 -1.3199
   42DOPE  H11S 5349   1.664   4.636   4.546  0.7062  0.7996 -0.0572
   42DOPE  C212 5350   1.801   4.542   4.684  0.5316 -0.8832  0.1207
   42DOPE  H12R 5351   1.757   4.610   4.760  0.8097 -0.0137 -0.4891
   42DOPE  H12S 5352   1.908   4.537   4.713  0.3880 -0.1066  0.8266
   42DOPE  C213 5353   1.725   4.415   4.700  0.1842 -0.0068  0.1922
   42DOPE  H13R 5354   1.770   4.357   4.617  0.1464  1.3703 -0.8190
   42DOPE  H13S 5355   1.619   4.433   4.673  0.6551  1.2514 -0.8908
   42DOPE  C214 5356   1.750   4.336   4.826 -0.4589  0.1673  0.8007
   42DOPE  H14R 5357   1.677   4.369   4.903 -0.9840 -2.9622  1.8166
   42DOPE  H14S 5358   1.853   4.350   4.866 -0.6283  0.7067  1.0575
   42DOPE  C215 5359   1.723   4.189   4.819  0.0324 -0.2368  0.0938
   42DOPE  H15R 5360   1.802   4.132   4.766  3.2207  1.9824  2.0472
   42DOPE  H15S 5361   1.625   4.191   4.768  0.3254 -1.2165 -0.5296
   42DOPE  C216 5362   1.688   4.131   4.959 -0.0800 -0.0366 -0.6412
   42DOPE  H16R 5363   1.607   4.191   5.006  0.4055  0.7445 -0.7953
   42DOPE  H16S 5364   1.775   4.156   5.024 -0.7372  0.7735 -0.0620
   42DOPE  C217 5365   1.659   3.981   4.957 -0.8252  0.2062  0.0332
   42DOPE  H17R 5366   1.741   3.938   4.895 -1.7632 -1.4743 -0.1233
   42DOPE  H17S 5367   1.555   3.970   4.920 -1.0569 -1.3428  1.0554
   42DOPE  C218 5368   1.662   3.903   5.092  0.4693 -0.0692 -0.5975
   42DOPE  H18R 5369   1.582   3.936   5.162 -0.6904 -1.4919 -1.2097
   42DOPE  H18S 5370   1.763   3.911   5.137  0.0713 -1.5939  0.6374
   42DOPE  H18T 5371   1.649   3.797   5.063 -1.1244  0.8915 -3.8305
   42DOPE   C33 5372   1.629   4.498   3.398 -0.0747  0.2667  0.0353
   42DOPE   H3X 5373   1.564   4.547   3.322  1.1748  1.3944 -0.3487
   42DOPE   H3Y 5374   1.664   4.586   3.456  0.2826  0.1237  0.0436
   42DOPE   C34 5375   1.564   4.407   3.500 -0.3895 -0.4416  0.0093
   42DOPE   H4X 5376   1.548   4.306   3.455  0.7173 -0.4070 -0.5148
   42DOPE   H4Y 5377   1.645   4.390   3.575  2.3662 -1.9164 -3.0178
   42DOPE   C35 5378   1.452   4.473   3.570 -0.1336  0.0475  0.8184
   42DOPE   H5X 5379   1.369   4.480   3.496  0.7259  1.2873 -0.0691
   42DOPE   H5Y 5380   1.487   4.575   3.598 -0.0864  0.8498 -1.8628
   42DOPE   C36 5381   1.389   4.395   3.683  0.4027 -1.2341  0.5613
   42DOPE   H6X 5382   1.478   4.361   3.739  1.3666 -0.5240 -0.5131
   42DOPE   H6Y 5383   1.321   4.318   3.640 -0.4306  0.7452 -1.9706
   42DOPE   C37 5384   1.305   4.485   3.771  0.2694 -0.1123  0.9181
   42DOPE   H7X 5385   1.376   4.557   3.817  0.1377  1.1052 -0.6946
   42DOPE   H7Y 5386   1.234   4.553   3.719  1.6138 -0.2584 -1.1987
   42DOPE   C38 5387   1.243   4.407   3.884  0.5065 -0.4876 -0.1975
   42DOPE   H8X 5388   1.204   4.476   3.962 -0.5254 -3.4915  2.1425
   42DOPE   H8Y 5389   1.320   4.342   3.929  2.1341  0.5224 -1.4172
   42DOPE   C39 5390   1.126   4.327   3.833 -0.7267  0.0974  0.6228
   42DOPE   H9X 5391   1.095   4.357   3.732  3.9261 -0.5014 -1.2319
   42DOPE  C310 5392   1.077   4.209   3.876 -0.7336  0.5369  0.0045
   42DOPE  H10X 5393   0.994   4.163   3.820  1.0849 -0.6293 -1.8958
   42DOPE  C311 5394   1.119   4.140   3.997 -0.6195  0.5794 -0.3628
   42DOPE  H11X 5395   1.132   4.032   3.977  0.7226  0.5061  0.7825
   42DOPE  H11Y 5396   1.217   4.184   4.025 -1.2585  1.0105  1.3031
   42DOPE  C312 5397   1.031   4.144   4.123  0.0468  0.0339  0.1344
   42DOPE  H12X 5398   1.031   4.244   4.171 -0.4541  1.4711 -2.6547
   42DOPE  H12Y 5399   1.076   4.074   4.197  1.4624  1.5229  0.7384
   42DOPE  C313 5400   0.888   4.089   4.096  0.4226 -0.8572 -0.3789
   42DOPE  H13X 5401   0.828   4.129   4.181 -0.2778  0.7899 -1.6071
   42DOPE  H13Y 5402   0.852   4.138   4.003 -1.2436 -0.3332  0.4936
   42DOPE  C314 5403   0.887   3.936   4.101 -0.1522 -0.2112  0.5985
   42DOPE  H14X 5404   0.932   3.894   4.193  2.2154 -0.8905 -0.7909
   42DOPE  H14Y 5405   0.943   3.894   4.015 -1.4228 -0.9041  0.0753
   42DOPE  C315 5406   0.743   3.883   4.097 -0.2738  0.0314 -0.0001
   42DOPE  H15X 5407   0.672   3.941   4.035 -0.2129  0.7249  0.5632
   42DOPE  H15Y 5408   0.714   3.873   4.204  1.3790 -3.0259  0.2822
   42DOPE  C316 5409   0.721   3.738   4.052 -0.2898  0.6980  0.4798
   42DOPE  H16X 5410   0.799   3.681   4.107 -1.2355 -0.1240  0.9857
   42DOPE  H16Y 5411   0.731   3.739   3.941 -1.8625  0.1436  0.3172
   42DOPE  C317 5412   0.591   3.678   4.097  0.1202  0.2712 -0.5621
   42DOPE  H17X 5413   0.591   3.698   4.206  1.5736 -0.4714 -0.4063
   42DOPE  H17Y 5414   0.504   3.730   4.051  0.3291  0.3393 -0.8762
   42DOPE  C318 5415   0.588   3.529   4.063 -0.2683 -0.0207 -0.2374
   42DOPE  H18X 5416   0.675   3.479   4.110 -0.5557  0.4134  0.7900
   42DOPE  H18Y 5417   0.506   3.469   4.109 -0.0672 -1.2033 -1.3770
   42DOPE  H18Z 5418   0.619   3.515   3.957  1.8906  0.1579  0.3205
   43DOPE     N 5419   0.558   3.421   3.139  0.2068 -0.1488  0.2682
   43DOPE   HN1 5420   0.635   3.453   3.078 -0.2012 -0.8456 -0.6273
   43DOPE   HN2 5421   0.486   3.380   3.076  0.8427 -0.4560 -0.2702
   43DOPE   HN3 5422   0.516   3.506   3.184  1.6691  0.7636 -0.0443
   43DOPE   C12 5423   0.598   3.315   3.236  0.4503 -0.0011  0.0865
   43DOPE  H12A 5424   0.504   3.298   3.293  0.7959  0.4440  0.8078
   43DOPE  H12B 5425   0.680   3.355   3.299 -0.6748  0.4498  1.3203
   43DOPE   C11 5426   0.647   3.190   3.164 -0.3316  0.2585  0.0387
   43DOPE  H11A 5427   0.715   3.139   3.237  0.6314  0.4830 -0.6758
   43DOPE  H11B 5428   0.709   3.225   3.079 -0.8531  0.3983 -0.2858
   43DOPE     P 5429   0.497   2.972   3.151  0.2227 -0.1984  0.1711
   43DOPE   O13 5430   0.581   2.870   3.078  0.9876 -0.5694  0.1266
   43DOPE   O14 5431   0.349   2.962   3.138 -0.2851 -0.2301  0.2793
   43DOPE   O11 5432   0.530   2.970   3.307 -0.0592  0.7580 -0.7285
   43DOPE   O12 5433   0.535   3.115   3.102  0.1642  0.2237 -0.0736
   43DOPE    C1 5434   0.592   2.854   3.372  0.1019  0.5441  0.8735
   43DOPE    HA 5435   0.682   2.821   3.316  0.4385  1.3345  0.9335
   43DOPE    HB 5436   0.521   2.768   3.368 -0.0145  0.6785 -0.1472
   43DOPE    C2 5437   0.640   2.871   3.516  0.2351 -0.1742  0.0996
   43DOPE    HS 5438   0.630   2.776   3.573  0.0989  0.2291  0.7564
   43DOPE   O21 5439   0.561   2.965   3.590  0.0900 -0.0362 -0.5048
   43DOPE   C21 5440   0.426   2.936   3.593 -0.4118  0.4210  0.0196
   43DOPE   O22 5441   0.368   2.829   3.584 -0.4659 -0.3085  0.0058
   43DOPE   C22 5442   0.356   3.074   3.608 -0.1558  0.0413  0.4993
   43DOPE   H2R 5443   0.329   3.111   3.507 -0.2821 -0.4902  0.3319
   43DOPE   H2S 5444   0.433   3.141   3.652  0.7852 -0.6843  0.0081
   43DOPE    C3 5445   0.794   2.901   3.539 -0.3960 -0.1446 -0.0157
   43DOPE    HX 5446   0.826   2.916   3.644 -1.9797 -0.0507  0.4816
   43DOPE    HY 5447   0.798   3.003   3.495 -1.9531 -0.9669 -2.2582
   43DOPE   O31 5448   0.877   2.808   3.465 -0.3739  0.4144  0.1133
   43DOPE   C31 5449   0.988   2.858   3.407  0.3746 -0.8141 -0.1199
   43DOPE   O32 5450   1.020   2.973   3.425 -0.3836  0.3281 -0.0677
   43DOPE   C32 5451   1.070   2.762   3.334 -0.1137  0.4354 -0.0165
   43DOPE   H2X 5452   1.013   2.668   3.313 -1.0734  0.9714  0.1183
   43DOPE   H2Y 5453   1.106   2.812   3.242 -0.4514  1.9169  0.6248
   43DOPE   C23 5454   0.222   3.064   3.695 -1.0553 -0.2273 -0.1144
   43DOPE   H3R 5455   0.249   2.990   3.773  0.1558 -2.2063 -2.2590
   43DOPE   H3S 5456   0.139   3.019   3.636  0.4608 -0.4547 -2.1897
   43DOPE   C24 5457   0.170   3.199   3.746 -0.0270  0.0231 -0.1884
   43DOPE   H4R 5458   0.070   3.184   3.790 -0.3246  4.2827  1.0590
   43DOPE   H4S 5459   0.150   3.253   3.651 -0.8396  0.7715  0.3958
   43DOPE   C25 5460   0.253   3.294   3.837  0.9598 -0.2698  0.2436
   43DOPE   H5R 5461   0.337   3.332   3.774  0.7149  0.4174  0.3191
   43DOPE   H5S 5462   0.304   3.240   3.919 -1.3676  0.8964  2.6140
   43DOPE   C26 5463   0.163   3.401   3.893  0.3457 -0.3968 -0.0945
   43DOPE   H6R 5464   0.073   3.353   3.937  0.1808  0.0972  0.1057
   43DOPE   H6S 5465   0.132   3.470   3.812  1.2789  1.2575  0.9157
   43DOPE   C27 5466   0.234   3.483   4.005 -0.5953 -0.2616 -0.0412
   43DOPE   H7R 5467   0.316   3.539   3.955 -1.0828 -0.0364 -0.5870
   43DOPE   H7S 5468   0.276   3.406   4.074 -0.1061  1.0510  1.1839
   43DOPE   C28 5469   0.146   3.581   4.089 -0.3033  0.0596 -0.0884
   43DOPE   H8R 5470   0.049   3.545   4.131 -0.3880  0.6195  0.2088
   43DOPE   H8S 5471   0.107   3.655   4.016  1.8953 -1.3758 -2.9243
   43DOPE   C29 5472   0.229   3.666   4.186  0.2300  0.1426  0.5602
   43DOPE   H9R 5473   0.280   3.754   4.143 -0.3419 -1.0960 -2.9995
   43DOPE  C210 5474   0.274   3.627   4.306 -0.1801 -0.3172  0.1889
   43DOPE  H10R 5475   0.344   3.686   4.368 -2.0301  0.0137  2.0780
   43DOPE  C211 5476   0.239   3.502   4.379  0.4819  0.0938  0.1013
   43DOPE  H11R 5477   0.152   3.450   4.334  1.8361 -0.7039 -1.7070
   43DOPE  H11S 5478   0.212   3.515   4.486 -0.5416 -0.5133 -0.0672
   43DOPE  C212 5479   0.350   3.393   4.373 -0.8694 -0.2191 -0.8328
   43DOPE  H12R 5480   0.366   3.354   4.270  1.4663 -0.0396 -0.5811
   43DOPE  H12S 5481   0.310   3.305   4.428  0.8973  0.0601  0.9785
   43DOPE  C213 5482   0.481   3.446   4.428 -1.3016 -0.5814  0.2239
   43DOPE  H13R 5483   0.455   3.530   4.497 -0.5473 -0.8000  0.7829
   43DOPE  H13S 5484   0.534   3.497   4.345 -1.7910  1.1180  0.8909
   43DOPE  C214 5485   0.569   3.342   4.492 -0.0399  1.0320 -1.0204
   43DOPE  H14R 5486   0.514   3.307   4.582  0.9023  1.6324 -0.1864
   43DOPE  H14S 5487   0.666   3.384   4.527  1.0684 -0.2784 -2.4189
   43DOPE  C215 5488   0.604   3.225   4.400  0.2374  0.3205  0.0564
   43DOPE  H15R 5489   0.632   3.257   4.298 -1.1177  0.0689 -0.4218
   43DOPE  H15S 5490   0.514   3.161   4.388  1.6115 -1.6793 -0.0814
   43DOPE  C216 5491   0.707   3.123   4.446 -0.3573 -0.1424 -0.2297
   43DOPE  H16R 5492   0.714   3.035   4.379  1.0324  0.4945 -0.9557
   43DOPE  H16S 5493   0.690   3.090   4.550  0.8858 -1.0570 -0.3049
   43DOPE  C217 5494   0.855   3.160   4.462 -0.2260  0.2559  0.3186
   43DOPE  H17R 5495   0.914   3.078   4.508  0.4996  0.0563 -0.9192
   43DOPE  H17S 5496   0.857   3.239   4.540  1.4417  1.5190 -0.9241
   43DOPE  C218 5497   0.916   3.204   4.329 -0.4766  0.5052  0.6600
   43DOPE  H18R 5498   1.012   3.254   4.350 -0.1258 -0.4374  1.4214
   43DOPE  H18S 5499   0.855   3.274   4.268  0.7206 -0.1912 -1.4391
   43DOPE  H18T 5500   0.925   3.118   4.259 -1.8235  0.0447  1.0027
   43DOPE   C33 5501   1.199   2.730   3.419 -0.1188 -0.1901 -0.2702
   43DOPE   H3X 5502   1.236   2.831   3.445 -0.2765 -0.5645  1.5171
   43DOPE   H3Y 5503   1.256   2.679   3.339 -1.4688 -0.1501 -1.3000
   43DOPE   C34 5504   1.167   2.628   3.530 -0.5047 -0.4024  0.9409
   43DOPE   H4X 5505   1.097   2.669   3.605  0.6876  2.0691  0.8160
   43DOPE   H4Y 5506   1.119   2.538   3.486  0.4761  0.3274 -1.8845
   43DOPE   C35 5507   1.287   2.582   3.620  0.2387 -0.3463 -0.4770
   43DOPE   H5X 5508   1.338   2.665   3.675 -0.3476 -0.6121  0.4868
   43DOPE   H5Y 5509   1.362   2.562   3.540  0.0113 -0.3932 -0.6779
   43DOPE   C36 5510   1.265   2.459   3.709 -0.7660 -1.1459 -1.1174
   43DOPE   H6X 5511   1.252   2.363   3.654 -0.3099 -2.8188  1.5471
   43DOPE   H6Y 5512   1.175   2.477   3.771  0.5437 -1.9946  1.1622
   43DOPE   C37 5513   1.380   2.438   3.811  0.2237 -0.0251 -0.1970
   43DOPE   H7X 5514   1.475   2.480   3.772  0.8172  0.6016  1.8267
   43DOPE   H7Y 5515   1.373   2.504   3.900  1.9888 -2.5085  1.9301
   43DOPE   C38 5516   1.387   2.292   3.866 -0.5918  0.1861 -0.3114
   43DOPE   H8X 5517   1.475   2.298   3.933  0.6356  0.1839 -1.8504
   43DOPE   H8Y 5518   1.402   2.225   3.778 -0.6075 -1.5737  0.9676
   43DOPE   C39 5519   1.263   2.242   3.937 -0.0938  0.0817 -0.3848
   43DOPE   H9X 5520   1.169   2.263   3.884 -0.4528  3.2249  1.2405
   43DOPE  C310 5521   1.261   2.167   4.051  0.5250 -0.2468 -0.7073
   43DOPE  H10X 5522   1.160   2.145   4.088  0.5015 -1.5631 -1.4815
   43DOPE  C311 5523   1.375   2.139   4.138 -0.1987  0.4465  0.3729
   43DOPE  H11X 5524   1.431   2.050   4.103  0.0186  0.8516 -0.3255
   43DOPE  H11Y 5525   1.440   2.230   4.141 -0.6265  0.8393 -1.2501
   43DOPE  C312 5526   1.328   2.114   4.282  0.0884  0.0488 -0.1799
   43DOPE  H12X 5527   1.405   2.099   4.360 -0.3735  0.0551  0.2879
   43DOPE  H12Y 5528   1.269   2.019   4.288 -0.9479  0.7162  0.4917
   43DOPE  C313 5529   1.239   2.222   4.332 -0.1766  0.1434  0.4127
   43DOPE  H13X 5530   1.286   2.320   4.308 -2.0898  0.9029 -0.4741
   43DOPE  H13Y 5531   1.133   2.221   4.298 -0.2750 -3.3049  0.4971
   43DOPE  C314 5532   1.218   2.225   4.487 -0.5622 -0.0438 -0.1717
   43DOPE  H14X 5533   1.175   2.325   4.511 -0.4827  0.1764 -0.9123
   43DOPE  H14Y 5534   1.306   2.205   4.551 -0.2281  0.2995 -0.5221
   43DOPE  C315 5535   1.100   2.130   4.541 -0.1674 -0.7425 -0.4061
   43DOPE  H15X 5536   1.144   2.029   4.557 -2.7973 -1.8991  0.1026
   43DOPE  H15Y 5537   1.018   2.118   4.467 -1.1299  1.0719  0.2973
   43DOPE  C316 5538   1.051   2.185   4.670 -0.7401  0.5884  0.0478
   43DOPE  H16X 5539   0.979   2.268   4.653 -1.2348 -0.1564 -1.6319
   43DOPE  H16Y 5540   1.146   2.223   4.715  0.1460 -0.4039 -0.9156
   43DOPE  C317 5541   0.985   2.076   4.753 -0.0672 -0.2769 -0.1374
   43DOPE  H17X 5542   0.905   2.021   4.699 -0.7085 -0.2415  0.7506
   43DOPE  H17Y 5543   1.074   2.012   4.771 -0.0121 -0.4803 -1.0821
   43DOPE  C318 5544   0.950   2.126   4.892  0.5072 -0.2208  0.1192
   43DOPE  H18X 5545   0.889   2.052   4.949  0.3627  0.5195  0.9469
   43DOPE  H18Y 5546   1.044   2.145   4.947  0.7473 -1.0119 -0.0087
   43DOPE  H18Z 5547   0.889   2.219   4.892 -1.7956 -1.6606 -0.2275
   44DOPE     N 5548   2.286   1.004   3.115 -0.1876 -0.1293 -0.3320
   44DOPE   HN1 5549   2.370   0.962   3.071 -2.0737 -3.6693 -0.9289
   44DOPE   HN2 5550   2.246   1.075   3.049  0.3603  1.5760  1.0879
   44DOPE   HN3 5551   2.316   1.067   3.192 -2.1508 -0.8062  1.0511
   44DOPE   C12 5552   2.181   0.908   3.188 -0.6560 -0.8072  1.0125
   44DOPE  H12A 5553   2.240   0.861   3.269  0.3084  0.6838  1.2201
   44DOPE  H12B 5554   2.157   0.830   3.113  1.4062  1.2253 -1.9681
   44DOPE   C11 5555   2.054   0.987   3.238 -0.3784  0.1157 -0.5558
   44DOPE  H11A 5556   2.090   1.061   3.313  0.5130 -0.6031 -0.2544
   44DOPE  H11B 5557   1.983   0.917   3.286  0.5110 -2.3270 -2.5741
   44DOPE     P 5558   1.914   1.185   3.159  0.4010  0.0316  0.1040
   44DOPE   O13 5559   1.824   1.215   3.046 -0.4149 -0.3068  0.0678
   44DOPE   O14 5560   2.008   1.290   3.183 -0.1857 -0.7512  0.2507
   44DOPE   O11 5561   1.820   1.141   3.281  0.9018 -0.2150 -0.6295
   44DOPE   O12 5562   1.993   1.056   3.128  0.5339  0.1182 -0.4195
   44DOPE    C1 5563   1.718   1.050   3.236 -0.1468 -0.3946  0.6763
   44DOPE    HA 5564   1.755   0.967   3.173  1.2128  0.6151  0.0811
   44DOPE    HB 5565   1.655   1.105   3.163  0.7931  0.5451  0.5483
   44DOPE    C2 5566   1.653   0.980   3.362  0.1730 -0.1561  0.3976
   44DOPE    HS 5567   1.623   1.064   3.429  0.5291  0.5823 -0.3499
   44DOPE   O21 5568   1.757   0.911   3.433  0.3287  0.0214  0.5222
   44DOPE   C21 5569   1.719   0.877   3.552  0.3973  0.3118  0.2195
   44DOPE   O22 5570   1.607   0.890   3.602 -0.3120  0.2947 -0.1705
   44DOPE   C22 5571   1.834   0.806   3.623  0.3631  0.5250 -0.1552
   44DOPE   H2R 5572   1.930   0.863   3.622  0.8424 -0.2731 -0.4960
   44DOPE   H2S 5573   1.857   0.706   3.580  0.8855  0.0871  1.1054
   44DOPE    C3 5574   1.529   0.895   3.311  0.0276  0.0889  0.2385
   44DOPE    HX 5575   1.454   0.967   3.271  0.7473  0.7880  0.1137
   44DOPE    HY 5576   1.478   0.845   3.396  0.2197 -0.1570  0.2089
   44DOPE   O31 5577   1.558   0.798   3.203 -0.1161  0.0119  0.2716
   44DOPE   C31 5578   1.603   0.683   3.255 -0.2609  0.1352  0.4464
   44DOPE   O32 5579   1.598   0.646   3.368  0.9012  0.0510 -0.7916
   44DOPE   C32 5580   1.667   0.602   3.143 -0.3801  1.0977  0.4423
   44DOPE   H2X 5581   1.585   0.541   3.101 -0.9727  2.0122  0.2376
   44DOPE   H2Y 5582   1.690   0.674   3.061  0.8098  0.3632  0.1123
   44DOPE   C23 5583   1.806   0.794   3.773  0.3309  0.2924  0.2905
   44DOPE   H3R 5584   1.712   0.736   3.786  0.6122 -0.1944  0.1649
   44DOPE   H3S 5585   1.784   0.891   3.821 -1.6256 -0.4828  1.0660
   44DOPE   C24 5586   1.925   0.739   3.849  0.3928 -0.5499  0.2945
   44DOPE   H4R 5587   2.015   0.803   3.836 -1.0361  1.4688 -0.1944
   44DOPE   H4S 5588   1.950   0.640   3.805 -1.0032 -0.7777 -0.0280
   44DOPE   C25 5589   1.887   0.735   3.993 -0.1149 -0.1199  0.0497
   44DOPE   H5R 5590   1.795   0.681   4.022  0.2878 -1.5590 -1.2317
   44DOPE   H5S 5591   1.863   0.840   4.022  2.9557  1.2393 -1.7656
   44DOPE   C26 5592   2.000   0.681   4.086  1.1931 -0.1970  0.0786
   44DOPE   H6R 5593   2.099   0.722   4.057  0.7865  0.1714 -0.8203
   44DOPE   H6S 5594   2.009   0.571   4.079 -0.2067 -0.4349  1.4323
   44DOPE   C27 5595   1.956   0.679   4.240 -0.0143  0.2726 -0.1351
   44DOPE   H7R 5596   1.867   0.616   4.257 -0.6013  1.1459  0.1276
   44DOPE   H7S 5597   1.931   0.784   4.268 -0.5914 -0.1084  0.8162
   44DOPE   C28 5598   2.069   0.622   4.340  0.0528 -0.0757  0.0390
   44DOPE   H8R 5599   2.084   0.512   4.333  1.0926 -0.0968  1.8400
   44DOPE   H8S 5600   2.040   0.642   4.446 -0.3130 -1.6608  0.2742
   44DOPE   C29 5601   2.192   0.700   4.334  0.3555  0.0650 -0.5148
   44DOPE   H9R 5602   2.180   0.804   4.367  2.6819  1.1477 -2.7451
   44DOPE  C210 5603   2.313   0.669   4.283  0.2229  0.6030 -0.0509
   44DOPE  H10R 5604   2.388   0.749   4.282  1.8372 -0.8699 -0.8872
   44DOPE  C211 5605   2.352   0.542   4.218  0.0229  0.4828  0.4874
   44DOPE  H11R 5606   2.266   0.485   4.176  2.4685 -1.9482 -1.6918
   44DOPE  H11S 5607   2.392   0.460   4.281 -2.4061 -2.4912 -1.5212
   44DOPE  C212 5608   2.444   0.578   4.095 -0.2496  0.4698 -0.4343
   44DOPE  H12R 5609   2.526   0.634   4.145  0.0955 -1.1855  0.9529
   44DOPE  H12S 5610   2.398   0.650   4.023  0.1442  0.0211 -1.1486
   44DOPE  C213 5611   2.499   0.448   4.032 -0.2796  0.0586 -0.7858
   44DOPE  H13R 5612   2.416   0.392   3.983  1.1177 -5.1904  2.1986
   44DOPE  H13S 5613   2.545   0.381   4.108  0.9565 -0.2767 -1.7892
   44DOPE  C214 5614   2.619   0.477   3.938 -0.4296 -0.7717  0.6558
   44DOPE  H14R 5615   2.693   0.537   3.994  0.0120 -1.0129  0.3344
   44DOPE  H14S 5616   2.583   0.542   3.855  1.7967  1.7554  1.5327
   44DOPE  C215 5617   2.675   0.346   3.885 -0.3740 -0.1422  0.1045
   44DOPE  H15R 5618   2.593   0.287   3.838  0.2500 -1.4528  0.6235
   44DOPE  H15S 5619   2.720   0.284   3.965 -0.1442 -1.7103 -1.1843
   44DOPE  C216 5620   2.787   0.364   3.779 -0.2084 -0.4278 -0.1145
   44DOPE  H16R 5621   2.827   0.261   3.764  0.6027 -0.1127 -0.1390
   44DOPE  H16S 5622   2.865   0.434   3.813 -0.6734 -0.4860  1.1226
   44DOPE  C217 5623   2.728   0.426   3.650  0.7560 -0.1647 -0.6389
   44DOPE  H17R 5624   2.682   0.526   3.662 -0.6071 -0.7163 -1.0633
   44DOPE  H17S 5625   2.651   0.356   3.610  0.0848 -1.2109  2.2348
   44DOPE  C218 5626   2.834   0.460   3.536  0.1820  0.4357  0.5437
   44DOPE  H18R 5627   2.774   0.478   3.444 -0.6285 -2.0802  0.5221
   44DOPE  H18S 5628   2.898   0.371   3.521  0.5010  0.5552  1.1842
   44DOPE  H18T 5629   2.893   0.551   3.562  0.1352  1.1923 -1.7815
   44DOPE   C33 5630   1.791   0.534   3.189 -0.1003  0.3275  0.0695
   44DOPE   H3X 5631   1.808   0.438   3.136  2.5780 -1.0998  3.1504
   44DOPE   H3Y 5632   1.793   0.501   3.295 -0.6312 -2.1545 -0.6364
   44DOPE   C34 5633   1.909   0.630   3.171  0.1671 -0.0102  0.5960
   44DOPE   H4X 5634   1.885   0.676   3.072  0.9464  1.1178  0.9199
   44DOPE   H4Y 5635   1.913   0.715   3.242  2.1454  2.0363 -1.7660
   44DOPE   C35 5636   2.038   0.553   3.163 -0.2523  0.1043 -0.2265
   44DOPE   H5X 5637   2.106   0.600   3.088  0.4641 -0.0336  0.3259
   44DOPE   H5Y 5638   2.014   0.448   3.135 -1.8271  0.0153  1.3031
   44DOPE   C36 5639   2.110   0.561   3.297 -0.4511 -0.3771 -0.1933
   44DOPE   H6X 5640   2.050   0.498   3.367  0.7575 -0.2188  1.0372
   44DOPE   H6Y 5641   2.124   0.663   3.339  0.0250 -0.3058 -0.5234
   44DOPE   C37 5642   2.240   0.489   3.278  0.4260 -0.1407 -0.3667
   44DOPE   H7X 5643   2.201   0.386   3.259 -0.4073 -0.0853  0.9540
   44DOPE   H7Y 5644   2.301   0.516   3.189 -1.1859 -0.8567 -1.7492
   44DOPE   C38 5645   2.323   0.470   3.407 -0.2782  0.2341  0.1394
   44DOPE   H8X 5646   2.257   0.415   3.476 -0.2259  0.2730  0.2214
   44DOPE   H8Y 5647   2.345   0.566   3.459 -1.2701 -0.2910  1.5806
   44DOPE   C39 5648   2.452   0.399   3.390  0.1349 -0.0556  0.4819
   44DOPE   H9X 5649   2.535   0.469   3.375 -0.5900  0.4285 -1.7183
   44DOPE  C310 5650   2.469   0.265   3.394 -0.4398 -0.4134 -0.2804
   44DOPE  H10X 5651   2.565   0.224   3.360 -0.6962 -0.7991 -0.5523
   44DOPE  C311 5652   2.364   0.162   3.417 -0.1900  0.5745  0.6289
   44DOPE  H11X 5653   2.274   0.185   3.356 -1.3256  1.7589  2.6596
   44DOPE  H11Y 5654   2.403   0.073   3.364  0.6499  1.7270 -0.7755
   44DOPE  C312 5655   2.338   0.102   3.558 -0.5547 -0.0544 -0.6458
   44DOPE  H12X 5656   2.437   0.064   3.594 -1.2851  0.4304  2.1477
   44DOPE  H12Y 5657   2.264   0.021   3.541  1.6702 -2.0147 -1.4985
   44DOPE  C313 5658   2.282   0.197   3.659  0.6404 -0.3128  0.0572
   44DOPE  H13X 5659   2.351   0.267   3.711  0.3120  1.9109 -2.3003
   44DOPE  H13Y 5660   2.212   0.274   3.621  0.4151 -0.2520  0.5814
   44DOPE  C314 5661   2.208   0.111   3.767 -0.4869 -0.5109 -0.1542
   44DOPE  H14X 5662   2.285   0.042   3.808 -3.3309 -2.3968  2.5021
   44DOPE  H14Y 5663   2.125   0.053   3.720 -1.7346 -0.2566  1.6169
   44DOPE  C315 5664   2.163   0.197   3.879  0.0145 -0.4697  0.3195
   44DOPE  H15X 5665   2.082   0.258   3.835  0.0579 -1.5255 -1.2939
   44DOPE  H15Y 5666   2.241   0.270   3.909 -1.6409  0.0856  3.7805
   44DOPE  C316 5667   2.101   0.126   4.005 -0.1043  0.2600 -0.3547
   44DOPE  H16X 5668   2.162   0.042   4.043  1.7087  1.1472 -1.1805
   44DOPE  H16Y 5669   2.004   0.088   3.964 -1.1180  1.2893  0.9814
   44DOPE  C317 5670   2.068   0.226   4.115  0.2331 -0.6125 -0.0395
   44DOPE  H17X 5671   2.159   0.280   4.149 -0.4466  0.8391 -0.4081
   44DOPE  H17Y 5672   1.993   0.298   4.075  0.0387 -0.8742 -0.1497
   44DOPE  C318 5673   2.016   0.153   4.239 -0.6296  0.4678 -0.6713
   44DOPE  H18X 5674   1.977   0.224   4.315  0.0748  0.7641 -0.5800
   44DOPE  H18Y 5675   1.938   0.076   4.222 -0.4128 -0.8307  3.2316
   44DOPE  H18Z 5676   2.099   0.091   4.279  0.2543  0.9992 -1.6224
   45DOPE     N 5677   2.783   6.411   3.295 -0.0312  0.6296  0.1479
   45DOPE   HN1 5678   2.811   6.316   3.262  0.5696  0.8133  0.1158
   45DOPE   HN2 5679   2.848   6.428   3.374  0.6618  0.9588 -0.4822
   45DOPE   HN3 5680   2.688   6.396   3.335  0.2243 -0.1047  0.5037
   45DOPE   C12 5681   2.803   6.499   3.174  0.1862  0.0114 -0.0574
   45DOPE  H12A 5682   2.777   6.604   3.199  1.0756  0.4016 -0.7277
   45DOPE  H12B 5683   2.732   6.455   3.101 -1.0856  3.4001 -1.0671
   45DOPE   C11 5684   2.942   6.483   3.123  0.4491 -0.1979 -0.4257
   45DOPE  H11A 5685   3.016   6.535   3.188  1.6904 -1.2492 -0.9604
   45DOPE  H11B 5686   2.950   6.531   3.023 -1.2411 -0.0825 -0.5240
   45DOPE     P 5687   3.122   6.302   3.029  0.0358 -0.1132  0.0860
   45DOPE   O13 5688   3.139   6.353   2.890 -0.1009 -0.0688 -0.6750
   45DOPE   O14 5689   3.126   6.155   3.054  0.1912 -0.1311 -0.6912
   45DOPE   O11 5690   3.238   6.369   3.118 -0.1558  0.1872  0.1647
   45DOPE   O12 5691   2.981   6.350   3.096 -0.1727  0.0440 -0.3508
   45DOPE    C1 5692   3.259   6.331   3.254 -0.2494  0.1482  0.1237
   45DOPE    HA 5693   3.277   6.221   3.261  2.1831  0.4378 -0.7876
   45DOPE    HB 5694   3.162   6.345   3.307  0.0711  3.2056  0.0421
   45DOPE    C2 5695   3.359   6.415   3.340  0.1980  0.3819  0.1721
   45DOPE    HS 5696   3.334   6.398   3.446 -1.5582  0.3770 -0.2129
   45DOPE   O21 5697   3.345   6.553   3.300 -0.1388 -0.5703  0.4804
   45DOPE   C21 5698   3.254   6.623   3.367  0.4782  0.3159  0.7405
   45DOPE   O22 5699   3.170   6.576   3.446 -0.0973 -0.2528  0.0015
   45DOPE   C22 5700   3.264   6.771   3.331 -0.0497 -0.0556 -0.4325
   45DOPE   H2R 5701   3.164   6.814   3.351  0.1707  0.2057  0.1118
   45DOPE   H2S 5702   3.293   6.763   3.223 -0.6270 -2.2926 -0.4553
   45DOPE    C3 5703   3.507   6.376   3.320 -0.3995  0.6683 -1.2762
   45DOPE    HX 5704   3.541   6.390   3.216  0.4926 -2.0325 -1.4165
   45DOPE    HY 5705   3.507   6.268   3.345 -2.6560  1.0334  0.8147
   45DOPE   O31 5706   3.591   6.433   3.425  0.7278  0.6669  0.4193
   45DOPE   C31 5707   3.655   6.544   3.405  0.5049  0.3050  0.5593
   45DOPE   O32 5708   3.640   6.616   3.303 -0.2211 -0.4189 -0.8293
   45DOPE   C32 5709   3.747   6.577   3.522 -0.6110 -0.2265  0.1735
   45DOPE   H2X 5710   3.778   6.482   3.569  1.7580 -0.8883 -2.4548
   45DOPE   H2Y 5711   3.837   6.627   3.479 -0.9649 -0.7043 -1.1625
   45DOPE   C23 5712   3.370   6.845   3.417  0.3790  0.3459 -0.0077
   45DOPE   H3R 5713   3.385   6.945   3.372  1.2434  1.4760  2.5491
   45DOPE   H3S 5714   3.469   6.794   3.414 -0.1916 -1.0349  2.0575
   45DOPE   C24 5715   3.336   6.872   3.570  0.2581  0.0362 -0.1346
   45DOPE   H4R 5716   3.432   6.882   3.625  1.8893  0.0717 -2.8208
   45DOPE   H4S 5717   3.271   6.788   3.604 -1.0958  0.5953 -1.2050
   45DOPE   C25 5718   3.257   7.002   3.582 -0.8435 -0.5116 -0.2664
   45DOPE   H5R 5719   3.171   7.007   3.512  0.1616  1.5958 -1.4116
   45DOPE   H5S 5720   3.331   7.078   3.551  0.8106 -1.9389  0.0317
   45DOPE   C26 5721   3.215   7.019   3.726 -0.0078 -0.5669 -0.0384
   45DOPE   H6R 5722   3.185   7.124   3.742  2.0967 -0.2748  2.7998
   45DOPE   H6S 5723   3.309   7.003   3.783 -0.1176 -0.2156  0.2405
   45DOPE   C27 5724   3.098   6.927   3.764  0.0431  0.3222 -0.1545
   45DOPE   H7R 5725   3.137   6.843   3.825  0.1304  1.1923  1.0101
   45DOPE   H7S 5726   3.047   6.889   3.673 -0.1531 -0.0576  0.1124
   45DOPE   C28 5727   2.981   6.999   3.828  0.4059  0.2319  0.2229
   45DOPE   H8R 5728   2.945   7.077   3.757  0.0853 -0.6628 -0.6148
   45DOPE   H8S 5729   3.012   7.046   3.924  1.4913  0.9718 -0.4780
   45DOPE   C29 5730   2.873   6.894   3.859  0.4554  0.1056  0.1088
   45DOPE   H9R 5731   2.886   6.798   3.806 -0.8850 -0.2112  0.3258
   45DOPE  C210 5732   2.769   6.905   3.944  0.3303  0.7467 -0.1934
   45DOPE  H10R 5733   2.693   6.826   3.933  1.2880 -0.2272 -0.0296
   45DOPE  C211 5734   2.732   7.017   4.032  0.2458 -0.1894 -0.4741
   45DOPE  H11R 5735   2.623   7.041   4.028  0.7080  2.4630  0.7374
   45DOPE  H11S 5736   2.780   7.112   3.999  1.7527 -0.9487 -0.5342
   45DOPE  C212 5737   2.775   6.980   4.181 -0.1994  0.4538 -0.4651
   45DOPE  H12R 5738   2.744   7.060   4.252 -1.2428 -0.8147  0.5697
   45DOPE  H12S 5739   2.886   6.976   4.184 -0.2310 -2.6204  2.2456
   45DOPE  C213 5740   2.716   6.847   4.233 -0.1735  0.1882  0.8128
   45DOPE  H13R 5741   2.731   6.843   4.343 -2.1353  1.0562  1.1573
   45DOPE  H13S 5742   2.765   6.758   4.188  1.7954  1.9088 -0.5893
   45DOPE  C214 5743   2.560   6.825   4.206 -0.2831  0.4102 -0.0012
   45DOPE  H14R 5744   2.536   6.728   4.255  0.1897  1.2297  1.9386
   45DOPE  H14S 5745   2.535   6.828   4.097 -0.4798  1.6913  0.0668
   45DOPE  C215 5746   2.476   6.928   4.279  0.1691 -0.2884  0.6782
   45DOPE  H15R 5747   2.503   7.024   4.230 -1.5579 -0.8933 -1.6413
   45DOPE  H15S 5748   2.492   6.926   4.389  2.6788 -0.6484  0.3607
   45DOPE  C216 5749   2.329   6.917   4.264 -0.1890 -0.4124  0.3700
   45DOPE  H16R 5750   2.312   6.815   4.305  3.1915 -1.4437 -0.4868
   45DOPE  H16S 5751   2.311   6.904   4.155 -1.7007  1.3084  0.3645
   45DOPE  C217 5752   2.256   7.026   4.340  0.2658 -0.0968  0.2393
   45DOPE  H17R 5753   2.289   7.118   4.289 -1.8503  0.3923 -0.3537
   45DOPE  H17S 5754   2.290   7.025   4.446  0.4909 -0.2836  0.1664
   45DOPE  C218 5755   2.106   7.012   4.323 -0.0053  0.2409  0.6201
   45DOPE  H18R 5756   2.068   6.913   4.357  0.2409 -0.1524 -0.2208
   45DOPE  H18S 5757   2.078   7.020   4.216 -2.3330 -0.6421  1.1121
   45DOPE  H18T 5758   2.051   7.090   4.380  0.5605  0.4081  0.9439
   45DOPE   C33 5759   3.675   6.676   3.620  0.0448  0.4435  0.4715
   45DOPE   H3X 5760   3.578   6.638   3.660 -0.2524  0.9646  0.2514
   45DOPE   H3Y 5761   3.655   6.775   3.574  0.5758 -0.3884 -1.6606
   45DOPE   C34 5762   3.765   6.694   3.744  0.2444  0.1109  0.2180
   45DOPE   H4X 5763   3.778   6.590   3.780 -0.9751  0.3812  1.5504
   45DOPE   H4Y 5764   3.867   6.729   3.721  0.0695  1.9968  2.0040
   45DOPE   C35 5765   3.704   6.783   3.854 -0.7773  0.2823  0.3419
   45DOPE   H5X 5766   3.771   6.774   3.942  0.0914  0.1851 -0.3141
   45DOPE   H5Y 5767   3.609   6.733   3.883 -0.1853 -0.5288  0.9371
   45DOPE   C36 5768   3.689   6.931   3.820  0.3401 -0.3062 -0.4581
   45DOPE   H6X 5769   3.619   6.950   3.736  1.6001 -2.7074 -2.1439
   45DOPE   H6Y 5770   3.790   6.959   3.782 -0.2839 -1.5687 -3.2660
   45DOPE   C37 5771   3.637   7.009   3.941 -0.4596 -0.1399 -0.3445
   45DOPE   H7X 5772   3.714   7.009   4.021 -2.4182  1.3180  1.6947
   45DOPE   H7Y 5773   3.632   7.117   3.918  0.1367 -0.2270 -0.8947
   45DOPE   C38 5774   3.513   6.952   4.000 -0.1347  0.3321 -0.1206
   45DOPE   H8X 5775   3.548   6.869   4.064 -1.5718  0.5315  0.9812
   45DOPE   H8Y 5776   3.455   6.922   3.910  1.2783  0.2766 -1.0443
   45DOPE   C39 5777   3.433   7.042   4.085  0.7745  0.6805  0.8015
   45DOPE   H9X 5778   3.478   7.139   4.109  0.7409  0.7755  0.4890
   45DOPE  C310 5779   3.329   6.999   4.151 -0.2533  0.0650  0.5815
   45DOPE  H10X 5780   3.265   7.069   4.207  0.5256  2.1649 -1.0103
   45DOPE  C311 5781   3.269   6.864   4.145 -0.1132  0.1845  0.4225
   45DOPE  H11X 5782   3.160   6.862   4.125 -0.1333 -0.0958  0.5596
   45DOPE  H11Y 5783   3.303   6.805   4.057 -1.7276 -0.8056  0.4364
   45DOPE  C312 5784   3.294   6.786   4.279  0.3665 -0.0694  0.5918
   45DOPE  H12X 5785   3.402   6.760   4.288  0.4510 -0.2257 -0.7086
   45DOPE  H12Y 5786   3.251   6.686   4.260  0.0396  0.3346 -0.9571
   45DOPE  C313 5787   3.254   6.845   4.415  0.3615  0.0757 -0.3901
   45DOPE  H13X 5788   3.257   6.755   4.480 -0.1120  0.3419  0.0110
   45DOPE  H13Y 5789   3.334   6.908   4.458  1.8849 -1.9018 -0.2088
   45DOPE  C314 5790   3.118   6.912   4.412  0.3578 -0.0648 -0.0668
   45DOPE  H14X 5791   3.054   6.835   4.364  0.9883  0.8756 -2.6051
   45DOPE  H14Y 5792   3.111   7.003   4.348 -0.6367 -0.2661 -0.2653
   45DOPE  C315 5793   3.061   6.951   4.549 -0.4889  0.8278 -0.9453
   45DOPE  H15X 5794   2.962   6.993   4.523 -1.6354 -1.6419 -0.8804
   45DOPE  H15Y 5795   3.126   7.024   4.603 -0.1332  1.1562 -1.7947
   45DOPE  C316 5796   3.042   6.835   4.650  0.2817 -0.0104 -0.3121
   45DOPE  H16X 5797   3.022   6.883   4.748  0.3420  2.1791 -1.3192
   45DOPE  H16Y 5798   3.131   6.768   4.655  0.3704  0.0725 -0.7217
   45DOPE  C317 5799   2.928   6.732   4.623  0.6694  0.0744  0.2886
   45DOPE  H17X 5800   2.841   6.788   4.584  0.8067 -0.0599 -0.2189
   45DOPE  H17Y 5801   2.958   6.668   4.537  1.7576 -1.7457  1.9291
   45DOPE  C318 5802   2.890   6.633   4.734 -0.4114 -0.5031 -0.1378
   45DOPE  H18X 5803   2.874   6.684   4.831  0.6810  2.7671 -1.5465
   45DOPE  H18Y 5804   2.806   6.563   4.711 -0.9321 -0.4442  1.4437
   45DOPE  H18Z 5805   2.973   6.561   4.753 -1.7650 -2.1071 -0.0113
   46DOPE     N 5806   5.156   5.746   2.894 -0.0740  0.5540 -0.3330
   46DOPE   HN1 5807   5.230   5.683   2.929 -0.2770  1.2551  1.4532
   46DOPE   HN2 5808   5.128   5.723   2.796  0.9126 -0.2363 -0.4492
   46DOPE   HN3 5809   5.195   5.843   2.896  0.5841  0.3920 -2.3446
   46DOPE   C12 5810   5.045   5.710   2.994 -0.1643 -0.5115 -0.0190
   46DOPE  H12A 5811   5.080   5.753   3.090 -1.3484 -0.7342  0.5326
   46DOPE  H12B 5812   5.028   5.600   2.999  3.5145 -1.3851 -2.6819
   46DOPE   C11 5813   4.921   5.793   2.955 -0.8529  0.1628  0.4685
   46DOPE  H11A 5814   4.845   5.779   3.035 -0.5403  1.7820  1.1020
   46DOPE  H11B 5815   4.881   5.762   2.856  1.8859 -0.3057 -0.5792
   46DOPE     P 5816   4.864   6.034   2.879  0.3858 -0.3611 -0.0212
   46DOPE   O13 5817   4.780   5.967   2.775  0.0365 -0.2242 -0.0260
   46DOPE   O14 5818   4.945   6.149   2.831 -0.3705  0.0402  0.4389
   46DOPE   O11 5819   4.764   6.094   2.986 -0.1380 -0.5414 -0.3004
   46DOPE   O12 5820   4.958   5.931   2.946  0.0358  0.0164 -0.0291
   46DOPE    C1 5821   4.803   6.207   3.070  0.3164 -0.2888  0.1843
   46DOPE    HA 5822   4.715   6.245   3.126 -1.1929 -2.6364 -0.4506
   46DOPE    HB 5823   4.834   6.290   3.003  0.7701 -1.2839 -0.8642
   46DOPE    C2 5824   4.924   6.179   3.164 -0.3637  0.3034  0.1420
   46DOPE    HS 5825   5.017   6.154   3.108 -1.1489 -1.1449 -0.5701
   46DOPE   O21 5826   4.888   6.074   3.250 -0.1505 -0.3361  0.0210
   46DOPE   C21 5827   4.980   6.006   3.300  1.2047 -0.4976  0.8135
   46DOPE   O22 5828   5.089   5.977   3.254 -0.7676  0.3203  0.2426
   46DOPE   C22 5829   4.926   5.948   3.435 -0.6611  0.1261  0.5391
   46DOPE   H2R 5830   4.953   5.840   3.431  0.6012  0.4116  1.0062
   46DOPE   H2S 5831   4.815   5.961   3.434 -0.6710  0.0779  0.8964
   46DOPE    C3 5832   4.977   6.304   3.246  0.5029  0.4117 -0.1598
   46DOPE    HX 5833   4.894   6.326   3.317  1.0609 -0.5018  0.8221
   46DOPE    HY 5834   4.990   6.387   3.174 -0.1591  1.3814  0.8051
   46DOPE   O31 5835   5.095   6.266   3.316 -0.2772 -0.1140 -0.1256
   46DOPE   C31 5836   5.197   6.349   3.302 -0.5790  0.1543  0.6061
   46DOPE   O32 5837   5.213   6.426   3.204 -0.1727 -0.3246 -0.3747
   46DOPE   C32 5838   5.293   6.344   3.417 -0.1699  0.0507  0.4939
   46DOPE   H2X 5839   5.258   6.274   3.496  1.0163  1.1630  2.0684
   46DOPE   H2Y 5840   5.388   6.302   3.380 -0.6575 -2.1410  1.5805
   46DOPE   C23 5841   4.977   6.016   3.564 -0.3661  0.7073 -0.1989
   46DOPE   H3R 5842   5.085   6.043   3.552  0.2844 -1.2667  0.8491
   46DOPE   H3S 5843   4.962   5.958   3.657  0.8759  0.4116 -0.1659
   46DOPE   C24 5844   4.911   6.150   3.588 -0.1507  0.5292  0.1031
   46DOPE   H4R 5845   4.805   6.133   3.616  0.4897  0.5413  2.7675
   46DOPE   H4S 5846   4.900   6.208   3.494 -0.9544 -0.3638 -0.3691
   46DOPE   C25 5847   4.965   6.233   3.697  0.2638 -0.4422 -0.0228
   46DOPE   H5R 5848   4.887   6.298   3.741 -0.2901 -1.1407  0.0510
   46DOPE   H5S 5849   5.037   6.303   3.651 -3.2273  2.7047 -1.2116
   46DOPE   C26 5850   5.017   6.151   3.817  0.0470 -0.2786  0.4651
   46DOPE   H6R 5851   5.100   6.081   3.791 -1.0669 -1.7276  0.6736
   46DOPE   H6S 5852   4.935   6.085   3.852 -1.1583 -1.0695 -3.3839
   46DOPE   C27 5853   5.063   6.251   3.919 -0.0739 -0.1079 -0.1960
   46DOPE   H7R 5854   4.976   6.312   3.947  0.2445  1.2412 -1.9687
   46DOPE   H7S 5855   5.134   6.323   3.872 -0.5532  0.4963  0.0026
   46DOPE   C28 5856   5.136   6.186   4.048 -0.6413  0.4957  0.4203
   46DOPE   H8R 5857   5.197   6.263   4.100  0.4439 -0.1898  0.2124
   46DOPE   H8S 5858   5.197   6.099   4.016 -1.5194 -1.1082  2.8728
   46DOPE   C29 5859   5.033   6.127   4.144  0.8495 -0.5441 -0.9566
   46DOPE   H9R 5860   4.950   6.069   4.103  1.4898 -2.0594 -0.2033
   46DOPE  C210 5861   5.046   6.105   4.274 -0.4946  0.1354 -1.0707
   46DOPE  H10R 5862   4.955   6.072   4.326 -0.3055  0.2298 -0.6823
   46DOPE  C211 5863   5.171   6.138   4.360 -0.0079 -0.6532 -0.3848
   46DOPE  H11R 5864   5.260   6.115   4.298  1.1112  0.5725  0.7086
   46DOPE  H11S 5865   5.178   6.071   4.448 -2.9748 -0.1467  0.3437
   46DOPE  C212 5866   5.194   6.288   4.402 -0.3862  0.1770  0.2578
   46DOPE  H12R 5867   5.186   6.343   4.306 -0.1738 -0.1670  0.0383
   46DOPE  H12S 5868   5.299   6.294   4.438 -0.6378 -1.0069  1.2598
   46DOPE  C213 5869   5.100   6.338   4.503 -0.1135 -0.8231 -0.5062
   46DOPE  H13R 5870   5.074   6.267   4.584 -0.9628 -1.5327 -1.3794
   46DOPE  H13S 5871   5.001   6.366   4.461 -0.1930 -0.1040  0.1262
   46DOPE  C214 5872   5.147   6.467   4.568  0.7685 -0.6188  0.5123
   46DOPE  H14R 5873   5.156   6.534   4.480 -1.4442  0.5401  1.1020
   46DOPE  H14S 5874   5.243   6.451   4.622 -0.9628 -2.9239  3.1631
   46DOPE  C215 5875   5.061   6.523   4.680 -0.2763 -0.0810 -0.3740
   46DOPE  H15R 5876   4.959   6.541   4.639 -0.4023 -0.3470 -0.1802
   46DOPE  H15S 5877   5.104   6.619   4.714  0.1965 -0.2580 -0.4656
   46DOPE  C216 5878   5.052   6.426   4.799  0.8125  0.2927  0.1562
   46DOPE  H16R 5879   5.154   6.394   4.828  0.3028  0.0230  1.7359
   46DOPE  H16S 5880   4.990   6.340   4.763  0.8754  0.2256  0.2094
   46DOPE  C217 5881   4.980   6.473   4.926 -0.8162  0.1285 -0.5709
   46DOPE  H17R 5882   4.995   6.380   4.986  0.5915  0.1558 -0.8441
   46DOPE  H17S 5883   4.874   6.501   4.914 -0.5628  1.6807  0.5185
   46DOPE  C218 5884   5.056   6.592   4.996  0.1428 -0.4982  0.0731
   46DOPE  H18R 5885   5.161   6.568   5.023 -0.0045 -1.2507  0.0180
   46DOPE  H18S 5886   5.004   6.614   5.092  1.1220  2.6199 -0.0017
   46DOPE  H18T 5887   5.052   6.677   4.925  0.5299 -1.7783 -1.5286
   46DOPE   C33 5888   5.332   6.485   3.460 -0.5087 -0.3743 -0.1751
   46DOPE   H3X 5889   5.251   6.554   3.495  0.3494  0.0098  1.1480
   46DOPE   H3Y 5890   5.388   6.532   3.376 -0.8168 -0.9582 -0.7121
   46DOPE   C34 5891   5.438   6.471   3.575  0.2749 -0.0551  0.0286
   46DOPE   H4X 5892   5.520   6.400   3.551  2.2786  1.3804  2.1895
   46DOPE   H4Y 5893   5.500   6.563   3.577  2.1478 -1.2580 -0.2441
   46DOPE   C35 5894   5.371   6.437   3.712  0.2162  0.1842  0.6822
   46DOPE   H5X 5895   5.337   6.332   3.715 -0.6049  0.4122  0.0112
   46DOPE   H5Y 5896   5.282   6.503   3.720 -0.1425 -0.2359  0.1818
   46DOPE   C36 5897   5.473   6.459   3.824 -0.1953  0.0107  0.0578
   46DOPE   H6X 5898   5.535   6.551   3.818 -2.2734  1.5040  0.4726
   46DOPE   H6Y 5899   5.533   6.365   3.824 -0.3199 -0.1127 -2.4221
   46DOPE   C37 5900   5.407   6.473   3.968  0.0624 -0.4240  0.1525
   46DOPE   H7X 5901   5.358   6.573   3.977 -0.4220 -0.6173 -0.2304
   46DOPE   H7Y 5902   5.328   6.397   3.988 -0.8533 -0.6640 -3.6393
   46DOPE   C38 5903   5.513   6.474   4.074 -0.8175  0.2639 -0.1968
   46DOPE   H8X 5904   5.466   6.512   4.167 -2.6184 -0.6657 -0.6707
   46DOPE   H8Y 5905   5.595   6.546   4.055  0.1769 -1.1667 -1.6592
   46DOPE   C39 5906   5.576   6.336   4.088  0.1655  0.4936 -0.1791
   46DOPE   H9X 5907   5.546   6.267   4.008 -1.7059  1.6933 -0.5803
   46DOPE  C310 5908   5.633   6.295   4.202 -0.2756 -0.3367  0.7567
   46DOPE  H10X 5909   5.676   6.194   4.202  0.8969  0.1450  0.3254
   46DOPE  C311 5910   5.643   6.370   4.329 -0.5200  0.6251 -0.1368
   46DOPE  H11X 5911   5.634   6.480   4.317 -1.0395  0.5400 -0.4987
   46DOPE  H11Y 5912   5.566   6.332   4.399  0.9849 -2.5573 -0.0139
   46DOPE  C312 5913   5.774   6.331   4.396 -0.5944  0.3845  0.3505
   46DOPE  H12X 5914   5.863   6.340   4.330 -1.0311 -0.5296 -0.3894
   46DOPE  H12Y 5915   5.769   6.223   4.422 -0.4306  0.7330  1.9141
   46DOPE  C313 5916   5.774   6.393   4.538 -0.0054  0.5019  0.4727
   46DOPE  H13X 5917   5.677   6.364   4.583 -0.1391  2.4546  1.5488
   46DOPE  H13Y 5918   5.853   6.335   4.591 -0.3004 -1.4187 -1.0778
   46DOPE  C314 5919   5.792   6.548   4.546 -0.6091 -0.1150  0.1475
   46DOPE  H14X 5920   5.706   6.598   4.496 -0.2532 -1.1871 -1.6286
   46DOPE  H14Y 5921   5.884   6.588   4.497 -0.4273  0.6606  1.1025
   46DOPE  C315 5922   5.790   6.588   4.697  0.3653  0.1462  0.8583
   46DOPE  H15X 5923   5.684   6.596   4.728  0.1776  1.9391 -0.0959
   46DOPE  H15Y 5924   5.810   6.697   4.686  2.8838  0.0987  3.6883
   46DOPE  C316 5925   5.879   6.514   4.794  0.0515  0.6108  0.4838
   46DOPE  H16X 5926   5.982   6.513   4.753  0.2109  2.9935  0.7103
   46DOPE  H16Y 5927   5.833   6.414   4.810  1.2480  0.1280  0.9757
   46DOPE  C317 5928   5.893   6.577   4.924 -0.5419  0.4249 -0.2192
   46DOPE  H17X 5929   5.928   6.681   4.909  0.5260  0.0288 -0.5535
   46DOPE  H17Y 5930   5.790   6.577   4.966 -0.5753  0.9176 -0.2986
   46DOPE  C318 5931   5.992   6.494   5.006  0.4248 -0.2722 -0.6118
   46DOPE  H18X 5932   6.023   6.534   5.106 -0.8846 -1.1454  0.1780
   46DOPE  H18Y 5933   5.955   6.393   5.032 -0.4109  0.0975 -0.3210
   46DOPE  H18Z 5934   6.088   6.501   4.951  1.4578  2.8358  1.2814
   47DOPE     N 5935   0.852   5.968   2.391  0.4324 -0.4438  0.4154
   47DOPE   HN1 5936   0.846   6.038   2.315 -1.7382 -0.1658  0.7791
   47DOPE   HN2 5937   0.944   5.993   2.432  0.3412 -1.1840  1.1034
   47DOPE   HN3 5938   0.867   5.878   2.341  0.1716 -0.4750  0.3924
   47DOPE   C12 5939   0.743   5.955   2.491  0.3644  0.3954  0.5175
   47DOPE  H12A 5940   0.649   5.930   2.439 -0.4447  2.8031  0.7153
   47DOPE  H12B 5941   0.729   6.050   2.547 -3.5735  0.1756  0.1795
   47DOPE   C11 5942   0.786   5.850   2.603  0.4123 -0.0552  0.5704
   47DOPE  H11A 5943   0.799   5.750   2.555  0.3071  0.2102 -0.0134
   47DOPE  H11B 5944   0.701   5.843   2.673 -1.9662  2.0691 -1.8832
   47DOPE     P 5945   1.002   5.789   2.739  0.3854  0.2336  0.0578
   47DOPE   O13 5946   1.132   5.849   2.776 -0.5551  0.4498  0.7173
   47DOPE   O14 5947   1.002   5.666   2.662  0.2627 -0.1881  0.2381
   47DOPE   O11 5948   0.928   5.756   2.870 -0.2420 -0.5822 -0.4498
   47DOPE   O12 5949   0.907   5.890   2.670 -0.4250  0.0639  1.1906
   47DOPE    C1 5950   0.836   5.845   2.933 -0.0123  0.0531 -0.8466
   47DOPE    HA 5951   0.737   5.827   2.887  0.6018 -0.8008 -1.8803
   47DOPE    HB 5952   0.860   5.953   2.931 -2.5383  0.7384  0.9805
   47DOPE    C2 5953   0.807   5.811   3.082 -0.1923 -0.3267 -0.2945
   47DOPE    HS 5954   0.763   5.903   3.127  1.3398 -0.5065  1.6939
   47DOPE   O21 5955   0.927   5.785   3.160 -0.6860 -0.2909  0.1610
   47DOPE   C21 5956   0.996   5.887   3.191  0.0722  0.0444  0.3096
   47DOPE   O22 5957   0.958   6.005   3.182 -0.2398 -0.0540 -0.2955
   47DOPE   C22 5958   1.129   5.841   3.244  1.1359  0.0328 -0.1887
   47DOPE   H2R 5959   1.203   5.839   3.161  1.3271 -0.5697 -0.0106
   47DOPE   H2S 5960   1.125   5.733   3.271  0.0322 -0.1423 -0.9710
   47DOPE    C3 5961   0.707   5.696   3.106  0.8212 -0.1041  0.9565
   47DOPE    HX 5962   0.734   5.615   3.035 -1.4136  0.3973 -0.5392
   47DOPE    HY 5963   0.607   5.733   3.074  0.0774 -0.1836  3.0329
   47DOPE   O31 5964   0.697   5.652   3.248 -0.2847 -0.5942 -0.3971
   47DOPE   C31 5965   0.786   5.561   3.279  0.1172  0.2441  0.7131
   47DOPE   O32 5966   0.865   5.506   3.205 -0.1257 -0.0662 -0.1509
   47DOPE   C32 5967   0.772   5.535   3.426 -0.2158  0.4545  0.1049
   47DOPE   H2X 5968   0.668   5.508   3.455 -0.6795  2.9959  1.1004
   47DOPE   H2Y 5969   0.845   5.456   3.454 -0.4688  0.5475  1.0828
   47DOPE   C23 5970   1.182   5.939   3.352  0.1769 -0.4540 -0.2352
   47DOPE   H3R 5971   1.162   6.046   3.328 -1.8274 -0.0408  2.6758
   47DOPE   H3S 5972   1.292   5.926   3.353  0.4496  1.4567 -1.3086
   47DOPE   C24 5973   1.118   5.921   3.493  0.2586 -0.2591 -0.2120
   47DOPE   H4R 5974   1.144   5.816   3.520  1.1377  0.0851  0.3170
   47DOPE   H4S 5975   1.008   5.932   3.508  0.3306  1.2630 -0.6905
   47DOPE   C25 5976   1.178   6.020   3.595  0.6247 -0.1062  0.4868
   47DOPE   H5R 5977   1.154   6.122   3.560  1.0323  0.0820  0.7530
   47DOPE   H5S 5978   1.288   6.012   3.581  0.8768  1.5109  1.2957
   47DOPE   C26 5979   1.150   5.992   3.745  0.0306 -0.5918  0.2041
   47DOPE   H6R 5980   1.173   5.886   3.769  3.0293  0.4919  2.8470
   47DOPE   H6S 5981   1.041   6.008   3.761 -0.1700 -1.6480 -0.0730
   47DOPE   C27 5982   1.239   6.080   3.830  0.1872 -0.2210  0.7317
   47DOPE   H7R 5983   1.228   6.190   3.832  2.2102  0.0640  4.2618
   47DOPE   H7S 5984   1.343   6.065   3.794 -0.5603 -1.1300 -1.2330
   47DOPE   C28 5985   1.233   6.038   3.970  0.9681  0.1209  0.1894
   47DOPE   H8R 5986   1.311   6.092   4.029 -0.2929 -1.3339  3.4056
   47DOPE   H8S 5987   1.260   5.931   3.982  0.5290  0.1251  1.4021
   47DOPE   C29 5988   1.106   6.083   4.032  0.6843  0.2206  0.5823
   47DOPE   H9R 5989   1.064   6.174   3.987  1.7391  0.2437 -0.3998
   47DOPE  C210 5990   1.037   6.017   4.124 -0.1332  0.2572  0.4848
   47DOPE  H10R 5991   0.937   6.059   4.144  0.1753  1.1164  0.2923
   47DOPE  C211 5992   1.092   5.891   4.190 -0.0451 -0.2329  0.0581
   47DOPE  H11R 5993   1.197   5.868   4.162  0.2237 -1.1870  1.6887
   47DOPE  H11S 5994   1.035   5.802   4.154  2.7975 -1.4337 -1.8152
   47DOPE  C212 5995   1.092   5.905   4.347 -0.4660  0.1255 -0.6250
   47DOPE  H12R 5996   1.147   5.998   4.374  0.1151 -0.4118  0.0897
   47DOPE  H12S 5997   1.160   5.826   4.388 -1.3653 -0.6458 -0.5955
   47DOPE  C213 5998   0.955   5.892   4.416  0.1344  0.6056 -0.7233
   47DOPE  H13R 5999   0.918   5.788   4.409  2.9289 -0.6106  1.1301
   47DOPE  H13S 6000   0.887   5.971   4.376  1.1424  0.2990 -3.2397
   47DOPE  C214 6001   0.976   5.918   4.570 -0.1080 -0.3060  0.2791
   47DOPE  H14R 6002   0.901   5.981   4.623  0.6438 -0.6426  1.7834
   47DOPE  H14S 6003   1.068   5.980   4.573  0.8563 -1.5098 -1.9522
   47DOPE  C215 6004   1.008   5.794   4.655  0.3708 -0.0520 -0.1491
   47DOPE  H15R 6005   1.090   5.743   4.600 -0.3527  1.8936 -3.3142
   47DOPE  H15S 6006   0.922   5.725   4.668 -1.8979  2.2632 -1.8449
   47DOPE  C216 6007   1.055   5.825   4.797 -0.4861 -0.6053 -0.2880
   47DOPE  H16R 6008   0.975   5.859   4.866 -1.2908 -1.5747 -0.7197
   47DOPE  H16S 6009   1.138   5.899   4.794 -0.6912 -0.4076 -2.0154
   47DOPE  C217 6010   1.098   5.689   4.862  0.5623 -0.1807  0.4975
   47DOPE  H17R 6011   1.167   5.643   4.789  0.1730  0.7394 -0.4755
   47DOPE  H17S 6012   1.019   5.612   4.879  3.1438 -2.8468  1.2739
   47DOPE  C218 6013   1.180   5.727   4.994  0.1107 -0.2761 -0.3231
   47DOPE  H18R 6014   1.254   5.808   4.976 -0.5735  1.4043  3.4938
   47DOPE  H18S 6015   1.234   5.634   5.023 -1.7620 -0.9770  1.1197
   47DOPE  H18T 6016   1.120   5.753   5.084 -0.0572 -0.9696 -0.2222
   47DOPE   C33 6017   0.796   5.653   3.516  0.1801 -0.0530 -0.4639
   47DOPE   H3X 6018   0.743   5.742   3.475 -0.2937 -1.1865 -2.4002
   47DOPE   H3Y 6019   0.904   5.680   3.509  0.3179 -0.5670 -0.3197
   47DOPE   C34 6020   0.747   5.626   3.652 -0.3649  0.3027 -0.3164
   47DOPE   H4X 6021   0.642   5.590   3.649 -0.1166 -0.7785  1.7055
   47DOPE   H4Y 6022   0.805   5.549   3.708 -0.7444  0.9759  1.0585
   47DOPE   C35 6023   0.759   5.757   3.737  0.2191  0.0797  0.0289
   47DOPE   H5X 6024   0.694   5.824   3.676 -0.7156 -1.2544 -0.4857
   47DOPE   H5Y 6025   0.861   5.803   3.733  1.0194 -1.4612  1.7024
   47DOPE   C36 6026   0.709   5.732   3.884 -0.0501 -0.3602  0.4261
   47DOPE   H6X 6027   0.774   5.652   3.924  0.7946 -0.2411 -0.6428
   47DOPE   H6Y 6028   0.604   5.696   3.884 -0.7925  1.5785  2.7046
   47DOPE   C37 6029   0.712   5.853   3.990 -0.0787 -0.4707  0.7494
   47DOPE   H7X 6030   0.811   5.902   3.980 -1.0948  1.3686 -1.5302
   47DOPE   H7Y 6031   0.651   5.940   3.958  0.9880  0.5099  1.3348
   47DOPE   C38 6032   0.694   5.800   4.134 -0.5686 -0.2930  0.0771
   47DOPE   H8X 6033   0.727   5.878   4.205 -1.2540  1.9228 -1.9256
   47DOPE   H8Y 6034   0.755   5.707   4.149 -2.0878 -1.3652 -0.1870
   47DOPE   C39 6035   0.547   5.785   4.161 -0.2354  0.3947 -0.1316
   47DOPE   H9X 6036   0.491   5.872   4.124  1.3243  0.8267 -1.5763
   47DOPE  C310 6037   0.487   5.683   4.232  0.4541  0.5772  0.5664
   47DOPE  H10X 6038   0.378   5.668   4.225  0.6206 -0.4854  0.0139
   47DOPE  C311 6039   0.548   5.572   4.306 -0.9827 -0.5511  0.3627
   47DOPE  H11X 6040   0.575   5.492   4.235  0.8375  0.4475 -0.1466
   47DOPE  H11Y 6041   0.642   5.604   4.357 -0.5459 -0.6895 -0.3413
   47DOPE  C312 6042   0.448   5.529   4.415 -0.4140  0.4637 -0.1076
   47DOPE  H12X 6043   0.361   5.488   4.359 -0.1283  1.0648 -1.0111
   47DOPE  H12Y 6044   0.428   5.607   4.491  1.5559 -1.6321  2.7619
   47DOPE  C313 6045   0.520   5.414   4.492 -0.1233  0.2700  0.6053
   47DOPE  H13X 6046   0.577   5.365   4.411 -0.7096  1.9220 -0.8554
   47DOPE  H13Y 6047   0.595   5.466   4.554 -3.2679  1.2246  4.0046
   47DOPE  C314 6048   0.432   5.326   4.569  0.3001  0.5445  0.0021
   47DOPE  H14X 6049   0.483   5.234   4.604  1.0484  1.0903  0.3573
   47DOPE  H14Y 6050   0.342   5.296   4.511 -0.2976  0.5504  0.9157
   47DOPE  C315 6051   0.384   5.396   4.701 -0.3937 -0.7400 -0.0381
   47DOPE  H15X 6052   0.325   5.485   4.670 -0.0788  0.2091  1.9553
   47DOPE  H15Y 6053   0.469   5.437   4.759  0.0648 -1.9546  0.1714
   47DOPE  C316 6054   0.299   5.312   4.791  0.0220 -0.6172 -0.3298
   47DOPE  H16X 6055   0.361   5.231   4.835  1.0495 -0.2961 -1.1528
   47DOPE  H16Y 6056   0.213   5.266   4.738 -1.0093  0.0798  0.7012
   47DOPE  C317 6057   0.263   5.374   4.928 -0.0701  0.3952  0.3569
   47DOPE  H17X 6058   0.193   5.311   4.987 -0.5493  0.3364 -0.2651
   47DOPE  H17Y 6059   0.352   5.393   4.992 -1.1652  1.5186  1.6039
   47DOPE  C318 6060   0.201   5.511   4.907  0.4702  0.4068  0.2258
   47DOPE  H18X 6061   0.257   5.589   4.852 -0.8759  0.9511 -0.4294
   47DOPE  H18Y 6062   0.107   5.488   4.852  1.2001 -2.0318 -0.1244
   47DOPE  H18Z 6063   0.170   5.554   5.005 -0.8973 -0.6538  0.2999
   48DOPE     N 6064   5.465   0.538   3.151 -0.1814  0.1105 -0.1681
   48DOPE   HN1 6065   5.419   0.450   3.183 -1.0001 -0.5012 -2.7867
   48DOPE   HN2 6066   5.423   0.572   3.062 -0.4729  1.7217  0.5324
   48DOPE   HN3 6067   5.563   0.519   3.123 -0.5811 -0.3135 -1.3400
   48DOPE   C12 6068   5.459   0.648   3.256 -0.5273  0.6050  0.2443
   48DOPE  H12A 6069   5.515   0.734   3.214 -2.1783  1.6824  0.1493
   48DOPE  H12B 6070   5.521   0.614   3.341  0.5277 -0.2924 -0.8422
   48DOPE   C11 6071   5.321   0.696   3.282 -0.3313 -0.2357  0.0868
   48DOPE  H11A 6072   5.326   0.770   3.364  1.8878 -1.3519  1.0616
   48DOPE  H11B 6073   5.263   0.611   3.324  0.4429  0.1276  1.9994
   48DOPE     P 6074   5.253   0.899   3.138  0.4375 -0.0475 -0.0791
   48DOPE   O13 6075   5.159   0.923   3.026 -0.3818 -0.4245 -0.5760
   48DOPE   O14 6076   5.393   0.950   3.122 -0.0973  0.1630 -0.3816
   48DOPE   O11 6077   5.196   0.964   3.267  0.4339  0.5711  0.2016
   48DOPE   O12 6078   5.249   0.746   3.168  0.0486 -0.5567  0.3103
   48DOPE    C1 6079   5.236   1.091   3.319  0.5424  0.0177 -0.3377
   48DOPE    HA 6080   5.147   1.158   3.326 -1.2173 -2.2699  0.6472
   48DOPE    HB 6081   5.299   1.147   3.247  0.9851  0.3114  0.2644
   48DOPE    C2 6082   5.314   1.076   3.447 -0.4569 -0.0650 -0.1679
   48DOPE    HS 6083   5.352   1.176   3.480  1.2283 -0.6897 -0.1101
   48DOPE   O21 6084   5.430   0.986   3.440 -1.0221  0.5582  0.1579
   48DOPE   C21 6085   5.537   1.045   3.388 -0.4992 -0.4226  0.1770
   48DOPE   O22 6086   5.542   1.158   3.340 -0.3184  0.4464  0.3305
   48DOPE   C22 6087   5.647   0.945   3.381  0.4360 -0.5996 -0.4828
   48DOPE   H2R 6088   5.646   0.897   3.281  0.9460  2.6393 -2.1743
   48DOPE   H2S 6089   5.625   0.872   3.462  0.9125 -1.0704 -0.7736
   48DOPE    C3 6090   5.216   1.043   3.563 -0.2822 -0.0385  0.2107
   48DOPE    HX 6091   5.180   0.946   3.524  1.6673 -0.8316  0.2811
   48DOPE    HY 6092   5.142   1.124   3.578  0.2760  0.2538  1.5737
   48DOPE   O31 6093   5.290   1.009   3.684 -0.2408  0.2258  0.6453
   48DOPE   C31 6094   5.320   1.106   3.768 -0.6400  0.6016  0.0026
   48DOPE   O32 6095   5.278   1.220   3.757 -0.2179  0.2384 -0.2328
   48DOPE   C32 6096   5.415   1.060   3.875 -0.3600 -0.1084 -0.2597
   48DOPE   H2X 6097   5.363   0.967   3.909  0.0319  0.1629  1.1686
   48DOPE   H2Y 6098   5.509   1.030   3.824 -2.2318 -2.5778 -2.5375
   48DOPE   C23 6099   5.786   1.014   3.404  0.2781  0.6837 -0.0487
   48DOPE   H3R 6100   5.803   1.092   3.327 -1.8856  1.2501 -0.0013
   48DOPE   H3S 6101   5.865   0.937   3.387 -0.3486  0.0785 -0.2244
   48DOPE   C24 6102   5.795   1.066   3.544 -0.0574 -0.1178 -0.2705
   48DOPE   H4R 6103   5.729   1.152   3.566 -0.2800 -0.1102 -0.9447
   48DOPE   H4S 6104   5.895   1.112   3.555 -0.3705  0.7119 -0.8283
   48DOPE   C25 6105   5.784   0.950   3.651 -0.7945  0.1068 -0.1164
   48DOPE   H5R 6106   5.824   0.858   3.602 -0.3722 -0.3443  1.0561
   48DOPE   H5S 6107   5.674   0.937   3.657 -0.7989  0.2867  0.1893
   48DOPE   C26 6108   5.849   0.987   3.786  0.7407 -0.1439  0.0407
   48DOPE   H6R 6109   5.812   1.090   3.803 -0.6268 -0.6048  0.0102
   48DOPE   H6S 6110   5.960   0.990   3.788  0.8426 -2.4752  1.3986
   48DOPE   C27 6111   5.793   0.898   3.904 -0.6417  0.4029 -0.1071
   48DOPE   H7R 6112   5.811   0.795   3.867 -1.0902 -0.0014  0.7561
   48DOPE   H7S 6113   5.683   0.911   3.916 -0.9711 -2.6796  1.0621
   48DOPE   C28 6114   5.864   0.926   4.034 -0.3861 -0.4266 -0.0973
   48DOPE   H8R 6115   5.808   0.882   4.119  0.1063  1.2212  1.1475
   48DOPE   H8S 6116   5.860   1.035   4.055  0.6936 -0.3831 -0.0665
   48DOPE   C29 6117   6.004   0.882   4.037 -0.4513 -0.4441 -0.9033
   48DOPE   H9R 6118   6.008   0.777   4.070  1.5571  0.0850  0.8057
   48DOPE  C210 6119   6.120   0.954   4.018  0.6921 -1.1290  0.5442
   48DOPE  H10R 6120   6.215   0.899   4.019  1.7466  0.5331 -1.2271
   48DOPE  C211 6121   6.132   1.100   3.978  0.5679  0.0470  0.3456
   48DOPE  H11R 6122   6.064   1.133   3.896 -1.7887  0.3565  2.2884
   48DOPE  H11S 6123   6.236   1.128   3.951 -0.7189  3.4355 -1.7390
   48DOPE  C212 6124   6.109   1.191   4.099 -0.0866  0.9579  0.2414
   48DOPE  H12R 6125   6.017   1.158   4.151  2.1040 -3.9795  1.5974
   48DOPE  H12S 6126   6.086   1.294   4.065 -1.6269  0.2738 -0.8984
   48DOPE  C213 6127   6.230   1.201   4.192  0.0080 -0.7865 -0.4804
   48DOPE  H13R 6128   6.322   1.200   4.130  0.1292 -3.9437 -0.4293
   48DOPE  H13S 6129   6.229   1.116   4.264 -1.1424  1.1307  1.9110
   48DOPE  C214 6130   6.221   1.330   4.277  0.4408  0.4197 -0.0610
   48DOPE  H14R 6131   6.208   1.422   4.216  1.0825  1.1504  0.8727
   48DOPE  H14S 6132   6.309   1.338   4.345 -0.1892  0.9275  0.7116
   48DOPE  C215 6133   6.098   1.333   4.372  0.1037  0.9804  0.1596
   48DOPE  H15R 6134   6.113   1.259   4.454  0.3512  1.0952  0.2182
   48DOPE  H15S 6135   6.008   1.300   4.315  1.2302  0.0936 -1.1435
   48DOPE  C216 6136   6.069   1.479   4.428  0.5533  0.0793  0.0866
   48DOPE  H16R 6137   6.069   1.554   4.347 -0.2672 -2.0327 -1.9990
   48DOPE  H16S 6138   6.155   1.505   4.493 -1.0133  2.1848  1.4358
   48DOPE  C217 6139   5.939   1.478   4.506  0.6098  0.4549 -0.7268
   48DOPE  H17R 6140   5.858   1.457   4.434  2.6773 -2.0323 -2.5431
   48DOPE  H17S 6141   5.922   1.578   4.551 -0.0492 -0.1095  0.3149
   48DOPE  C218 6142   5.934   1.364   4.612 -0.8856 -0.1603  1.0387
   48DOPE  H18R 6143   5.832   1.363   4.655 -1.9385 -2.8892 -1.2739
   48DOPE  H18S 6144   6.004   1.399   4.692 -1.7886  1.9872  0.9624
   48DOPE  H18T 6145   5.944   1.260   4.574  0.5508 -0.2235  1.5186
   48DOPE   C33 6146   5.426   1.167   3.988  0.4310 -0.3778 -0.4817
   48DOPE   H3X 6147   5.323   1.179   4.028  0.3727 -1.3852 -0.2998
   48DOPE   H3Y 6148   5.464   1.262   3.946 -1.2962  0.7670  0.4480
   48DOPE   C34 6149   5.516   1.110   4.100  0.0917 -0.0971  0.6979
   48DOPE   H4X 6150   5.492   1.009   4.139  0.9172 -0.3000  0.7101
   48DOPE   H4Y 6151   5.616   1.104   4.052 -0.9224  3.5583 -2.3277
   48DOPE   C35 6152   5.525   1.190   4.230  0.5506 -0.4158 -0.5252
   48DOPE   H5X 6153   5.423   1.208   4.269  0.7173 -0.7297  0.0836
   48DOPE   H5Y 6154   5.583   1.284   4.215  1.7988 -1.2896 -1.3958
   48DOPE   C36 6155   5.615   1.108   4.326  0.4766  1.0279 -0.2467
   48DOPE   H6X 6156   5.717   1.121   4.284  0.9912 -0.7679  0.3716
   48DOPE   H6Y 6157   5.583   1.002   4.333  0.9657  0.7188 -2.0637
   48DOPE   C37 6158   5.623   1.186   4.458  0.4749  0.4391 -0.3741
   48DOPE   H7X 6159   5.705   1.146   4.522  0.0776  1.5296  0.8556
   48DOPE   H7Y 6160   5.663   1.286   4.430  1.0152  0.7385  1.3048
   48DOPE   C38 6161   5.492   1.190   4.536 -0.3092  0.2620 -0.4322
   48DOPE   H8X 6162   5.470   1.091   4.581 -2.0928  0.3023 -1.1304
   48DOPE   H8Y 6163   5.411   1.205   4.462 -0.9669  1.9431  0.5875
   48DOPE   C39 6164   5.483   1.296   4.645 -0.4070 -0.5724  0.3977
   48DOPE   H9X 6165   5.468   1.395   4.599 -0.0414 -1.0503 -0.7843
   48DOPE  C310 6166   5.502   1.268   4.775  0.0011 -0.2617 -0.0949
   48DOPE  H10X 6167   5.494   1.353   4.844 -0.9135  0.1686 -0.7181
   48DOPE  C311 6168   5.534   1.139   4.844 -0.7154 -0.4886 -0.1686
   48DOPE  H11X 6169   5.538   1.051   4.776  0.8260  1.0151 -2.1524
   48DOPE  H11Y 6170   5.635   1.141   4.889 -0.8928 -0.5567  0.2347
   48DOPE  C312 6171   5.436   1.101   4.954 -0.2182 -0.8269 -0.6954
   48DOPE  H12X 6172   5.330   1.096   4.923 -0.4072  0.3127 -0.3048
   48DOPE  H12Y 6173   5.440   1.185   5.027  2.4570 -0.0173 -1.6302
   48DOPE  C313 6174   5.476   0.978   5.027 -0.1481  0.4197 -0.0530
   48DOPE  H13X 6175   5.508   0.899   4.956  1.5256 -0.7329  1.8730
   48DOPE  H13Y 6176   5.562   0.997   5.095  0.1377 -1.4638  0.1664
   48DOPE  C314 6177   5.364   0.910   5.107  0.3969  0.0390 -0.7548
   48DOPE  H14X 6178   5.392   0.814   5.154  1.4626  1.3818  1.5088
   48DOPE  H14Y 6179   5.290   0.888   5.027  0.7945  0.4264 -1.2408
   48DOPE  C315 6180   5.310   1.004   5.217 -0.5271  0.0507 -0.4045
   48DOPE  H15X 6181   5.285   1.101   5.168  0.3566 -0.0408 -1.0594
   48DOPE  H15Y 6182   5.389   1.035   5.289  0.1694  0.1662 -1.2007
   48DOPE  C316 6183   5.183   0.962   5.299  0.7686 -0.4219 -0.3598
   48DOPE  H16X 6184   5.182   1.006   5.401 -0.4428  0.0390 -0.5553
   48DOPE  H16Y 6185   5.198   0.855   5.324  0.0288 -0.1392  1.4443
   48DOPE  C317 6186   5.051   0.968   5.213  0.7107  0.1850  0.6087
   48DOPE  H17X 6187   5.033   1.070   5.172 -0.1386  0.3894  1.4662
   48DOPE  H17Y 6188   5.069   0.906   5.122  1.8185  1.9624 -0.4581
   48DOPE  C318 6189   4.926   0.924   5.292  0.1210 -1.0364  0.0948
   48DOPE  H18X 6190   4.905   0.987   5.381  0.6717 -1.0232  0.2211
   48DOPE  H18Y 6191   4.841   0.914   5.221  0.5245 -1.5724 -0.3214
   48DOPE  H18Z 6192   4.945   0.820   5.328  0.3993 -1.1115 -0.2725
   49DOPE     N 6193   2.853   5.862   2.794  0.2407  0.9336 -0.2302
   49DOPE   HN1 6194   2.889   5.916   2.713  2.5643 -0.0737  0.0644
   49DOPE   HN2 6195   2.895   5.768   2.782 -0.5492  0.7015 -1.3389
   49DOPE   HN3 6196   2.749   5.868   2.785 -0.0578 -1.4354  0.8935
   49DOPE   C12 6197   2.913   5.936   2.914 -0.2155  0.2354  0.2683
   49DOPE  H12A 6198   3.019   5.957   2.888 -0.5898  0.6896 -0.9787
   49DOPE  H12B 6199   2.893   5.870   3.001  0.0919  1.1730  1.0660
   49DOPE   C11 6200   2.843   6.074   2.920  0.2007 -0.7656 -0.2926
   49DOPE  H11A 6201   2.871   6.132   2.829 -0.3117 -0.8262 -0.4917
   49DOPE  H11B 6202   2.891   6.121   3.009 -0.5218 -0.5889  0.0044
   49DOPE     P 6203   2.607   6.157   3.038  0.0377  0.0817  0.2468
   49DOPE   O13 6204   2.487   6.073   3.049 -0.2796  0.0027 -0.3073
   49DOPE   O14 6205   2.577   6.294   2.983 -0.7236 -0.7582 -0.0725
   49DOPE   O11 6206   2.691   6.166   3.171  0.5252  0.0986  0.3341
   49DOPE   O12 6207   2.702   6.073   2.938  0.0545  0.3997 -0.4145
   49DOPE    C1 6208   2.688   6.044   3.244 -0.1956 -1.0317  0.3315
   49DOPE    HA 6209   2.700   5.946   3.193  1.0957 -0.9327  0.4041
   49DOPE    HB 6210   2.587   6.035   3.291 -0.4877  0.5174  0.0442
   49DOPE    C2 6211   2.802   6.048   3.349  1.1193 -0.1956 -0.5110
   49DOPE    HS 6212   2.787   5.945   3.387 -1.6359  1.0233  2.0440
   49DOPE   O21 6213   2.770   6.141   3.459  0.8598  0.8795  1.1413
   49DOPE   C21 6214   2.687   6.100   3.549 -0.4045  0.2384 -0.0129
   49DOPE   O22 6215   2.608   6.005   3.542  0.1591 -0.0370 -0.1972
   49DOPE   C22 6216   2.703   6.199   3.668  0.5738  0.1441  0.6161
   49DOPE   H2R 6217   2.699   6.302   3.625  0.7733  0.2704  0.9009
   49DOPE   H2S 6218   2.809   6.183   3.697  1.0389  1.5212 -0.2224
   49DOPE    C3 6219   2.949   6.057   3.304  0.0640  0.5734  0.2969
   49DOPE    HX 6220   2.982   6.163   3.298  0.8378  0.2744 -1.1827
   49DOPE    HY 6221   2.967   6.013   3.203 -1.4912  0.8674 -0.1297
   49DOPE   O31 6222   3.032   5.986   3.396  0.1155  0.1133 -0.1772
   49DOPE   C31 6223   3.071   6.055   3.503  0.5117  0.3888 -0.2566
   49DOPE   O32 6224   3.045   6.169   3.534  0.3745 -0.7663 -0.7952
   49DOPE   C32 6225   3.150   5.954   3.590 -0.2890  0.6055 -0.4861
   49DOPE   H2X 6226   3.185   5.867   3.531 -1.6985 -0.2386 -0.1353
   49DOPE   H2Y 6227   3.249   6.001   3.610 -0.8369  1.6350 -0.1103
   49DOPE   C23 6228   2.612   6.166   3.779 -0.4530 -0.1640  0.0503
   49DOPE   H3R 6229   2.642   6.067   3.820 -0.8567 -0.1297  0.4270
   49DOPE   H3S 6230   2.508   6.163   3.740 -0.2070 -0.1356 -0.6212
   49DOPE   C24 6231   2.586   6.275   3.894  0.1705  0.4108  0.4072
   49DOPE   H4R 6232   2.679   6.313   3.942  0.0978  0.1221  0.7769
   49DOPE   H4S 6233   2.537   6.221   3.978  1.0227 -0.8800  0.1075
   49DOPE   C25 6234   2.487   6.382   3.849  0.4081 -0.8877 -0.3918
   49DOPE   H5R 6235   2.391   6.326   3.847  1.1197 -2.5714  3.2144
   49DOPE   H5S 6236   2.500   6.416   3.744  0.1308  0.4156 -0.0152
   49DOPE   C26 6237   2.486   6.502   3.947 -0.4380  0.2625  0.3387
   49DOPE   H6R 6238   2.428   6.586   3.903  1.7877  1.9424  0.3936
   49DOPE   H6S 6239   2.592   6.537   3.942 -0.7134  0.9573 -0.7740
   49DOPE   C27 6240   2.441   6.469   4.092  0.4372  0.4899  0.2826
   49DOPE   H7R 6241   2.456   6.560   4.154  1.6531  0.7317 -0.3319
   49DOPE   H7S 6242   2.515   6.392   4.124 -1.1704 -0.8365  0.9839
   49DOPE   C28 6243   2.304   6.403   4.096 -0.8939  0.1909 -0.0218
   49DOPE   H8R 6244   2.329   6.298   4.069 -0.7340  0.4810 -1.0445
   49DOPE   H8S 6245   2.238   6.445   4.017 -3.4304 -1.8488  0.8594
   49DOPE   C29 6246   2.244   6.429   4.238  0.3016 -0.5290  0.4819
   49DOPE   H9R 6247   2.230   6.537   4.251 -0.1221 -0.2903 -1.6577
   49DOPE  C210 6248   2.193   6.338   4.326  0.0407  1.0458 -0.6431
   49DOPE  H10R 6249   2.154   6.375   4.422 -0.1403  1.8775 -1.0252
   49DOPE  C211 6250   2.207   6.190   4.320  0.4871  0.0162 -0.4135
   49DOPE  H11R 6251   2.316   6.172   4.315  0.5381  0.5359 -1.8481
   49DOPE  H11S 6252   2.157   6.144   4.231 -0.8205  0.4438  0.0715
   49DOPE  C212 6253   2.146   6.124   4.437  0.1413  0.2401  0.7036
   49DOPE  H12R 6254   2.042   6.159   4.451 -1.1092 -2.7481 -0.2880
   49DOPE  H12S 6255   2.210   6.154   4.524  2.3562 -0.4421 -0.6005
   49DOPE  C213 6256   2.131   5.970   4.436  0.2013 -0.2930 -0.3477
   49DOPE  H13R 6257   2.115   5.929   4.538  0.1913 -0.2021 -0.3120
   49DOPE  H13S 6258   2.227   5.918   4.419 -0.1869 -1.7477  1.5142
   49DOPE  C214 6259   2.026   5.909   4.339  0.0144 -0.1002 -0.4771
   49DOPE  H14R 6260   2.044   5.957   4.241 -0.5268  1.7948  0.3128
   49DOPE  H14S 6261   1.925   5.939   4.374  0.7799  1.2815  0.6904
   49DOPE  C215 6262   2.041   5.760   4.341  0.5125 -0.5436  0.7318
   49DOPE  H15R 6263   2.035   5.720   4.444  1.9293  0.3238  1.1786
   49DOPE  H15S 6264   2.138   5.737   4.291 -0.1036  2.0900 -1.9671
   49DOPE  C216 6265   1.936   5.697   4.247  0.1344 -0.7834  0.0958
   49DOPE  H16R 6266   1.917   5.749   4.151  1.0539 -0.9771 -0.2084
   49DOPE  H16S 6267   1.844   5.695   4.308  1.2801  1.0512  2.0379
   49DOPE  C217 6268   1.958   5.551   4.200 -0.4300  0.6427  0.3134
   49DOPE  H17R 6269   2.039   5.546   4.123 -0.2765  1.8279  0.3698
   49DOPE  H17S 6270   1.861   5.530   4.150  0.7875  1.0394 -2.3791
   49DOPE  C218 6271   1.984   5.456   4.316 -0.6010  0.1858  0.6630
   49DOPE  H18R 6272   2.089   5.458   4.352 -0.4290 -1.1811  0.2943
   49DOPE  H18S 6273   1.965   5.351   4.285  1.3933 -0.3624  1.1361
   49DOPE  H18T 6274   1.919   5.471   4.405  0.6041 -1.4679  1.8714
   49DOPE   C33 6275   3.072   5.915   3.714  0.0268  0.3649  0.2296
   49DOPE   H3X 6276   3.111   5.817   3.749 -0.5747  0.2475  0.5699
   49DOPE   H3Y 6277   2.967   5.896   3.683 -0.2735  1.7683  0.3405
   49DOPE   C34 6278   3.081   6.026   3.818  0.1781 -0.0586  0.2134
   49DOPE   H4X 6279   3.184   6.041   3.857  0.1761 -1.9702  1.0799
   49DOPE   H4Y 6280   3.047   6.120   3.769  1.9436 -0.4623 -1.9124
   49DOPE   C35 6281   2.995   5.994   3.940  0.5087  0.2769 -0.3360
   49DOPE   H5X 6282   3.016   5.893   3.980 -2.0399 -0.2246 -0.1113
   49DOPE   H5Y 6283   2.894   5.987   3.896  1.0739 -1.9206 -1.3892
   49DOPE   C36 6284   3.002   6.093   4.057  0.9487 -0.2604 -0.4820
   49DOPE   H6X 6285   2.988   6.198   4.023 -0.7642  0.2079  1.4362
   49DOPE   H6Y 6286   3.105   6.073   4.094  0.3067 -1.8546  0.5703
   49DOPE   C37 6287   2.921   6.056   4.176  0.0152 -0.9210  0.5182
   49DOPE   H7X 6288   2.939   5.946   4.177  0.9196 -0.7769  0.4199
   49DOPE   H7Y 6289   2.951   6.100   4.273  1.7829  2.3737 -1.3541
   49DOPE   C38 6290   2.776   6.088   4.167 -0.1912  0.0355 -0.1819
   49DOPE   H8X 6291   2.745   6.069   4.062 -2.0271  3.9353 -0.5202
   49DOPE   H8Y 6292   2.772   6.198   4.180  1.6940  0.6304 -3.3899
   49DOPE   C39 6293   2.704   6.003   4.270 -0.7697  0.1029  0.7165
   49DOPE   H9X 6294   2.760   5.977   4.361 -3.9203 -0.8328  2.5583
   49DOPE  C310 6295   2.577   5.959   4.252 -0.6005 -0.2419 -0.6627
   49DOPE  H10X 6296   2.532   5.904   4.336  1.7768 -0.6943  0.3834
   49DOPE  C311 6297   2.499   5.987   4.129  0.1544 -0.3326 -0.0625
   49DOPE  H11X 6298   2.488   6.097   4.119  2.4122 -0.1503 -1.0932
   49DOPE  H11Y 6299   2.562   5.964   4.041  1.3248 -1.1298  0.9569
   49DOPE  C312 6300   2.372   5.914   4.103 -0.2213  0.2376  0.1195
   49DOPE  H12X 6301   2.283   5.950   4.160 -0.6958 -0.5063 -0.1333
   49DOPE  H12Y 6302   2.391   5.805   4.116 -0.6675  0.1990  0.5039
   49DOPE  C313 6303   2.325   5.929   3.958 -0.4209  0.0298 -0.4129
   49DOPE  H13X 6304   2.287   6.033   3.946 -0.5934  0.2203  1.4980
   49DOPE  H13Y 6305   2.411   5.913   3.889 -1.3959 -0.0366 -1.6357
   49DOPE  C314 6306   2.210   5.841   3.922 -0.1110  0.4232 -0.7678
   49DOPE  H14X 6307   2.121   5.901   3.952  2.6353  2.5809  4.3163
   49DOPE  H14Y 6308   2.216   5.738   3.963  2.5604  0.1697 -1.5715
   49DOPE  C315 6309   2.182   5.829   3.772 -0.0430 -1.1010 -0.0999
   49DOPE  H15X 6310   2.271   5.814   3.707 -0.0020 -1.0209 -0.0620
   49DOPE  H15Y 6311   2.145   5.929   3.739 -0.3533 -0.9625  0.6617
   49DOPE  C316 6312   2.078   5.724   3.748  0.2117 -0.3547 -0.3647
   49DOPE  H16X 6313   2.004   5.705   3.828 -0.1788 -0.4314 -0.7382
   49DOPE  H16Y 6314   2.130   5.628   3.727  0.0649 -0.4086 -0.4889
   49DOPE  C317 6315   1.977   5.765   3.635 -0.2688 -0.0757 -0.5467
   49DOPE  H17X 6316   1.923   5.674   3.602 -0.0888 -0.4045  0.0563
   49DOPE  H17Y 6317   1.898   5.839   3.662  1.1514  1.0975  0.5963
   49DOPE  C318 6318   2.049   5.818   3.510 -0.0087 -0.3468  0.3173
   49DOPE  H18X 6319   2.129   5.744   3.488  0.5624  0.5863 -0.8315
   49DOPE  H18Y 6320   1.978   5.833   3.427  1.3481  0.3605 -0.7448
   49DOPE  H18Z 6321   2.089   5.917   3.539  0.0845 -0.1403 -0.5118
   50DOPE     N 6322   0.713   4.096   3.358  0.5114  0.2378 -0.1727
   50DOPE   HN1 6323   0.676   4.007   3.320 -1.3853  1.7349 -2.0471
   50DOPE   HN2 6324   0.754   4.087   3.453  0.4305 -1.0902 -0.2473
   50DOPE   HN3 6325   0.624   4.150   3.365  0.9022  1.0291 -1.1177
   50DOPE   C12 6326   0.801   4.152   3.248  0.3061  0.3037 -0.3510
   50DOPE  H12A 6327   0.900   4.106   3.264 -0.0366  0.0935  1.4071
   50DOPE  H12B 6328   0.807   4.260   3.273  1.3668 -0.0813  1.1620
   50DOPE   C11 6329   0.734   4.123   3.107 -0.2067 -0.3173 -0.2537
   50DOPE  H11A 6330   0.723   4.012   3.109  1.6209 -0.5518 -0.9356
   50DOPE  H11B 6331   0.806   4.155   3.028  1.8040  0.3793  1.7367
   50DOPE     P 6332   0.585   4.334   3.022  0.4062 -0.1320  0.1843
   50DOPE   O13 6333   0.447   4.340   2.978  0.2926  0.0560  0.0529
   50DOPE   O14 6334   0.695   4.358   2.926 -0.0278 -0.1097 -0.0199
   50DOPE   O11 6335   0.606   4.434   3.139  0.5298 -0.3886  0.0084
   50DOPE   O12 6336   0.611   4.193   3.090 -0.1807 -0.2262 -0.9561
   50DOPE    C1 6337   0.731   4.508   3.144  0.0486  0.3376  0.2054
   50DOPE    HA 6338   0.765   4.536   3.042 -0.2278 -1.5668 -0.4445
   50DOPE    HB 6339   0.813   4.448   3.190  0.0024 -0.1164 -0.2886
   50DOPE    C2 6340   0.710   4.641   3.216  0.0823 -0.1850  0.1886
   50DOPE    HS 6341   0.810   4.688   3.226  0.5239 -0.7749 -1.1876
   50DOPE   O21 6342   0.650   4.627   3.349  0.2432 -0.1612 -0.5200
   50DOPE   C21 6343   0.699   4.531   3.426  0.3665  0.0360 -0.1319
   50DOPE   O22 6344   0.799   4.466   3.412 -0.2226 -0.0987 -0.3217
   50DOPE   C22 6345   0.614   4.526   3.549  0.2255 -0.2298 -0.5731
   50DOPE   H2R 6346   0.510   4.522   3.509 -0.2189  1.2645  0.3230
   50DOPE   H2S 6347   0.620   4.614   3.617 -0.4135 -0.4234 -0.2511
   50DOPE    C3 6348   0.610   4.725   3.134  0.4305 -0.1249  0.0943
   50DOPE    HX 6349   0.507   4.689   3.148 -0.1980  1.3054 -0.6093
   50DOPE    HY 6350   0.629   4.699   3.028 -1.5951  1.1561 -0.6349
   50DOPE   O31 6351   0.607   4.864   3.160  0.0712 -0.0752 -0.3095
   50DOPE   C31 6352   0.713   4.928   3.103  0.2058  0.1695  0.1512
   50DOPE   O32 6353   0.802   4.870   3.040 -0.3798 -0.1747  0.3661
   50DOPE   C32 6354   0.693   5.076   3.146 -0.2606 -0.5713  0.3822
   50DOPE   H2X 6355   0.660   5.136   3.059  2.3209  0.9537  0.3702
   50DOPE   H2Y 6356   0.619   5.081   3.230 -0.8322 -1.2797 -0.0584
   50DOPE   C23 6357   0.648   4.401   3.636 -0.3666 -0.3140  0.2368
   50DOPE   H3R 6358   0.754   4.401   3.668 -0.3944 -0.7070  0.3326
   50DOPE   H3S 6359   0.631   4.314   3.570  0.0612 -1.7113  1.8876
   50DOPE   C24 6360   0.557   4.397   3.755 -0.0134  0.2074 -0.2097
   50DOPE   H4R 6361   0.452   4.424   3.732 -1.0129 -2.1417  1.2303
   50DOPE   H4S 6362   0.607   4.466   3.826  0.4296  1.7924 -1.9771
   50DOPE   C25 6363   0.557   4.254   3.806  0.2332 -0.4899  0.2816
   50DOPE   H5R 6364   0.653   4.199   3.800  0.4153 -0.3226  1.3916
   50DOPE   H5S 6365   0.489   4.202   3.734 -0.0217 -0.0456  0.1998
   50DOPE   C26 6366   0.486   4.225   3.942  0.0084  0.0129 -0.9838
   50DOPE   H6R 6367   0.485   4.116   3.965  0.9906  0.4239  1.2644
   50DOPE   H6S 6368   0.379   4.249   3.925  0.4006  1.4106 -1.5987
   50DOPE   C27 6369   0.551   4.306   4.054  0.1035  0.1317  0.7102
   50DOPE   H7R 6370   0.519   4.411   4.036 -0.2691  0.2818  2.1605
   50DOPE   H7S 6371   0.662   4.298   4.053  0.0362 -0.8913  0.1714
   50DOPE   C28 6372   0.497   4.277   4.191  0.0626 -0.4581 -0.1597
   50DOPE   H8R 6373   0.394   4.319   4.187  0.4632  0.4319 -1.9143
   50DOPE   H8S 6374   0.551   4.341   4.265 -3.5416  1.0795  1.3866
   50DOPE   C29 6375   0.505   4.136   4.232 -0.2300  0.2253  0.4174
   50DOPE   H9R 6376   0.538   4.070   4.149  0.2219  0.1094  0.6846
   50DOPE  C210 6377   0.452   4.080   4.343  0.0150  0.0595 -0.4188
   50DOPE  H10R 6378   0.448   3.971   4.354 -3.2472  0.0227 -0.7716
   50DOPE  C211 6379   0.393   4.153   4.458  0.2000  0.5902  0.4648
   50DOPE  H11R 6380   0.282   4.144   4.462  0.3343 -1.6721  0.7415
   50DOPE  H11S 6381   0.409   4.263   4.453  2.4515  0.3076  0.1646
   50DOPE  C212 6382   0.454   4.101   4.592  1.0839  0.6292 -0.5349
   50DOPE  H12R 6383   0.479   3.994   4.581  1.1143  0.7881 -2.5460
   50DOPE  H12S 6384   0.376   4.118   4.670  2.0652  1.8096  0.2275
   50DOPE  C213 6385   0.577   4.185   4.624  0.3936  0.1112  0.1463
   50DOPE  H13R 6386   0.555   4.291   4.599  0.4410  0.8973  3.1707
   50DOPE  H13S 6387   0.652   4.156   4.547 -0.0854  0.1350 -0.3370
   50DOPE  C214 6388   0.629   4.168   4.763  0.3253 -0.3528  0.1504
   50DOPE  H14R 6389   0.715   4.234   4.787  0.7580 -1.7013  2.5984
   50DOPE  H14S 6390   0.651   4.062   4.787  1.8177 -1.0555 -3.6383
   50DOPE  C215 6391   0.525   4.216   4.875 -0.4428  0.0060 -0.4951
   50DOPE  H15R 6392   0.449   4.135   4.874  0.9908 -1.4034  0.1883
   50DOPE  H15S 6393   0.480   4.314   4.848  0.3545  0.2553 -0.9431
   50DOPE  C216 6394   0.592   4.232   5.016 -0.2385 -0.5706 -0.3447
   50DOPE  H16R 6395   0.662   4.318   5.027 -1.1024  0.4629 -2.2052
   50DOPE  H16S 6396   0.656   4.144   5.036  0.9889  0.1949 -0.7587
   50DOPE  C217 6397   0.483   4.240   5.131 -0.1542 -0.1019  0.2782
   50DOPE  H17R 6398   0.530   4.227   5.230  1.6717  1.2862 -0.3415
   50DOPE  H17S 6399   0.405   4.163   5.117  0.2471 -0.7983  1.7130
   50DOPE  C218 6400   0.423   4.382   5.138  0.3619 -0.1632 -0.3173
   50DOPE  H18R 6401   0.325   4.376   5.191  1.0217  0.3941  1.0003
   50DOPE  H18S 6402   0.403   4.417   5.034 -1.1517  0.5326  0.1781
   50DOPE  H18T 6403   0.486   4.454   5.195 -0.5783  0.0159  0.5305
   50DOPE   C33 6404   0.822   5.140   3.202  0.0211 -0.2080 -0.1936
   50DOPE   H3X 6405   0.798   5.236   3.253  0.3962  0.9224 -2.0549
   50DOPE   H3Y 6406   0.892   5.157   3.117  0.6880  1.4120  0.6364
   50DOPE   C34 6407   0.900   5.054   3.307  0.4218 -0.0198  0.1624
   50DOPE   H4X 6408   0.942   4.963   3.259 -0.7297 -0.6306  0.3046
   50DOPE   H4Y 6409   0.984   5.120   3.339 -2.5417  2.9630  2.4195
   50DOPE   C35 6410   0.808   5.020   3.423 -0.1773 -0.6624 -0.4957
   50DOPE   H5X 6411   0.727   4.958   3.379 -0.5473  0.5081 -1.5335
   50DOPE   H5Y 6412   0.769   5.118   3.459  0.5358  0.0041 -1.4998
   50DOPE   C36 6413   0.871   4.940   3.537 -0.0578 -0.0826 -0.1924
   50DOPE   H6X 6414   0.966   4.993   3.560  0.0723 -0.6170  0.5394
   50DOPE   H6Y 6415   0.900   4.841   3.495  1.7540  1.2321 -2.2561
   50DOPE   C37 6416   0.795   4.924   3.670 -0.2462 -0.7072 -0.4311
   50DOPE   H7X 6417   0.752   5.025   3.687 -1.8412 -1.2375 -1.1290
   50DOPE   H7Y 6418   0.703   4.862   3.661 -1.8990  1.7587 -1.6812
   50DOPE   C38 6419   0.887   4.876   3.783  0.1952 -0.5339  0.1134
   50DOPE   H8X 6420   0.838   4.877   3.882  1.1236  0.2397  0.5816
   50DOPE   H8Y 6421   0.957   4.962   3.789 -1.2032  0.5851  0.8497
   50DOPE   C39 6422   0.964   4.754   3.752  0.1239  0.5227  0.1073
   50DOPE   H9X 6423   1.040   4.774   3.675 -0.3364  0.7497 -0.2934
   50DOPE  C310 6424   0.951   4.639   3.816 -0.4919  0.3262 -0.0053
   50DOPE  H10X 6425   1.020   4.555   3.802  0.9671  1.3193  1.0244
   50DOPE  C311 6426   0.850   4.602   3.924  0.5620  0.2172  0.2631
   50DOPE  H11X 6427   0.754   4.657   3.926  0.7735  0.5886  0.5127
   50DOPE  H11Y 6428   0.816   4.499   3.899  0.5286  0.3251 -0.1461
   50DOPE  C312 6429   0.913   4.617   4.061  0.4817 -0.3189 -0.1607
   50DOPE  H12X 6430   0.907   4.726   4.082  1.0433 -0.0437 -1.3604
   50DOPE  H12Y 6431   1.015   4.575   4.069  0.2923 -0.6516  0.6395
   50DOPE  C313 6432   0.827   4.535   4.165  0.6613  0.6962 -0.5758
   50DOPE  H13X 6433   0.717   4.540   4.147 -0.2159 -0.4350  3.3726
   50DOPE  H13Y 6434   0.853   4.427   4.166 -1.1782  0.1900 -1.8298
   50DOPE  C314 6435   0.843   4.605   4.302 -0.0018  0.1100 -0.2641
   50DOPE  H14X 6436   0.809   4.710   4.290 -0.5087  0.0692  0.6560
   50DOPE  H14Y 6437   0.951   4.601   4.329  0.1560  2.0839 -0.4527
   50DOPE  C315 6438   0.757   4.535   4.411  0.0983  0.2489  0.4190
   50DOPE  H15X 6439   0.780   4.427   4.406 -0.6634  0.1009  0.0652
   50DOPE  H15Y 6440   0.651   4.554   4.382  0.4734 -0.4334 -1.5847
   50DOPE  C316 6441   0.780   4.589   4.549 -0.4355 -0.3160 -0.3827
   50DOPE  H16X 6442   0.741   4.693   4.550  1.0494  0.2637 -0.5627
   50DOPE  H16Y 6443   0.889   4.598   4.569 -0.5740  2.3461 -0.4587
   50DOPE  C317 6444   0.705   4.504   4.660 -0.8040  0.0036 -0.0968
   50DOPE  H17X 6445   0.597   4.490   4.637 -0.3782 -0.0336 -2.2951
   50DOPE  H17Y 6446   0.750   4.403   4.643  0.1963  0.6530 -1.5926
   50DOPE  C318 6447   0.727   4.537   4.805 -0.6425 -0.7432 -0.2718
   50DOPE  H18X 6448   0.720   4.645   4.826  1.8742 -0.4559 -0.6760
   50DOPE  H18Y 6449   0.650   4.485   4.867  0.4466 -2.3552 -0.1904
   50DOPE  H18Z 6450   0.824   4.503   4.847 -1.4356 -2.9371 -0.0362
   51DOPE     N 6451   4.043   5.852   2.913 -0.2069  0.3773  0.0887
   51DOPE   HN1 6452   4.133   5.885   2.955 -1.2737  0.4341  2.4823
   51DOPE   HN2 6453   4.043   5.751   2.887 -3.5327  0.8004 -2.0802
   51DOPE   HN3 6454   4.027   5.906   2.826  2.4566  1.4406  0.1696
   51DOPE   C12 6455   3.931   5.871   3.013 -0.0832 -0.4557  0.3621
   51DOPE  H12A 6456   3.841   5.822   2.971  1.2204  0.5575 -4.1719
   51DOPE  H12B 6457   3.915   5.979   3.033 -0.0104 -0.7307  2.0105
   51DOPE   C11 6458   3.962   5.808   3.152 -0.1098  0.4383 -0.3817
   51DOPE  H11A 6459   3.878   5.819   3.224  1.4813  1.9325  1.3290
   51DOPE  H11B 6460   4.045   5.869   3.192  2.2781 -2.4753 -0.5574
   51DOPE     P 6461   3.916   5.555   3.168  0.1731  0.1892 -0.5448
   51DOPE   O13 6462   3.976   5.433   3.115 -0.2276 -0.4224  0.4720
   51DOPE   O14 6463   3.786   5.598   3.108 -0.5603 -0.0549  0.7698
   51DOPE   O11 6464   3.910   5.541   3.323  0.1649 -0.1596  0.3226
   51DOPE   O12 6465   4.015   5.676   3.145  0.4557  0.1887  0.3981
   51DOPE    C1 6466   3.792   5.522   3.399 -0.4371  0.0254 -0.2644
   51DOPE    HA 6467   3.746   5.432   3.355  2.9893 -1.3091 -1.4567
   51DOPE    HB 6468   3.721   5.608   3.400 -1.8344 -1.0552  1.9954
   51DOPE    C2 6469   3.823   5.477   3.542 -0.5994 -0.3775  0.1323
   51DOPE    HS 6470   3.758   5.390   3.562 -0.9231 -0.1958 -0.1310
   51DOPE   O21 6471   3.803   5.589   3.631 -0.0605  0.4156 -0.0507
   51DOPE   C21 6472   3.769   5.557   3.759  0.2075  0.7438  0.5266
   51DOPE   O22 6473   3.722   5.452   3.796 -0.5226  0.5453  0.3231
   51DOPE   C22 6474   3.780   5.683   3.846  0.2574 -0.0969 -0.0207
   51DOPE   H2R 6475   3.700   5.752   3.811  0.9046  0.1730 -1.0123
   51DOPE   H2S 6476   3.874   5.738   3.824  0.9997 -1.6550 -0.8954
   51DOPE    C3 6477   3.970   5.429   3.562  0.0313 -0.9456  0.2442
   51DOPE    HX 6478   4.037   5.515   3.540 -2.3399  1.0783  0.5904
   51DOPE    HY 6479   3.996   5.356   3.482  0.2430 -1.2605  0.5970
   51DOPE   O31 6480   4.000   5.387   3.694  0.1820 -0.2144  0.4302
   51DOPE   C31 6481   3.956   5.270   3.736  0.5195 -0.1913 -0.0489
   51DOPE   O32 6482   3.927   5.174   3.668 -0.3477  0.1874  0.0713
   51DOPE   C32 6483   3.957   5.265   3.883 -0.0499  0.2680 -0.2705
   51DOPE   H2X 6484   3.966   5.370   3.919  1.8601  0.3703 -0.9293
   51DOPE   H2Y 6485   3.865   5.218   3.923  0.6949 -1.2780 -0.2986
   51DOPE   C23 6486   3.781   5.639   3.995 -0.5822 -0.0791 -0.0833
   51DOPE   H3R 6487   3.862   5.567   4.016  2.2692  2.9871  0.2531
   51DOPE   H3S 6488   3.680   5.613   4.034 -0.4867  0.3562  0.4758
   51DOPE   C24 6489   3.828   5.750   4.096  0.5206 -0.0583  0.7294
   51DOPE   H4R 6490   3.757   5.833   4.078  2.1279  0.8455 -2.0611
   51DOPE   H4S 6491   3.921   5.784   4.047  0.2826 -1.9222 -1.1511
   51DOPE   C25 6492   3.845   5.710   4.244  0.4436  0.0925 -0.0408
   51DOPE   H5R 6493   3.916   5.626   4.251 -1.7301 -1.9147 -0.8270
   51DOPE   H5S 6494   3.751   5.673   4.290 -0.0563  0.7685 -0.4926
   51DOPE   C26 6495   3.899   5.833   4.320  0.6891  0.5437  0.1354
   51DOPE   H6R 6496   3.967   5.890   4.253 -0.2107  0.4122 -0.9206
   51DOPE   H6S 6497   3.966   5.795   4.399 -0.7187 -2.1950  0.1018
   51DOPE   C27 6498   3.791   5.926   4.384 -0.4037 -0.2685  0.1746
   51DOPE   H7R 6499   3.741   5.889   4.476  0.1646 -0.4897  0.4032
   51DOPE   H7S 6500   3.723   5.957   4.302 -1.2199 -0.5672  0.7292
   51DOPE   C28 6501   3.871   6.048   4.435 -0.1242 -0.1896 -0.2160
   51DOPE   H8R 6502   3.945   6.075   4.356  1.2450 -1.9000  0.4175
   51DOPE   H8S 6503   3.925   6.016   4.526  2.7110  1.6582 -1.1103
   51DOPE   C29 6504   3.787   6.175   4.457 -0.2183  0.2359 -0.4489
   51DOPE   H9R 6505   3.702   6.175   4.387  0.7592 -1.8883 -1.7470
   51DOPE  C210 6506   3.807   6.274   4.547  0.6927  0.4473 -0.4430
   51DOPE  H10R 6507   3.745   6.362   4.525 -1.3149 -0.9089 -0.4201
   51DOPE  C211 6508   3.908   6.295   4.652 -0.4350 -0.9701 -0.2535
   51DOPE  H11R 6509   3.931   6.404   4.659 -0.2695 -0.8544 -2.1865
   51DOPE  H11S 6510   4.005   6.245   4.630 -1.1926 -1.8001 -1.8706
   51DOPE  C212 6511   3.862   6.257   4.789  0.3170 -0.1024  0.3379
   51DOPE  H12R 6512   3.931   6.305   4.862 -1.9918 -2.6150  4.5771
   51DOPE  H12S 6513   3.860   6.147   4.802 -1.7080  0.2574  4.5902
   51DOPE  C213 6514   3.718   6.303   4.823 -0.2146 -0.2715 -0.2178
   51DOPE  H13R 6515   3.641   6.257   4.758 -0.4767  0.8753 -0.7554
   51DOPE  H13S 6516   3.715   6.413   4.807 -3.3676 -0.1399  0.6220
   51DOPE  C214 6517   3.683   6.276   4.973  0.4464  0.8510 -0.3351
   51DOPE  H14R 6518   3.769   6.309   5.035  0.4429  1.2840 -0.5592
   51DOPE  H14S 6519   3.659   6.171   5.003 -1.5228  1.6357  1.0352
   51DOPE  C215 6520   3.560   6.356   5.011  0.3012  0.1369 -0.6829
   51DOPE  H15R 6521   3.467   6.349   4.950 -0.0800 -1.1047  0.0162
   51DOPE  H15S 6522   3.588   6.463   4.998 -2.7560  1.1699  0.2893
   51DOPE  C216 6523   3.525   6.336   5.160 -0.0660  0.6135 -0.1398
   51DOPE  H16R 6524   3.476   6.431   5.190 -0.0563  0.4540  0.4079
   51DOPE  H16S 6525   3.615   6.314   5.222 -0.0899  0.4165 -0.1723
   51DOPE  C217 6526   3.419   6.224   5.181 -0.1882 -1.1476  0.6554
   51DOPE  H17R 6527   3.449   6.132   5.125  0.2889 -2.1476  2.4759
   51DOPE  H17S 6528   3.323   6.248   5.130 -0.5576  0.3773  2.0070
   51DOPE  C218 6529   3.396   6.183   5.326 -0.5203 -0.7978  0.0864
   51DOPE  H18R 6530   3.313   6.112   5.344  0.4196 -1.5806  1.4741
   51DOPE  H18S 6531   3.382   6.282   5.374  1.0929 -0.9855  1.0023
   51DOPE  H18T 6532   3.490   6.138   5.363 -0.3285 -0.2486  0.2840
   51DOPE   C33 6533   4.070   5.172   3.939 -0.3885 -0.3915 -0.2363
   51DOPE   H3X 6534   4.172   5.206   3.911 -1.0691  0.9947 -1.1488
   51DOPE   H3Y 6535   4.061   5.071   3.894 -2.2609  0.0384 -0.9200
   51DOPE   C34 6536   4.069   5.171   4.095 -0.1884 -0.1681  0.1888
   51DOPE   H4X 6537   3.984   5.114   4.141  0.7879 -2.5873 -0.8302
   51DOPE   H4Y 6538   4.164   5.126   4.132  1.4212  1.5335 -1.6776
   51DOPE   C35 6539   4.069   5.314   4.158  0.9330  0.5414  0.6864
   51DOPE   H5X 6540   3.968   5.360   4.144  1.6494  1.7259 -0.7937
   51DOPE   H5Y 6541   4.142   5.379   4.105 -0.2617  1.3922  0.0248
   51DOPE   C36 6542   4.103   5.314   4.305  1.4358 -0.7033 -0.5905
   51DOPE   H6X 6543   4.105   5.420   4.339 -2.2568 -0.4167 -0.9006
   51DOPE   H6Y 6544   4.207   5.280   4.325  0.8913 -2.1365 -0.0102
   51DOPE   C37 6545   4.016   5.228   4.399 -0.5263  0.4909 -0.2003
   51DOPE   H7X 6546   4.048   5.122   4.385 -0.6857  0.0380  2.3606
   51DOPE   H7Y 6547   4.042   5.242   4.506 -1.6308 -2.8353  0.6525
   51DOPE   C38 6548   3.867   5.243   4.383 -0.2048 -0.1732 -0.3531
   51DOPE   H8X 6549   3.815   5.166   4.446 -3.6459  1.4839 -0.9115
   51DOPE   H8Y 6550   3.840   5.209   4.281 -0.0793 -0.2932 -0.3467
   51DOPE   C39 6551   3.810   5.378   4.402  0.3655  0.0359 -0.2371
   51DOPE   H9X 6552   3.850   5.460   4.341  2.7241 -0.8356  0.0564
   51DOPE  C310 6553   3.706   5.406   4.477  0.4835 -0.6819 -0.6183
   51DOPE  H10X 6554   3.676   5.512   4.473  0.9931 -0.4086  1.5637
   51DOPE  C311 6555   3.616   5.308   4.547 -0.3637 -0.3774 -0.3407
   51DOPE  H11X 6556   3.512   5.325   4.513 -0.0308 -1.7368 -2.1862
   51DOPE  H11Y 6557   3.644   5.202   4.528  2.4206  0.1680  0.1680
   51DOPE  C312 6558   3.622   5.328   4.701 -0.3501  0.4870 -0.0033
   51DOPE  H12X 6559   3.602   5.434   4.726  0.5327  0.9582 -1.1921
   51DOPE  H12Y 6560   3.722   5.309   4.745 -0.3933  1.4419  0.5416
   51DOPE  C313 6561   3.525   5.227   4.765 -0.1908 -0.0681  0.4674
   51DOPE  H13X 6562   3.425   5.248   4.721 -0.5527 -1.2945  0.6422
   51DOPE  H13Y 6563   3.554   5.122   4.741  1.7150  0.2586  1.1777
   51DOPE  C314 6564   3.513   5.241   4.921  0.4492 -0.3682  0.2170
   51DOPE  H14X 6565   3.480   5.347   4.924  1.7783  0.1360 -1.2573
   51DOPE  H14Y 6566   3.610   5.234   4.975  0.0393  0.5300  1.0939
   51DOPE  C315 6567   3.411   5.157   4.994 -0.3782 -0.3508  0.6001
   51DOPE  H15X 6568   3.435   5.050   4.976 -2.7419 -1.1584  1.8853
   51DOPE  H15Y 6569   3.311   5.171   4.947  0.4183  0.0890 -1.0484
   51DOPE  C316 6570   3.411   5.168   5.144 -0.5713 -0.2161  0.7289
   51DOPE  H16X 6571   3.508   5.214   5.174 -0.9524  0.3504  1.1032
   51DOPE  H16Y 6572   3.409   5.070   5.196  0.5598  0.9011  3.0240
   51DOPE  C317 6573   3.295   5.259   5.188 -0.3090  0.7568 -0.0486
   51DOPE  H17X 6574   3.304   5.364   5.155  1.5112  1.2262  1.7373
   51DOPE  H17Y 6575   3.199   5.217   5.150  0.7672 -1.3178 -0.6814
   51DOPE  C318 6576   3.292   5.258   5.346  1.1725  0.6539 -0.7186
   51DOPE  H18X 6577   3.388   5.298   5.385  1.2372 -0.0383 -0.1439
   51DOPE  H18Y 6578   3.198   5.298   5.391  0.6823  1.9832 -2.7681
   51DOPE  H18Z 6579   3.302   5.153   5.381  0.1252  1.1261  1.1546
   52DOPE     N 6580   0.273   2.103   2.884  0.3484  0.2542 -0.3229
   52DOPE   HN1 6581   0.310   2.012   2.852 -1.9946 -0.6864 -0.6129
   52DOPE   HN2 6582   0.344   2.166   2.926  0.4910  1.3562 -2.1048
   52DOPE   HN3 6583   0.205   2.094   2.962  1.2496  0.9804  0.5733
   52DOPE   C12 6584   0.213   2.189   2.777 -0.6745 -0.4812 -0.3427
   52DOPE  H12A 6585   0.116   2.146   2.745 -0.9625 -0.3020  0.2720
   52DOPE  H12B 6586   0.280   2.193   2.689 -0.0142  0.9499  0.1929
   52DOPE   C11 6587   0.181   2.329   2.830  0.6276 -0.1136  0.2551
   52DOPE  H11A 6588   0.131   2.375   2.743 -1.2534 -0.2169  1.2334
   52DOPE  H11B 6589   0.274   2.390   2.840 -0.2662  1.3339 -0.0072
   52DOPE     P 6590  -0.042   2.307   2.964  0.2465  0.0961  0.4964
   52DOPE   O13 6591  -0.092   2.208   2.865 -0.0610 -0.7419 -0.3745
   52DOPE   O14 6592  -0.096   2.445   2.976  0.1598  0.4567 -0.0636
   52DOPE   O11 6593  -0.052   2.236   3.100 -0.1045 -0.0754 -0.2121
   52DOPE   O12 6594   0.114   2.330   2.954 -0.5876  0.1371  0.6192
   52DOPE    C1 6595  -0.006   2.297   3.218  0.5475  0.1540 -0.5498
   52DOPE    HA 6596   0.070   2.375   3.197  0.3640  0.6415  0.4995
   52DOPE    HB 6597   0.044   2.211   3.268  2.2188 -0.7417 -3.5187
   52DOPE    C2 6598  -0.125   2.364   3.297  0.9483 -0.6660  0.4311
   52DOPE    HS 6599  -0.137   2.469   3.262  1.4312 -0.4316  0.9498
   52DOPE   O21 6600  -0.106   2.364   3.442  0.6381  0.1094 -0.3309
   52DOPE   C21 6601  -0.019   2.450   3.490  0.5490  0.9829 -0.5573
   52DOPE   O22 6602   0.033   2.539   3.428  0.1459 -0.5174 -0.5092
   52DOPE   C22 6603   0.002   2.407   3.636  0.6530 -0.1022 -0.2272
   52DOPE   H2R 6604   0.106   2.437   3.660  1.0295 -1.4385 -0.0942
   52DOPE   H2S 6605  -0.004   2.296   3.628 -0.2778 -0.2486  1.6993
   52DOPE    C3 6606  -0.273   2.300   3.262 -0.0882  0.1870  0.5401
   52DOPE    HX 6607  -0.259   2.190   3.259  0.7067  0.2824  0.4459
   52DOPE    HY 6608  -0.299   2.323   3.156  1.2167 -0.4042  0.0676
   52DOPE   O31 6609  -0.380   2.336   3.351 -0.5232 -0.4520  0.1774
   52DOPE   C31 6610  -0.415   2.462   3.368 -0.4004  0.2690  0.3661
   52DOPE   O32 6611  -0.358   2.559   3.319  0.2852  0.2734 -0.2838
   52DOPE   C32 6612  -0.520   2.476   3.482 -0.9964 -0.0016  0.0734
   52DOPE   H2X 6613  -0.604   2.415   3.441 -0.3845  0.4982 -2.0495
   52DOPE   H2Y 6614  -0.475   2.431   3.574  0.5294 -0.3106 -0.7885
   52DOPE   C23 6615  -0.106   2.480   3.715 -0.2203  0.1781  0.2063
   52DOPE   H3R 6616  -0.109   2.445   3.820  1.7333 -0.6396  0.0375
   52DOPE   H3S 6617  -0.210   2.466   3.678 -0.4298 -1.6628  1.4128
   52DOPE   C24 6618  -0.068   2.631   3.741  0.0831  0.3271 -0.1603
   52DOPE   H4R 6619  -0.054   2.679   3.642  1.8847 -0.3813 -0.2817
   52DOPE   H4S 6620   0.027   2.634   3.799  0.0586 -1.0517 -0.0129
   52DOPE   C25 6621  -0.182   2.704   3.813 -0.0438  0.8803  0.5116
   52DOPE   H5R 6622  -0.222   2.635   3.891  0.0062 -1.5615 -1.4941
   52DOPE   H5S 6623  -0.269   2.712   3.745 -0.2641 -3.2413  0.0152
   52DOPE   C26 6624  -0.149   2.843   3.867 -1.2455 -0.8398  0.2716
   52DOPE   H6R 6625  -0.124   2.915   3.786 -1.5112 -0.0318  0.8953
   52DOPE   H6S 6626  -0.061   2.835   3.933 -0.0002  1.2145 -1.0368
   52DOPE   C27 6627  -0.266   2.902   3.954 -0.1484 -1.1032  0.2516
   52DOPE   H7R 6628  -0.344   2.958   3.898  1.9890  0.7370 -1.0988
   52DOPE   H7S 6629  -0.222   2.992   4.001 -1.6615  0.3917 -1.0794
   52DOPE   C28 6630  -0.326   2.820   4.067 -0.2047  0.4722 -0.0342
   52DOPE   H8R 6631  -0.383   2.734   4.027 -0.8748 -0.3170  2.4372
   52DOPE   H8S 6632  -0.406   2.888   4.104 -0.3568  0.6923 -0.7610
   52DOPE   C29 6633  -0.230   2.778   4.184  0.0133 -0.3766 -0.3259
   52DOPE   H9R 6634  -0.132   2.740   4.150  0.5486 -0.2560  0.9775
   52DOPE  C210 6635  -0.249   2.789   4.318  0.6703 -0.4458 -0.1850
   52DOPE  H10R 6636  -0.170   2.769   4.392 -1.7783  1.2016  3.1012
   52DOPE  C211 6637  -0.371   2.853   4.371 -0.3103  0.3598  0.0248
   52DOPE  H11R 6638  -0.392   2.799   4.465 -1.1684  3.4131  1.7322
   52DOPE  H11S 6639  -0.460   2.829   4.307 -1.0156  1.4597  0.5609
   52DOPE  C212 6640  -0.355   2.997   4.395  0.6075 -0.2229 -0.6493
   52DOPE  H12R 6641  -0.450   3.041   4.433  1.5785  0.3772  1.2357
   52DOPE  H12S 6642  -0.326   3.059   4.308  1.1735 -0.6286 -0.7511
   52DOPE  C213 6643  -0.243   3.031   4.498  0.6849 -0.6028 -0.6091
   52DOPE  H13R 6644  -0.149   2.998   4.449  1.0907  0.0664 -0.2864
   52DOPE  H13S 6645  -0.260   2.969   4.589 -2.1185  1.7397  0.6299
   52DOPE  C214 6646  -0.231   3.178   4.541  0.0958  0.3447 -0.8036
   52DOPE  H14R 6647  -0.317   3.187   4.611  2.9222  0.3222  2.9696
   52DOPE  H14S 6648  -0.232   3.239   4.448  1.1614 -1.6192 -2.1752
   52DOPE  C215 6649  -0.101   3.207   4.619 -0.1781 -0.0317 -0.2309
   52DOPE  H15R 6650  -0.098   3.307   4.668  0.5285  0.5589 -1.4424
   52DOPE  H15S 6651  -0.025   3.211   4.538 -0.1210  1.9703 -0.1236
   52DOPE  C216 6652  -0.049   3.112   4.733 -0.2330 -0.7689  0.7786
   52DOPE  H16R 6653   0.056   3.146   4.748  0.2486 -1.7725 -0.1408
   52DOPE  H16S 6654  -0.043   3.010   4.688  0.8223 -0.6025  0.5000
   52DOPE  C217 6655  -0.121   3.110   4.866 -0.3912 -0.3669  0.2373
   52DOPE  H17R 6656  -0.223   3.083   4.834 -0.3548  0.2412 -0.4277
   52DOPE  H17S 6657  -0.113   3.206   4.921 -0.0688  0.6467 -1.4883
   52DOPE  C218 6658  -0.082   2.997   4.967  0.3291 -0.0419  0.2605
   52DOPE  H18R 6659   0.017   3.018   5.013  0.6613  0.1699 -0.5266
   52DOPE  H18S 6660  -0.164   2.981   5.040 -0.0630  0.9046  0.0498
   52DOPE  H18T 6661  -0.077   2.901   4.912 -0.0397  0.3062 -0.3945
   52DOPE   C33 6662  -0.571   2.615   3.490 -0.9336  0.3722 -0.0389
   52DOPE   H3X 6663  -0.596   2.640   3.385 -1.9150 -0.6225 -0.0632
   52DOPE   H3Y 6664  -0.486   2.684   3.511 -0.2592 -0.4093 -0.1278
   52DOPE   C34 6665  -0.691   2.636   3.581  0.4330 -0.1225 -0.5289
   52DOPE   H4X 6666  -0.778   2.676   3.524  1.9870  2.7320 -1.0702
   52DOPE   H4Y 6667  -0.712   2.546   3.642  0.7401  0.4787  0.4834
   52DOPE   C35 6668  -0.661   2.744   3.691 -0.5871 -0.0290 -0.7171
   52DOPE   H5X 6669  -0.642   2.845   3.647  0.1266  0.3315  0.3720
   52DOPE   H5Y 6670  -0.564   2.715   3.736 -0.1464  0.7121 -1.1516
   52DOPE   C36 6671  -0.768   2.765   3.801  0.4466  0.4149 -0.9543
   52DOPE   H6X 6672  -0.747   2.696   3.886 -1.5466 -1.6781 -2.0451
   52DOPE   H6Y 6673  -0.867   2.741   3.756 -0.2814  0.4661  0.5572
   52DOPE   C37 6674  -0.779   2.910   3.847 -0.4539 -0.5395  0.1084
   52DOPE   H7X 6675  -0.761   2.986   3.769  0.9872 -1.0626 -0.0924
   52DOPE   H7Y 6676  -0.885   2.930   3.874 -0.1406 -0.2914  1.2086
   52DOPE   C38 6677  -0.694   2.948   3.975 -0.1724  0.0642  0.0368
   52DOPE   H8X 6678  -0.706   3.058   3.987 -0.4262  0.4251 -2.8612
   52DOPE   H8Y 6679  -0.589   2.939   3.938 -0.3773  1.0949 -0.8546
   52DOPE   C39 6680  -0.698   2.884   4.113  0.8960 -0.0790 -0.2202
   52DOPE   H9X 6681  -0.629   2.799   4.118  0.8142 -0.0881  0.8920
   52DOPE  C310 6682  -0.782   2.919   4.216  0.2318 -0.3216  0.8637
   52DOPE  H10X 6683  -0.772   2.866   4.312  0.2631  1.4677  1.8832
   52DOPE  C311 6684  -0.894   3.022   4.223  0.0243 -0.4324  0.4195
   52DOPE  H11X 6685  -0.847   3.121   4.205 -0.3079 -0.3450  0.0173
   52DOPE  H11Y 6686  -0.962   3.011   4.137  2.1401  1.9477 -1.7161
   52DOPE  C312 6687  -0.970   3.042   4.362 -0.8185  0.1653  0.7673
   52DOPE  H12X 6688  -0.894   3.039   4.442  1.3154  0.8810 -1.1119
   52DOPE  H12Y 6689  -1.034   2.952   4.368 -0.1929 -0.2120  2.1734
   52DOPE  C313 6690  -1.052   3.165   4.355  0.3857  0.3785 -0.2167
   52DOPE  H13X 6691  -1.118   3.173   4.444 -1.6408 -4.6019 -0.9088
   52DOPE  H13Y 6692  -0.988   3.255   4.352  1.6235 -0.4246  0.8954
   52DOPE  C314 6693  -1.146   3.180   4.233 -0.2024  0.2992  0.4353
   52DOPE  H14X 6694  -1.208   3.090   4.216 -0.9241  0.6806  0.9954
   52DOPE  H14Y 6695  -1.071   3.195   4.153  0.1108  1.6599  0.9589
   52DOPE  C315 6696  -1.237   3.304   4.247  0.2903 -0.8101  0.1234
   52DOPE  H15X 6697  -1.179   3.398   4.244 -0.7214 -0.1791  0.0815
   52DOPE  H15Y 6698  -1.300   3.300   4.338 -0.2418 -0.1775 -0.2130
   52DOPE  C316 6699  -1.342   3.307   4.129  0.5354  0.4148  0.3519
   52DOPE  H16X 6700  -1.397   3.400   4.156 -0.0232  0.1429  0.1788
   52DOPE  H16Y 6701  -1.414   3.222   4.141  1.1567 -0.1831 -0.1227
   52DOPE  C317 6702  -1.288   3.333   3.994  0.9400 -0.3192  0.1009
   52DOPE  H17X 6703  -1.224   3.423   3.978  1.9488 -1.2560 -1.4607
   52DOPE  H17Y 6704  -1.216   3.252   3.970  0.6426 -0.1183 -1.6166
   52DOPE  C318 6705  -1.399   3.341   3.890  0.3758  0.1528  0.4663
   52DOPE  H18X 6706  -1.483   3.404   3.926  0.1370 -0.7918  1.6218
   52DOPE  H18Y 6707  -1.368   3.383   3.791 -0.0916 -3.3624 -1.3281
   52DOPE  H18Z 6708  -1.431   3.240   3.856  0.8354  1.4208 -4.4908
   53DOPE     N 6709   6.849   4.148   2.905  0.3820  0.2570  0.1758
   53DOPE   HN1 6710   6.861   4.162   2.803  0.9969 -0.4250  0.1496
   53DOPE   HN2 6711   6.937   4.107   2.941 -0.7547 -1.0397  1.6224
   53DOPE   HN3 6712   6.766   4.088   2.924 -0.9291  2.0724  0.5298
   53DOPE   C12 6713   6.818   4.276   2.975 -0.4025  0.5447  0.5367
   53DOPE  H12A 6714   6.708   4.272   2.995 -0.2603  0.8086  1.4046
   53DOPE  H12B 6715   6.836   4.361   2.906  1.9589  0.5666  1.1174
   53DOPE   C11 6716   6.893   4.279   3.105 -0.4928 -0.3838  0.2803
   53DOPE  H11A 6717   6.994   4.318   3.080 -1.4604  3.4125  1.5287
   53DOPE  H11B 6718   6.911   4.184   3.161  0.3277 -0.1918  0.3625
   53DOPE     P 6719   6.841   4.524   3.184  0.3051  0.0432  0.2105
   53DOPE   O13 6720   6.777   4.575   3.305  0.9120  0.2076  0.4312
   53DOPE   O14 6721   6.779   4.571   3.058  0.1960 -0.4967 -0.5381
   53DOPE   O11 6722   6.997   4.559   3.199 -0.0188 -0.0259  0.0536
   53DOPE   O12 6723   6.828   4.365   3.187  0.2274 -0.6506  0.7373
   53DOPE    C1 6724   7.081   4.494   3.296  0.6170  0.6097  0.0755
   53DOPE    HA 6725   7.172   4.469   3.238  0.3500  1.2980 -0.6599
   53DOPE    HB 6726   7.055   4.392   3.333  2.9890 -0.3751 -0.7673
   53DOPE    C2 6727   7.133   4.591   3.408 -0.5663 -0.0369 -0.5536
   53DOPE    HS 6728   7.204   4.533   3.470 -1.7058  0.5616  1.4173
   53DOPE   O21 6729   7.030   4.637   3.494 -0.6114  0.3502 -0.2510
   53DOPE   C21 6730   6.990   4.541   3.575  0.2374 -0.3885 -0.7625
   53DOPE   O22 6731   7.025   4.425   3.579  0.0230  0.0572 -0.3378
   53DOPE   C22 6732   6.875   4.596   3.666  0.0132 -0.3935 -0.0821
   53DOPE   H2R 6733   6.778   4.585   3.612 -1.1789  1.1263  1.6270
   53DOPE   H2S 6734   6.879   4.706   3.681 -0.9241 -0.4042  0.3273
   53DOPE    C3 6735   7.186   4.714   3.351  0.9111  0.1900  0.5897
   53DOPE    HX 6736   7.106   4.756   3.286  0.0391 -1.7337  0.3373
   53DOPE    HY 6737   7.272   4.693   3.284  1.3645  2.6209  0.3111
   53DOPE   O31 6738   7.231   4.814   3.446 -0.0841  0.3127 -0.5152
   53DOPE   C31 6739   7.143   4.913   3.470 -0.0743  0.0534  0.0367
   53DOPE   O32 6740   7.037   4.922   3.412 -0.4871  0.2319  0.1515
   53DOPE   C32 6741   7.213   5.011   3.556 -0.3320  0.5513  0.0334
   53DOPE   H2X 6742   7.286   4.961   3.624 -1.0456  0.7608  0.9760
   53DOPE   H2Y 6743   7.271   5.080   3.491 -1.5672  1.6494  0.0859
   53DOPE   C23 6744   6.856   4.519   3.792 -0.1872 -0.6718  0.2339
   53DOPE   H3R 6745   6.868   4.411   3.768  1.9887 -0.2024 -1.0855
   53DOPE   H3S 6746   6.751   4.539   3.822 -0.4053 -1.6921  0.2126
   53DOPE   C24 6747   6.939   4.556   3.916 -0.5141 -0.5038 -0.2069
   53DOPE   H4R 6748   7.048   4.539   3.906 -0.1214  2.3800 -1.8502
   53DOPE   H4S 6749   6.911   4.473   3.984 -0.1114 -2.2796 -2.1081
   53DOPE   C25 6750   6.919   4.701   3.965  0.2658 -0.1831 -0.7561
   53DOPE   H5R 6751   6.812   4.727   3.978  0.1263 -0.5171 -1.1826
   53DOPE   H5S 6752   6.955   4.777   3.892 -2.2866  2.5308  0.6113
   53DOPE   C26 6753   6.997   4.727   4.093 -0.6804  0.4365 -0.5593
   53DOPE   H6R 6754   7.103   4.711   4.064 -0.0613  0.9012  1.2957
   53DOPE   H6S 6755   6.979   4.662   4.182 -1.4109 -0.1812 -1.1485
   53DOPE   C27 6756   6.973   4.870   4.152 -0.6460  0.0739  0.3016
   53DOPE   H7R 6757   6.872   4.877   4.198 -0.2003  0.8309  1.1850
   53DOPE   H7S 6758   6.968   4.938   4.064 -1.4974 -0.6771 -0.2535
   53DOPE   C28 6759   7.077   4.909   4.252 -0.0976  0.1576 -0.3942
   53DOPE   H8R 6760   7.086   5.019   4.261  2.3264 -0.0747  0.8830
   53DOPE   H8S 6761   7.175   4.872   4.214 -0.1154  3.0401 -3.7331
   53DOPE   C29 6762   7.064   4.846   4.388  0.4724 -0.3697 -0.7457
   53DOPE   H9R 6763   7.095   4.741   4.392  0.2102 -0.4372 -0.4669
   53DOPE  C210 6764   7.027   4.904   4.506 -1.2144  0.2349  0.0160
   53DOPE  H10R 6765   7.028   4.834   4.591  0.5162  0.2732  0.0625
   53DOPE  C211 6766   6.990   5.047   4.529  0.2723  0.1696  0.7239
   53DOPE  H11R 6767   6.882   5.042   4.558 -0.6903  0.6363 -2.3734
   53DOPE  H11S 6768   6.997   5.116   4.443 -0.7665 -0.0380  0.4554
   53DOPE  C212 6769   7.079   5.101   4.648 -0.3443 -0.0427  0.6296
   53DOPE  H12R 6770   7.184   5.119   4.617 -1.4433  3.7010 -1.6116
   53DOPE  H12S 6771   7.077   5.024   4.728 -3.4604 -1.4890 -0.6999
   53DOPE  C213 6772   7.025   5.215   4.719 -0.2005  0.6741 -0.6096
   53DOPE  H13R 6773   6.920   5.196   4.750  0.2443  0.2554  0.6724
   53DOPE  H13S 6774   7.018   5.308   4.657 -0.8845  0.2143 -1.2430
   53DOPE  C214 6775   7.108   5.237   4.850  0.4053  0.2243  0.4544
   53DOPE  H14R 6776   7.211   5.258   4.815  0.6633 -1.3897  0.1448
   53DOPE  H14S 6777   7.099   5.142   4.907 -1.1884  0.6081  0.8979
   53DOPE  C215 6778   7.049   5.342   4.940 -0.0778 -0.8276  0.9514
   53DOPE  H15R 6779   7.042   5.434   4.879  0.2206 -0.9712  0.6954
   53DOPE  H15S 6780   7.111   5.358   5.031  1.7158 -2.8568  0.1806
   53DOPE  C216 6781   6.914   5.305   4.985  0.6413  0.2838 -0.1126
   53DOPE  H16R 6782   6.916   5.214   5.048  0.5901  0.7826  0.6338
   53DOPE  H16S 6783   6.834   5.301   4.908 -1.9356  1.2781  2.3169
   53DOPE  C217 6784   6.855   5.412   5.078  0.5319  0.2134 -0.4334
   53DOPE  H17R 6785   6.859   5.517   5.042 -0.2604 -0.0856 -1.4528
   53DOPE  H17S 6786   6.910   5.411   5.174  0.2484  0.1766 -0.2689
   53DOPE  C218 6787   6.705   5.388   5.116  0.4726 -0.5042 -0.5887
   53DOPE  H18R 6788   6.672   5.468   5.185  0.7771  0.5070 -1.5922
   53DOPE  H18S 6789   6.687   5.294   5.172  2.5638  0.1227  1.2799
   53DOPE  H18T 6790   6.637   5.379   5.029  1.8642 -0.8954 -1.6826
   53DOPE   C33 6791   7.110   5.080   3.638  0.1865 -0.4535 -0.1766
   53DOPE   H3X 6792   7.052   5.003   3.693 -0.0151  0.1021  0.4053
   53DOPE   H3Y 6793   7.040   5.132   3.569  0.7643  0.3201 -0.1935
   53DOPE   C34 6794   7.166   5.183   3.742  0.4162  0.0132  0.7614
   53DOPE   H4X 6795   7.252   5.234   3.693 -0.1736  3.8999  3.3660
   53DOPE   H4Y 6796   7.093   5.263   3.767  0.4950 -0.3562  2.2630
   53DOPE   C35 6797   7.217   5.131   3.874 -0.1234  0.7603  0.7741
   53DOPE   H5X 6798   7.295   5.058   3.844  0.7264  1.2973  1.6370
   53DOPE   H5Y 6799   7.143   5.067   3.926  2.1334 -3.6111 -0.8957
   53DOPE   C36 6800   7.261   5.237   3.970 -0.4860  0.7615  0.2270
   53DOPE   H6X 6801   7.165   5.280   4.004 -0.4533 -0.5482  2.1921
   53DOPE   H6Y 6802   7.326   5.321   3.937  3.0941 -1.8160  0.0586
   53DOPE   C37 6803   7.316   5.159   4.096 -0.7725  0.2159  0.7435
   53DOPE   H7X 6804   7.256   5.066   4.110  1.8823 -1.6778  0.3932
   53DOPE   H7Y 6805   7.419   5.131   4.066 -0.2154  0.4694  2.3509
   53DOPE   C38 6806   7.326   5.244   4.220 -0.7343  0.0576 -0.7918
   53DOPE   H8X 6807   7.236   5.310   4.226  0.4884  1.7310  0.0075
   53DOPE   H8Y 6808   7.405   5.321   4.204  0.3005 -0.5270  1.1661
   53DOPE   C39 6809   7.322   5.164   4.350 -0.4673  0.4390  0.3747
   53DOPE   H9X 6810   7.230   5.156   4.409 -0.3633  0.3789  0.5289
   53DOPE  C310 6811   7.434   5.106   4.400 -0.7098  0.3425  0.4764
   53DOPE  H10X 6812   7.425   5.045   4.491  1.7574 -1.4863 -0.3770
   53DOPE  C311 6813   7.570   5.089   4.340 -0.2017  0.5306 -0.2303
   53DOPE  H11X 6814   7.571   5.010   4.262 -1.7958  2.4825 -2.3685
   53DOPE  H11Y 6815   7.613   5.185   4.304 -1.9806  2.4169  2.2980
   53DOPE  C312 6816   7.650   5.047   4.464 -0.4816  0.1150  0.3176
   53DOPE  H12X 6817   7.612   4.952   4.510 -1.7577  1.1567  1.5149
   53DOPE  H12Y 6818   7.646   5.113   4.553  1.7983 -1.4552  1.6960
   53DOPE  C313 6819   7.798   5.021   4.437 -0.3047  0.5089 -0.2968
   53DOPE  H13X 6820   7.811   4.961   4.345 -0.3238 -0.1796  0.1395
   53DOPE  H13Y 6821   7.846   5.118   4.413 -0.2036  0.1618 -1.5847
   53DOPE  C314 6822   7.868   4.959   4.558 -0.2719  0.6765 -0.1982
   53DOPE  H14X 6823   7.810   4.869   4.587 -0.1906  0.7299  0.1371
   53DOPE  H14Y 6824   7.858   5.028   4.645  0.3636 -0.1022  0.5077
   53DOPE  C315 6825   8.019   4.934   4.537  0.3121 -0.2021  0.7427
   53DOPE  H15X 6826   8.076   5.015   4.587 -0.0909  0.8418 -0.4453
   53DOPE  H15Y 6827   8.042   4.932   4.428  0.5165 -1.3421  0.7934
   53DOPE  C316 6828   8.062   4.790   4.583  0.2187  0.2187  0.5395
   53DOPE  H16X 6829   8.165   4.781   4.544 -0.4241 -2.4536 -0.7235
   53DOPE  H16Y 6830   7.993   4.715   4.538 -2.3512  1.0501  2.7763
   53DOPE  C317 6831   8.070   4.766   4.738 -0.0882  0.4604  0.4761
   53DOPE  H17X 6832   7.968   4.758   4.782 -0.0105 -0.9855  0.4115
   53DOPE  H17Y 6833   8.126   4.674   4.763 -0.7468  0.0404  0.4374
   53DOPE  C318 6834   8.146   4.875   4.811  0.2465 -0.1751 -0.2669
   53DOPE  H18X 6835   8.160   4.837   4.914  0.0614 -0.7131 -0.4336
   53DOPE  H18Y 6836   8.249   4.904   4.782  1.1437 -0.4070  2.3893
   53DOPE  H18Z 6837   8.105   4.978   4.817 -0.0678 -0.3760  1.7431
   54DOPE     N 6838   6.289   4.142   3.247 -0.2453  0.3141 -0.0524
   54DOPE   HN1 6839   6.341   4.214   3.194  1.4945 -1.2607 -0.5631
   54DOPE   HN2 6840   6.249   4.077   3.177  1.2690 -1.7664  0.9265
   54DOPE   HN3 6841   6.212   4.187   3.301  1.5851  4.4431 -0.4805
   54DOPE   C12 6842   6.374   4.066   3.340 -0.1398 -0.2156  0.0894
   54DOPE  H12A 6843   6.376   4.124   3.434  0.9895  1.6563 -1.0339
   54DOPE  H12B 6844   6.479   4.063   3.302  0.4965 -1.4180  1.8032
   54DOPE   C11 6845   6.323   3.919   3.355  0.0525  0.1506 -0.0607
   54DOPE  H11A 6846   6.221   3.914   3.398 -0.4070  2.1188 -0.8307
   54DOPE  H11B 6847   6.376   3.868   3.438 -3.3019 -3.3771  0.2093
   54DOPE     P 6848   6.426   3.743   3.193 -0.0481  0.0456 -0.2259
   54DOPE   O13 6849   6.557   3.812   3.176  0.0577 -0.1982 -0.2345
   54DOPE   O14 6850   6.383   3.658   3.079  0.5692  0.0328 -0.2964
   54DOPE   O11 6851   6.441   3.653   3.322  0.4148  0.1186  1.1392
   54DOPE   O12 6852   6.316   3.850   3.228 -0.3745  0.0279 -0.6474
   54DOPE    C1 6853   6.347   3.562   3.379  0.1017  0.2568  0.9616
   54DOPE    HA 6854   6.322   3.498   3.291  3.3591  2.5391 -1.8687
   54DOPE    HB 6855   6.251   3.609   3.412 -1.2598 -1.3233 -0.5232
   54DOPE    C2 6856   6.404   3.471   3.488  0.3854 -0.2843 -0.2288
   54DOPE    HS 6857   6.325   3.422   3.548  1.0538 -1.2096 -0.0831
   54DOPE   O21 6858   6.499   3.541   3.568  0.2883  0.1308  0.2098
   54DOPE   C21 6859   6.465   3.639   3.645  1.0939 -0.6653  0.2659
   54DOPE   O22 6860   6.351   3.666   3.683 -0.0645 -0.6261  0.1044
   54DOPE   C22 6861   6.592   3.696   3.707 -0.4188  0.8214 -0.3875
   54DOPE   H2R 6862   6.675   3.636   3.664 -0.9008  1.4333 -2.2498
   54DOPE   H2S 6863   6.591   3.673   3.816 -0.4547 -0.6880 -0.6910
   54DOPE    C3 6864   6.474   3.342   3.423 -0.0124 -0.7319  0.1388
   54DOPE    HX 6865   6.549   3.372   3.346 -0.8779 -0.2473 -0.5327
   54DOPE    HY 6866   6.399   3.290   3.360  1.2203 -1.2434 -0.9659
   54DOPE   O31 6867   6.525   3.254   3.519  0.3414 -0.2263 -0.1301
   54DOPE   C31 6868   6.648   3.278   3.549 -0.4761  0.0755  0.8241
   54DOPE   O32 6869   6.730   3.352   3.496  0.6486  0.4903 -0.5794
   54DOPE   C32 6870   6.669   3.196   3.680  0.6811 -0.6690  0.6992
   54DOPE   H2X 6871   6.581   3.200   3.748 -0.6545  1.3858 -1.0343
   54DOPE   H2Y 6872   6.690   3.091   3.649 -1.3715 -0.7959 -0.4561
   54DOPE   C23 6873   6.631   3.848   3.693 -0.1693 -0.6252 -0.7023
   54DOPE   H3R 6874   6.556   3.905   3.753 -0.6607 -0.7875 -1.1527
   54DOPE   H3S 6875   6.615   3.877   3.587  0.9136  3.4182  0.0779
   54DOPE   C24 6876   6.777   3.875   3.725 -0.2194 -0.0286  0.7822
   54DOPE   H4R 6877   6.828   3.867   3.626 -1.5868  0.2604  0.0326
   54DOPE   H4S 6878   6.825   3.809   3.800  3.2780  0.0843 -1.1354
   54DOPE   C25 6879   6.789   4.020   3.778  0.6834  0.3551  0.1554
   54DOPE   H5R 6880   6.744   4.096   3.712 -0.4294 -0.2351  0.2242
   54DOPE   H5S 6881   6.897   4.050   3.780  0.1603  2.4123  1.1879
   54DOPE   C26 6882   6.737   4.034   3.921  0.2085  0.6575 -0.1412
   54DOPE   H6R 6883   6.801   3.964   3.978 -0.0849  0.8530  0.4374
   54DOPE   H6S 6884   6.630   4.008   3.924  0.1987  0.7229  2.6327
   54DOPE   C27 6885   6.761   4.174   3.974  0.2509 -0.3228 -0.4976
   54DOPE   H7R 6886   6.698   4.242   3.912 -2.2427 -0.5689  1.6053
   54DOPE   H7S 6887   6.864   4.215   3.967 -1.2669  3.8378 -2.5177
   54DOPE   C28 6888   6.720   4.184   4.122 -0.4086 -0.1973 -0.3484
   54DOPE   H8R 6889   6.778   4.105   4.176  1.1294  1.0227 -0.1417
   54DOPE   H8S 6890   6.615   4.149   4.126 -0.3278 -0.6419 -1.7116
   54DOPE   C29 6891   6.742   4.320   4.181  0.2090 -0.2612 -0.7809
   54DOPE   H9R 6892   6.830   4.336   4.244 -0.0414  0.6173 -0.6389
   54DOPE  C210 6893   6.665   4.422   4.161  0.3760 -0.1986 -0.2811
   54DOPE  H10R 6894   6.695   4.519   4.202 -1.4826  0.1349  0.4009
   54DOPE  C211 6895   6.543   4.438   4.059 -0.2714 -0.2546  0.2249
   54DOPE  H11R 6896   6.517   4.343   4.008 -3.8991  0.4962  0.3844
   54DOPE  H11S 6897   6.572   4.510   3.980  1.2218  0.2272  1.1596
   54DOPE  C212 6898   6.409   4.476   4.120  0.0054  0.8063 -0.0976
   54DOPE  H12R 6899   6.340   4.509   4.040  2.4730  1.7373 -1.9854
   54DOPE  H12S 6900   6.420   4.557   4.196 -0.0619  1.0811 -0.3763
   54DOPE  C213 6901   6.363   4.351   4.201 -0.1178  0.6016 -0.6123
   54DOPE  H13R 6902   6.452   4.308   4.252  0.2687 -0.1252 -1.8521
   54DOPE  H13S 6903   6.348   4.268   4.128  0.7765 -0.8277  0.7489
   54DOPE  C214 6904   6.240   4.369   4.291 -0.4657  0.3814 -0.0080
   54DOPE  H14R 6905   6.152   4.424   4.252 -0.8401 -0.5413 -0.4901
   54DOPE  H14S 6906   6.279   4.426   4.379 -0.4661  0.4171 -0.0303
   54DOPE  C215 6907   6.191   4.240   4.363  0.2450  0.3071 -0.0323
   54DOPE  H15R 6908   6.284   4.186   4.393 -0.3078  0.0812  1.3750
   54DOPE  H15S 6909   6.134   4.180   4.289  0.5499  1.8329 -1.5663
   54DOPE  C216 6910   6.111   4.261   4.499  0.4529  0.2704  0.2589
   54DOPE  H16R 6911   6.016   4.315   4.474  0.1507 -0.2863  0.2022
   54DOPE  H16S 6912   6.177   4.320   4.566 -0.8669 -0.0599  1.9309
   54DOPE  C217 6913   6.059   4.124   4.546 -0.1044  0.8996 -0.4078
   54DOPE  H17R 6914   6.148   4.058   4.550 -0.5680  0.3361  1.3944
   54DOPE  H17S 6915   5.984   4.078   4.479  0.9658 -1.7282  0.0870
   54DOPE  C218 6916   6.006   4.126   4.688 -0.2779 -0.4219  0.6739
   54DOPE  H18R 6917   5.900   4.159   4.684  0.3124  1.6736  1.1314
   54DOPE  H18S 6918   6.062   4.186   4.762 -0.9909  2.8080 -1.2266
   54DOPE  H18T 6919   5.986   4.027   4.736 -1.0366  0.4946  2.3251
   54DOPE   C33 6920   6.790   3.246   3.759  0.0590  0.5463  0.1562
   54DOPE   H3X 6921   6.885   3.254   3.703 -0.3453 -0.9417 -0.8106
   54DOPE   H3Y 6922   6.794   3.165   3.835  0.5649 -1.1400 -1.5842
   54DOPE   C34 6923   6.754   3.368   3.845 -0.4278 -0.2682  0.4991
   54DOPE   H4X 6924   6.729   3.453   3.778  2.5754  2.1128  2.1284
   54DOPE   H4Y 6925   6.660   3.346   3.900 -1.2670 -1.7041 -1.3824
   54DOPE   C35 6926   6.874   3.411   3.922 -0.5149 -0.6432  0.3247
   54DOPE   H5X 6927   6.964   3.432   3.859 -0.5202 -1.2014  0.1291
   54DOPE   H5Y 6928   6.905   3.339   4.001 -0.1849 -1.0474 -0.1699
   54DOPE   C36 6929   6.853   3.547   4.002  0.7423  1.1462 -0.7337
   54DOPE   H6X 6930   6.810   3.621   3.931 -2.7786  1.5377  1.5592
   54DOPE   H6Y 6931   6.942   3.588   4.054  0.5761  2.6813 -1.6020
   54DOPE   C37 6932   6.744   3.526   4.111 -0.3745 -0.5231  0.8481
   54DOPE   H7X 6933   6.647   3.523   4.056  1.7077 -1.0893 -3.1339
   54DOPE   H7Y 6934   6.755   3.425   4.156 -0.3266 -1.4789 -1.2003
   54DOPE   C38 6935   6.752   3.627   4.230  0.0436 -0.0459 -0.7299
   54DOPE   H8X 6936   6.853   3.607   4.270 -1.2314 -4.2157  0.9241
   54DOPE   H8Y 6937   6.693   3.600   4.319 -0.4359 -1.4486 -1.4398
   54DOPE   C39 6938   6.723   3.763   4.178  0.4884  0.2069 -0.0482
   54DOPE   H9X 6939   6.815   3.821   4.159  0.2927  0.9016  1.0708
   54DOPE  C310 6940   6.599   3.809   4.158  0.1654 -0.4491  0.2005
   54DOPE  H10X 6941   6.581   3.909   4.116 -3.4157 -0.3238  1.6415
   54DOPE  C311 6942   6.467   3.731   4.189 -1.1714 -0.0483 -0.0974
   54DOPE  H11X 6943   6.427   3.674   4.102 -1.9026 -0.1804  0.3210
   54DOPE  H11Y 6944   6.477   3.651   4.265 -2.1032 -1.0800 -1.0308
   54DOPE  C312 6945   6.356   3.823   4.248  0.3042 -0.7031 -0.1094
   54DOPE  H12X 6946   6.354   3.917   4.188 -1.4368 -2.1521 -2.5140
   54DOPE  H12Y 6947   6.394   3.840   4.351  0.5672 -2.8548  0.1995
   54DOPE  C313 6948   6.213   3.754   4.248  0.3918 -0.0568 -0.3353
   54DOPE  H13X 6949   6.187   3.721   4.145  1.5138  0.1482 -0.7014
   54DOPE  H13Y 6950   6.220   3.661   4.308  0.3973  0.6257  0.7422
   54DOPE  C314 6951   6.100   3.836   4.314  0.3260  0.5152  0.4666
   54DOPE  H14X 6952   6.097   3.932   4.257  2.4505 -0.7359 -1.9613
   54DOPE  H14Y 6953   6.104   3.859   4.422 -0.6943 -2.7024  1.2832
   54DOPE  C315 6954   5.966   3.763   4.293 -0.1015  0.2701 -0.3018
   54DOPE  H15X 6955   5.974   3.662   4.339 -0.3192  0.5628  0.3910
   54DOPE  H15Y 6956   5.942   3.744   4.186 -1.6330 -2.3647  0.4203
   54DOPE  C316 6957   5.845   3.830   4.363 -0.2855  0.4638 -0.1730
   54DOPE  H16X 6958   5.828   3.935   4.330 -3.4397  1.2266  3.1491
   54DOPE  H16Y 6959   5.862   3.837   4.473  2.9905 -0.7381 -0.5147
   54DOPE  C317 6960   5.711   3.755   4.341 -0.1068 -0.0192 -0.1640
   54DOPE  H17X 6961   5.665   3.786   4.245 -1.9270  0.1524  0.7165
   54DOPE  H17Y 6962   5.738   3.647   4.330 -1.4021 -0.4381  0.5861
   54DOPE  C318 6963   5.591   3.769   4.437  0.0940  0.4298  0.1111
   54DOPE  H18X 6964   5.576   3.872   4.475  1.0912 -0.3578  2.8362
   54DOPE  H18Y 6965   5.496   3.729   4.393 -0.7721  0.3595  1.9726
   54DOPE  H18Z 6966   5.599   3.710   4.530 -2.7971  0.6124  0.5726
   55DOPE     N 6967   1.657   5.864   2.747  0.0863  0.3902 -0.1005
   55DOPE   HN1 6968   1.680   5.763   2.738 -0.6646 -0.0099  2.1229
   55DOPE   HN2 6969   1.693   5.884   2.842 -0.3602 -0.4842  0.2606
   55DOPE   HN3 6970   1.554   5.873   2.756 -0.0118 -0.5270 -0.2155
   55DOPE   C12 6971   1.732   5.958   2.653 -0.4079  0.0394 -0.8682
   55DOPE  H12A 6972   1.715   5.923   2.549 -1.0382  0.7590 -1.0156
   55DOPE  H12B 6973   1.836   5.973   2.687 -0.8900 -0.1803  0.8142
   55DOPE   C11 6974   1.675   6.105   2.664 -0.3723  0.0031 -0.0385
   55DOPE  H11A 6975   1.738   6.175   2.605 -0.1239 -0.7312 -0.6652
   55DOPE  H11B 6976   1.702   6.137   2.766  2.0975 -1.8148 -0.0142
   55DOPE     P 6977   1.439   6.231   2.641  0.1647 -0.2210 -0.2978
   55DOPE   O13 6978   1.293   6.202   2.630 -0.2365 -0.3100 -0.4469
   55DOPE   O14 6979   1.487   6.334   2.542  0.2687  0.1295  0.1381
   55DOPE   O11 6980   1.454   6.280   2.788  0.1438 -0.0369 -0.0631
   55DOPE   O12 6981   1.533   6.100   2.631  0.1009  0.7596  0.6204
   55DOPE    C1 6982   1.510   6.404   2.835  0.1547  0.6004  0.3482
   55DOPE    HA 6983   1.460   6.484   2.778  2.8470  0.3824 -2.6437
   55DOPE    HB 6984   1.618   6.410   2.808  0.2123  1.3351  0.7243
   55DOPE    C2 6985   1.479   6.426   2.990 -0.6608  0.6019 -0.0625
   55DOPE    HS 6986   1.526   6.524   3.013  0.6130 -0.2548  1.1923
   55DOPE   O21 6987   1.534   6.320   3.066  0.2444  0.3032  0.1286
   55DOPE   C21 6988   1.655   6.340   3.111 -0.5097 -0.1293  0.6549
   55DOPE   O22 6989   1.716   6.447   3.105 -0.0268  0.0181 -0.8300
   55DOPE   C22 6990   1.708   6.213   3.187 -0.2890  0.3798  0.5371
   55DOPE   H2R 6991   1.798   6.184   3.130  0.2098  0.9199  1.0379
   55DOPE   H2S 6992   1.630   6.136   3.171 -0.9210  1.5674 -3.0208
   55DOPE    C3 6993   1.324   6.419   3.028 -0.7098 -0.3786  0.1780
   55DOPE    HX 6994   1.277   6.324   2.995 -1.5919 -0.6168  1.9703
   55DOPE    HY 6995   1.266   6.499   2.976 -1.0479 -0.1901  0.8311
   55DOPE   O31 6996   1.307   6.422   3.173 -0.0291 -0.3788  0.0781
   55DOPE   C31 6997   1.296   6.547   3.226  0.4661 -0.9954 -0.4343
   55DOPE   O32 6998   1.293   6.645   3.154  0.0464 -0.1623  0.2165
   55DOPE   C32 6999   1.276   6.538   3.375  0.1089 -0.7887  0.3433
   55DOPE   H2X 7000   1.346   6.458   3.406  0.1309 -1.8558 -2.1842
   55DOPE   H2Y 7001   1.317   6.630   3.420  1.3492  0.0219 -2.2288
   55DOPE   C23 7002   1.718   6.239   3.338  0.4200  0.1259 -0.0271
   55DOPE   H3R 7003   1.777   6.331   3.359  0.9850 -0.1609 -0.3640
   55DOPE   H3S 7004   1.759   6.150   3.390 -1.0074  0.1390  1.1949
   55DOPE   C24 7005   1.570   6.257   3.386 -0.1892 -0.3670  0.2051
   55DOPE   H4R 7006   1.497   6.190   3.335  1.1945 -0.5244 -1.6600
   55DOPE   H4S 7007   1.525   6.354   3.356 -0.6455 -0.9038 -0.8876
   55DOPE   C25 7008   1.557   6.255   3.535  0.4740  0.8377  0.5563
   55DOPE   H5R 7009   1.621   6.170   3.565  0.0755  0.4447  0.3144
   55DOPE   H5S 7010   1.450   6.237   3.559  0.0344 -1.0194 -2.2372
   55DOPE   C26 7011   1.600   6.392   3.597 -1.1564  0.3019  0.6454
   55DOPE   H6R 7012   1.543   6.470   3.542 -1.9905 -1.5829 -1.3263
   55DOPE   H6S 7013   1.704   6.411   3.563 -1.8505  0.3874 -1.6581
   55DOPE   C27 7014   1.594   6.410   3.750  0.0526 -0.0681  0.2140
   55DOPE   H7R 7015   1.639   6.319   3.797  2.3198 -0.2462 -2.0826
   55DOPE   H7S 7016   1.486   6.398   3.773 -0.1219 -1.2780 -1.1166
   55DOPE   C28 7017   1.643   6.546   3.800 -0.3618  0.1585  0.0416
   55DOPE   H8R 7018   1.733   6.573   3.740  0.8601  0.1339  1.8065
   55DOPE   H8S 7019   1.668   6.531   3.907 -0.9876 -0.0134  0.1722
   55DOPE   C29 7020   1.543   6.653   3.780  0.2105 -0.0341 -0.0761
   55DOPE   H9R 7021   1.497   6.658   3.680 -0.3554 -1.1618  0.1153
   55DOPE  C210 7022   1.507   6.749   3.869 -0.3056 -0.7533  0.6515
   55DOPE  H10R 7023   1.434   6.825   3.839  0.4591 -0.8865 -1.7285
   55DOPE  C211 7024   1.557   6.761   4.011  0.1710 -0.1583  0.2633
   55DOPE  H11R 7025   1.661   6.798   4.018 -0.4568  1.4238  3.0187
   55DOPE  H11S 7026   1.556   6.660   4.057  1.7197  0.3054  1.3961
   55DOPE  C212 7027   1.468   6.848   4.095 -0.4826  0.0119  0.1574
   55DOPE  H12R 7028   1.361   6.827   4.074 -1.3459  3.2616  0.9014
   55DOPE  H12S 7029   1.485   6.951   4.057  0.0236 -0.1511 -0.0717
   55DOPE  C213 7030   1.513   6.834   4.243  0.2520  0.4278  0.2534
   55DOPE  H13R 7031   1.612   6.884   4.244  0.4835  0.0059 -0.5579
   55DOPE  H13S 7032   1.530   6.725   4.257 -2.0635 -0.0796 -0.3545
   55DOPE  C214 7033   1.426   6.884   4.355 -0.4095  0.3045  0.4283
   55DOPE  H14R 7034   1.409   6.993   4.341  1.4287  0.5160 -0.4452
   55DOPE  H14S 7035   1.492   6.866   4.443  0.7483 -1.0556 -0.6601
   55DOPE  C215 7036   1.295   6.804   4.380  0.1661 -0.3572 -0.1976
   55DOPE  H15R 7037   1.307   6.693   4.381  0.1953 -0.3952  2.1589
   55DOPE  H15S 7038   1.224   6.826   4.298  0.9728 -0.6836 -1.0001
   55DOPE  C216 7039   1.236   6.834   4.520 -0.3081 -0.0338 -0.3390
   55DOPE  H16R 7040   1.320   6.806   4.587  0.1196  2.9302  0.4770
   55DOPE  H16S 7041   1.153   6.763   4.536 -1.5676  1.0306 -1.8813
   55DOPE  C217 7042   1.193   6.975   4.540 -0.5313  0.2746 -0.4264
   55DOPE  H17R 7043   1.129   7.012   4.457 -0.8397  0.4783 -0.1023
   55DOPE  H17S 7044   1.282   7.042   4.542 -0.3134  0.0142 -1.1259
   55DOPE  C218 7045   1.105   6.982   4.668 -0.4213 -0.0760 -0.6689
   55DOPE  H18R 7046   1.074   7.086   4.689 -0.6698 -0.2224 -0.2895
   55DOPE  H18S 7047   1.153   6.945   4.762 -2.2161 -0.0189  0.3016
   55DOPE  H18T 7048   1.013   6.921   4.669  1.4118 -3.2300  2.7967
   55DOPE   C33 7049   1.127   6.525   3.416 -0.6401 -0.8518 -0.2296
   55DOPE   H3X 7050   1.092   6.422   3.393  0.8854 -1.2264 -1.0541
   55DOPE   H3Y 7051   1.069   6.578   3.338 -0.2838 -0.7465 -0.4230
   55DOPE   C34 7052   1.092   6.572   3.564 -0.2936 -0.1788 -0.1606
   55DOPE   H4X 7053   1.123   6.678   3.570 -2.3432  0.4491 -0.1484
   55DOPE   H4Y 7054   0.983   6.571   3.581 -0.2863 -1.2822 -0.1113
   55DOPE   C35 7055   1.158   6.482   3.671 -0.5076  0.3131 -0.2366
   55DOPE   H5X 7056   1.268   6.476   3.666 -0.4411  0.4990  0.8470
   55DOPE   H5Y 7057   1.125   6.376   3.674  1.0996 -0.2038  3.1207
   55DOPE   C36 7058   1.112   6.540   3.807 -0.0179  0.0407  0.1171
   55DOPE   H6X 7059   1.008   6.512   3.831  0.0117  0.5349  0.8364
   55DOPE   H6Y 7060   1.116   6.651   3.805  0.9112  0.0377  0.8388
   55DOPE   C37 7061   1.202   6.482   3.918  0.2652  0.1708  0.1952
   55DOPE   H7X 7062   1.204   6.372   3.906  0.3070  0.1611  0.2983
   55DOPE   H7Y 7063   1.306   6.512   3.893  0.4043 -1.0440 -0.7966
   55DOPE   C38 7064   1.173   6.520   4.065 -0.0481  0.2970  0.4375
   55DOPE   H8X 7065   1.071   6.482   4.088  1.3268 -2.2950  2.7829
   55DOPE   H8Y 7066   1.184   6.631   4.071 -0.3168  0.3222  0.4563
   55DOPE   C39 7067   1.273   6.461   4.160  0.2112 -0.0606  0.6756
   55DOPE   H9X 7068   1.373   6.443   4.117  0.1980 -0.2395  0.7188
   55DOPE  C310 7069   1.261   6.421   4.283  0.1303  0.2036 -0.2105
   55DOPE  H10X 7070   1.348   6.387   4.342  0.5254  0.6338 -0.5399
   55DOPE  C311 7071   1.131   6.431   4.357 -0.3555  0.3112 -0.3168
   55DOPE  H11X 7072   1.058   6.498   4.308 -0.0976  0.8498  0.0169
   55DOPE  H11Y 7073   1.094   6.327   4.351  1.8082 -0.7580  2.2584
   55DOPE  C312 7074   1.145   6.472   4.508 -0.1484 -0.8005 -0.3636
   55DOPE  H12X 7075   1.110   6.576   4.523  0.4147 -0.5819 -0.5745
   55DOPE  H12Y 7076   1.245   6.451   4.551 -0.6382  0.7035  1.6355
   55DOPE  C313 7077   1.055   6.382   4.603  0.5797  0.1799  0.0391
   55DOPE  H13X 7078   0.957   6.369   4.553 -0.5180  1.6994  1.6642
   55DOPE  H13Y 7079   1.110   6.286   4.605 -0.7495 -0.6127 -0.6488
   55DOPE  C314 7080   1.018   6.439   4.740 -0.1968 -0.2335 -0.2955
   55DOPE  H14X 7081   0.936   6.382   4.787  0.7433  0.2339  2.0666
   55DOPE  H14Y 7082   0.984   6.545   4.732 -0.2605  0.1060  3.0408
   55DOPE  C315 7083   1.134   6.429   4.847 -0.0322 -0.2641 -0.3448
   55DOPE  H15X 7084   1.236   6.448   4.809 -0.0652 -0.1145 -0.3556
   55DOPE  H15Y 7085   1.120   6.333   4.902  0.7013  0.1989  0.6698
   55DOPE  C316 7086   1.118   6.533   4.963  0.6084 -0.3320  0.8430
   55DOPE  H16X 7087   1.199   6.516   5.037  0.0339  1.5125  1.9895
   55DOPE  H16Y 7088   1.020   6.518   5.015 -0.9496  0.6162 -1.6591
   55DOPE  C317 7089   1.120   6.689   4.927  0.3821 -0.0427  0.1868
   55DOPE  H17X 7090   1.211   6.717   4.870  1.1372 -0.4836  1.1435
   55DOPE  H17Y 7091   1.032   6.723   4.869  0.0882  1.0120  1.2337
   55DOPE  C318 7092   1.123   6.772   5.058 -0.4469 -0.4348  0.3436
   55DOPE  H18X 7093   1.143   6.878   5.032 -2.2124 -0.3433 -0.8203
   55DOPE  H18Y 7094   1.035   6.752   5.123  1.4959  1.1911  3.8017
   55DOPE  H18Z 7095   1.212   6.738   5.116 -0.5697 -1.1171  0.1416
   56DOPE     N 7096   1.203   5.188   2.360  0.6338  0.0229  0.5022
   56DOPE   HN1 7097   1.298   5.165   2.395  0.5068  0.1273  0.9193
   56DOPE   HN2 7098   1.150   5.099   2.368 -1.5675  1.2731  0.5565
   56DOPE   HN3 7099   1.214   5.220   2.261  0.7158 -0.1740  0.4467
   56DOPE   C12 7100   1.139   5.289   2.454  0.9325 -0.1641 -0.0684
   56DOPE  H12A 7101   1.137   5.237   2.552 -0.1511 -2.4403 -1.2260
   56DOPE  H12B 7102   1.040   5.326   2.422  0.5996  0.2649  1.4212
   56DOPE   C11 7103   1.235   5.414   2.456  0.5663 -0.1222  0.5118
   56DOPE  H11A 7104   1.183   5.494   2.514  0.6031  2.4399 -2.7018
   56DOPE  H11B 7105   1.233   5.457   2.354 -1.7870 -0.8312  0.2069
   56DOPE     P 7106   1.404   5.321   2.629  0.0547  0.0482  0.5232
   56DOPE   O13 7107   1.542   5.369   2.649  0.0409  0.1553 -0.4358
   56DOPE   O14 7108   1.399   5.168   2.624  0.0175  0.0273 -0.0698
   56DOPE   O11 7109   1.303   5.391   2.724  0.2677  0.0815  0.8195
   56DOPE   O12 7110   1.370   5.380   2.486  0.6406 -0.0563 -0.6223
   56DOPE    C1 7111   1.326   5.528   2.760 -0.1781  0.3027 -0.3544
   56DOPE    HA 7112   1.223   5.570   2.749 -0.3126 -0.3115 -1.6821
   56DOPE    HB 7113   1.392   5.589   2.694  0.4944 -0.1161 -0.0782
   56DOPE    C2 7114   1.383   5.538   2.901  0.0022 -0.3191  0.2316
   56DOPE    HS 7115   1.490   5.511   2.910 -0.3315 -1.7534  0.0947
   56DOPE   O21 7116   1.302   5.453   2.981  0.7469 -0.0142  0.0575
   56DOPE   C21 7117   1.360   5.404   3.092  0.1317 -0.6603 -0.1494
   56DOPE   O22 7118   1.475   5.423   3.120 -0.1866  0.1796  0.3169
   56DOPE   C22 7119   1.258   5.323   3.168  0.6722  0.1544  0.5950
   56DOPE   H2R 7120   1.298   5.229   3.212 -1.7640 -0.7484  0.9802
   56DOPE   H2S 7121   1.174   5.304   3.099  0.7961  1.4811  0.0415
   56DOPE    C3 7122   1.366   5.683   2.956 -0.0602 -0.1199  0.6907
   56DOPE    HX 7123   1.259   5.709   2.943 -0.5993 -0.3352  3.8621
   56DOPE    HY 7124   1.427   5.750   2.892  0.7937 -0.7126  0.8634
   56DOPE   O31 7125   1.402   5.700   3.092  0.6190 -0.0915 -0.1353
   56DOPE   C31 7126   1.525   5.729   3.129 -0.1135  0.2403 -0.7012
   56DOPE   O32 7127   1.625   5.722   3.060 -0.0799  0.1796  0.6554
   56DOPE   C32 7128   1.528   5.756   3.281  0.6046  0.5209 -0.6115
   56DOPE   H2X 7129   1.429   5.798   3.307  0.6827 -0.4782  1.5629
   56DOPE   H2Y 7130   1.538   5.657   3.332 -1.9374 -0.4568 -1.8501
   56DOPE   C23 7131   1.205   5.405   3.288 -0.9982 -0.5439 -0.2712
   56DOPE   H3R 7132   1.132   5.336   3.335 -0.3204 -1.4410 -0.5194
   56DOPE   H3S 7133   1.144   5.487   3.245  0.6836  0.6294 -0.5270
   56DOPE   C24 7134   1.310   5.455   3.388  0.2026  0.5645 -0.0166
   56DOPE   H4R 7135   1.386   5.513   3.332  0.6006  0.7464  0.6951
   56DOPE   H4S 7136   1.370   5.369   3.427  0.2101 -0.2134 -1.6659
   56DOPE   C25 7137   1.242   5.536   3.497  0.0393  0.4100  0.4144
   56DOPE   H5R 7138   1.148   5.578   3.455 -0.4045  0.2954  1.2770
   56DOPE   H5S 7139   1.307   5.622   3.525  0.8987  0.2788 -1.0502
   56DOPE   C26 7140   1.213   5.447   3.616 -0.2226  0.1227 -0.1867
   56DOPE   H6R 7141   1.308   5.402   3.650 -1.3808 -1.1170  1.5375
   56DOPE   H6S 7142   1.139   5.366   3.598 -0.2423 -1.0502  4.0929
   56DOPE   C27 7143   1.145   5.538   3.724 -0.2959 -0.3818 -0.5307
   56DOPE   H7R 7144   1.041   5.569   3.701 -0.9249 -1.3806  0.8648
   56DOPE   H7S 7145   1.200   5.634   3.730 -2.6895  0.9825  1.2724
   56DOPE   C28 7146   1.165   5.468   3.862  0.0956  0.1151 -0.1155
   56DOPE   H8R 7147   1.136   5.547   3.934  1.8609  3.3903 -2.7231
   56DOPE   H8S 7148   1.272   5.440   3.876 -0.0297 -0.6211 -0.5516
   56DOPE   C29 7149   1.076   5.342   3.875  0.4716 -0.1735  0.0753
   56DOPE   H9R 7150   1.094   5.262   3.802 -1.6646 -1.0493  0.4383
   56DOPE  C210 7151   0.977   5.324   3.964 -1.2730 -0.4388 -0.7498
   56DOPE  H10R 7152   0.942   5.222   3.985 -2.1653  0.3036  1.7019
   56DOPE  C211 7153   0.942   5.425   4.071 -0.0040 -0.5118  0.2584
   56DOPE  H11R 7154   0.833   5.440   4.061 -0.0380  0.8797  2.1639
   56DOPE  H11S 7155   0.995   5.522   4.057 -0.4835 -0.2935 -0.0810
   56DOPE  C212 7156   0.974   5.370   4.205 -0.1016 -0.0094 -0.2680
   56DOPE  H12R 7157   1.082   5.352   4.224 -0.3872 -1.1199  0.3556
   56DOPE  H12S 7158   0.919   5.275   4.220 -0.6536  0.5866  1.8258
   56DOPE  C213 7159   0.909   5.451   4.312 -0.4076  0.2438 -0.0146
   56DOPE  H13R 7160   0.802   5.463   4.285  0.1194 -0.1560 -2.5815
   56DOPE  H13S 7161   0.956   5.551   4.326 -1.1047  0.5221  0.3924
   56DOPE  C214 7162   0.909   5.395   4.455 -0.8338  0.4644  0.5242
   56DOPE  H14R 7163   0.853   5.299   4.460  1.3029 -0.8519  0.1515
   56DOPE  H14S 7164   0.850   5.470   4.513 -0.0772  1.6200 -0.1456
   56DOPE  C215 7165   1.050   5.371   4.521 -0.0553  1.4740 -0.2503
   56DOPE  H15R 7166   1.112   5.463   4.518  4.2235 -1.1854 -1.6477
   56DOPE  H15S 7167   1.108   5.295   4.464 -0.0237  1.0747  0.3041
   56DOPE  C216 7168   1.040   5.330   4.669  0.3849 -0.1011 -0.6017
   56DOPE  H16R 7169   0.958   5.256   4.680 -1.0023  1.3558 -0.5770
   56DOPE  H16S 7170   1.017   5.410   4.743  1.8403 -0.2742  0.0754
   56DOPE  C217 7171   1.162   5.267   4.730 -0.1073  0.3927  0.9731
   56DOPE  H17R 7172   1.200   5.191   4.658  1.2401  1.4244  0.5544
   56DOPE  H17S 7173   1.147   5.213   4.826  0.5074 -1.9159 -0.1583
   56DOPE  C218 7174   1.278   5.366   4.760 -0.2432 -0.5431  0.0305
   56DOPE  H18R 7175   1.296   5.428   4.669 -0.1777 -0.3385  0.1835
   56DOPE  H18S 7176   1.372   5.314   4.787 -0.8082 -1.0768  1.0080
   56DOPE  H18T 7177   1.246   5.422   4.851  2.7659  0.0207  0.8420
   56DOPE   C33 7178   1.642   5.847   3.328  1.1992 -0.3255  0.4508
   56DOPE   H3X 7179   1.619   5.953   3.304  2.6781  0.2550  1.5028
   56DOPE   H3Y 7180   1.738   5.825   3.277 -0.4257 -0.4959 -2.8443
   56DOPE   C34 7181   1.651   5.840   3.478  0.7746  0.2672  0.4841
   56DOPE   H4X 7182   1.695   5.742   3.508  3.0872  1.6254  1.8364
   56DOPE   H4Y 7183   1.738   5.901   3.510 -0.0068  1.9623 -0.5292
   56DOPE   C35 7184   1.530   5.885   3.562  0.3863  0.7126  0.3922
   56DOPE   H5X 7185   1.433   5.836   3.537 -0.5027  0.8884  3.1559
   56DOPE   H5Y 7186   1.514   5.989   3.526  0.6419 -0.3660 -3.2790
   56DOPE   C36 7187   1.561   5.873   3.711  0.4675  0.2671  0.0127
   56DOPE   H6X 7188   1.509   5.952   3.770  1.2723  0.0654  1.0145
   56DOPE   H6Y 7189   1.671   5.880   3.721  0.2650  2.2944  1.5994
   56DOPE   C37 7190   1.518   5.737   3.759  0.1413 -0.2091 -0.0014
   56DOPE   H7X 7191   1.409   5.717   3.754  0.2750 -1.9598  2.2952
   56DOPE   H7Y 7192   1.568   5.654   3.705  0.2704 -0.4492  0.4846
   56DOPE   C38 7193   1.566   5.723   3.907  0.7219  0.2493  0.1506
   56DOPE   H8X 7194   1.513   5.802   3.964 -0.3489  1.2175 -2.0567
   56DOPE   H8Y 7195   1.670   5.759   3.923  0.0138  1.2812  3.1426
   56DOPE   C39 7196   1.553   5.583   3.961  0.4299 -0.4107  0.0285
   56DOPE   H9X 7197   1.625   5.510   3.923  0.3141 -0.2014 -0.6111
   56DOPE  C310 7198   1.473   5.546   4.063 -0.1454  0.1896 -0.0268
   56DOPE  H10X 7199   1.477   5.440   4.093  4.0245  0.1864 -0.0083
   56DOPE  C311 7200   1.386   5.637   4.150  0.1919  0.3576  0.2403
   56DOPE  H11X 7201   1.419   5.742   4.140  0.2732  0.2155 -1.2042
   56DOPE  H11Y 7202   1.282   5.627   4.110  0.3110 -1.3780  0.3035
   56DOPE  C312 7203   1.397   5.583   4.292 -0.0526 -0.9851 -1.0712
   56DOPE  H12X 7204   1.384   5.473   4.299  0.7492 -1.0078  0.6948
   56DOPE  H12Y 7205   1.318   5.633   4.352  1.6108  0.7416 -0.1679
   56DOPE  C313 7206   1.530   5.622   4.359  0.6733 -0.7439 -0.3529
   56DOPE  H13X 7207   1.615   5.579   4.302  1.1079  1.3108 -1.3144
   56DOPE  H13Y 7208   1.536   5.732   4.354 -1.5131 -0.4490  1.7235
   56DOPE  C314 7209   1.533   5.595   4.510  0.3967 -0.2422 -0.5136
   56DOPE  H14X 7210   1.531   5.487   4.536 -1.8995  0.1260  1.2156
   56DOPE  H14Y 7211   1.439   5.637   4.551  0.0493  0.3377 -1.8347
   56DOPE  C315 7212   1.666   5.648   4.566 -0.3194 -0.4788 -0.7000
   56DOPE  H15X 7213   1.671   5.758   4.557  1.5753 -0.6538 -2.5827
   56DOPE  H15Y 7214   1.740   5.598   4.500 -1.5587 -2.3740 -0.7487
   56DOPE  C316 7215   1.694   5.616   4.710  0.4024 -0.3817  0.0682
   56DOPE  H16X 7216   1.788   5.666   4.742 -0.9497  1.5819  1.2161
   56DOPE  H16Y 7217   1.711   5.507   4.722 -0.7220 -0.5297  0.4020
   56DOPE  C317 7218   1.585   5.645   4.817 -0.7216  0.0580 -0.6142
   56DOPE  H17X 7219   1.576   5.755   4.828  1.0466  0.3089 -1.3684
   56DOPE  H17Y 7220   1.492   5.597   4.779 -1.9267  2.3337 -0.7375
   56DOPE  C318 7221   1.616   5.588   4.963 -0.9464  0.3605  0.7575
   56DOPE  H18X 7222   1.547   5.636   5.035  2.3439  2.7330  2.5956
   56DOPE  H18Y 7223   1.605   5.479   4.943 -2.0164  0.7034 -0.7535
   56DOPE  H18Z 7224   1.715   5.615   5.004 -0.0205 -1.2760 -0.2624
   57DOPE     N 7225   0.274   2.663   3.112 -0.2358 -0.2085  0.3734
   57DOPE   HN1 7226   0.307   2.689   3.017 -1.4112  2.3905  0.5909
   57DOPE   HN2 7227   0.171   2.665   3.108 -0.1859  0.4963 -0.8271
   57DOPE   HN3 7228   0.314   2.728   3.183  0.5091 -2.5206  2.2449
   57DOPE   C12 7229   0.325   2.526   3.151  0.6976 -0.6308  0.1528
   57DOPE  H12A 7230   0.281   2.450   3.082 -0.3565 -1.2698  1.4736
   57DOPE  H12B 7231   0.284   2.498   3.250  0.9751 -3.4651 -0.4624
   57DOPE   C11 7232   0.479   2.524   3.151 -0.3590  0.1812  0.5440
   57DOPE  H11A 7233   0.512   2.449   3.227 -1.4073 -1.5391 -0.6410
   57DOPE  H11B 7234   0.529   2.615   3.190 -1.5948  0.9375  0.4030
   57DOPE     P 7235   0.577   2.335   2.995  0.2310 -0.1664 -0.0791
   57DOPE   O13 7236   0.650   2.325   2.868  0.0942 -0.1315 -0.6386
   57DOPE   O14 7237   0.462   2.242   3.003  0.3800 -0.3841 -0.4003
   57DOPE   O11 7238   0.666   2.292   3.122  0.2160  0.3545  0.3776
   57DOPE   O12 7239   0.533   2.484   3.026  0.2471 -0.4556  0.4465
   57DOPE    C1 7240   0.806   2.321   3.127  0.0290 -0.1060  0.0731
   57DOPE    HA 7241   0.824   2.419   3.078  0.1198  0.4358  1.1653
   57DOPE    HB 7242   0.873   2.249   3.075  1.2041 -0.6226  2.1866
   57DOPE    C2 7243   0.869   2.335   3.269  0.4346 -0.0173 -0.5887
   57DOPE    HS 7244   0.971   2.376   3.258  1.3459 -1.6867  1.1176
   57DOPE   O21 7245   0.882   2.212   3.333  0.3013 -0.0163  0.3073
   57DOPE   C21 7246   0.973   2.198   3.430  0.5920 -0.2886 -0.5625
   57DOPE   O22 7247   1.053   2.284   3.469 -0.6350 -0.5319  0.8196
   57DOPE   C22 7248   0.957   2.051   3.489  0.3397 -0.1358 -0.7019
   57DOPE   H2R 7249   1.036   1.986   3.446  1.4120 -0.1678  1.2080
   57DOPE   H2S 7250   0.854   2.012   3.473  0.2058 -1.3208  2.3339
   57DOPE    C3 7251   0.787   2.436   3.359  0.0867 -0.3972 -0.1306
   57DOPE    HX 7252   0.678   2.413   3.361 -0.2608  1.1549  1.1639
   57DOPE    HY 7253   0.799   2.537   3.313  1.0239  0.9057  2.7325
   57DOPE   O31 7254   0.838   2.447   3.498  0.5157 -0.6940 -0.1548
   57DOPE   C31 7255   0.756   2.503   3.595  0.1594 -0.3292  0.1257
   57DOPE   O32 7256   0.641   2.536   3.576 -0.3902 -0.5471  0.5065
   57DOPE   C32 7257   0.826   2.496   3.731  0.2290 -0.3563  0.0011
   57DOPE   H2X 7258   0.791   2.404   3.783  1.9165 -0.2174  1.4804
   57DOPE   H2Y 7259   0.935   2.498   3.706 -0.0135  0.4595 -1.0966
   57DOPE   C23 7260   0.977   2.049   3.643 -0.3254  0.0058  0.4637
   57DOPE   H3R 7261   1.075   2.096   3.667 -0.3627 -0.2667  1.1888
   57DOPE   H3S 7262   0.974   1.942   3.672 -1.0119  0.4243  2.0646
   57DOPE   C24 7263   0.858   2.110   3.722  0.2755 -0.5422 -0.0962
   57DOPE   H4R 7264   0.767   2.058   3.683  0.3362 -0.4493 -0.3686
   57DOPE   H4S 7265   0.844   2.216   3.695 -0.2017 -0.6804 -0.4163
   57DOPE   C25 7266   0.877   2.096   3.870 -0.2615 -0.1018  0.1315
   57DOPE   H5R 7267   0.975   2.136   3.904  0.2085 -0.3761 -0.8761
   57DOPE   H5S 7268   0.880   1.988   3.894 -1.3504  0.5947  4.3918
   57DOPE   C26 7269   0.761   2.146   3.950 -0.0720 -0.1964 -0.4253
   57DOPE   H6R 7270   0.668   2.100   3.910 -0.1387 -0.6524  0.2313
   57DOPE   H6S 7271   0.757   2.255   3.933  3.4425  0.1419  0.2630
   57DOPE   C27 7272   0.761   2.116   4.100 -0.1855  0.2477  0.4757
   57DOPE   H7R 7273   0.858   2.125   4.152  0.2848 -0.3123 -0.2900
   57DOPE   H7S 7274   0.738   2.007   4.104  0.1825  0.1969  1.6432
   57DOPE   C28 7275   0.653   2.188   4.182  0.9183 -0.0009 -0.4376
   57DOPE   H8R 7276   0.662   2.298   4.178 -0.1339  0.0811 -0.9116
   57DOPE   H8S 7277   0.668   2.167   4.291  2.9493  0.6133 -0.5687
   57DOPE   C29 7278   0.516   2.146   4.142  0.8149  0.1108  0.1370
   57DOPE   H9R 7279   0.462   2.209   4.070 -2.2213 -1.1867  1.1339
   57DOPE  C210 7280   0.448   2.050   4.207  0.1180 -0.1626 -0.4873
   57DOPE  H10R 7281   0.341   2.036   4.184 -0.3183  0.8948  0.7335
   57DOPE  C211 7282   0.498   1.967   4.326 -0.2294 -0.3817  0.1205
   57DOPE  H11R 7283   0.471   2.035   4.410 -2.1864  0.1706 -0.8779
   57DOPE  H11S 7284   0.608   1.951   4.327 -0.3322 -2.1387 -3.0895
   57DOPE  C212 7285   0.413   1.841   4.332  0.2049  0.3250  0.1525
   57DOPE  H12R 7286   0.468   1.762   4.388 -0.6062 -0.8024 -0.5894
   57DOPE  H12S 7287   0.411   1.801   4.228  0.8098 -0.8658  0.5685
   57DOPE  C213 7288   0.273   1.857   4.395 -0.5138 -0.3546 -1.0194
   57DOPE  H13R 7289   0.218   1.950   4.367 -0.9094 -0.5160 -0.7920
   57DOPE  H13S 7290   0.289   1.857   4.505  2.6370 -0.1714 -1.3995
   57DOPE  C214 7291   0.179   1.737   4.358 -0.5190  0.0455  0.2559
   57DOPE  H14R 7292   0.088   1.761   4.418  1.1463  0.4845  2.7519
   57DOPE  H14S 7293   0.213   1.636   4.389 -0.8241 -0.7011 -1.6952
   57DOPE  C215 7294   0.147   1.731   4.198 -0.6722 -0.6479 -0.3613
   57DOPE  H15R 7295   0.232   1.673   4.156  1.7083  1.6090  1.0487
   57DOPE  H15S 7296   0.155   1.834   4.159  1.3075 -0.2543  0.9529
   57DOPE  C216 7297   0.006   1.671   4.169 -0.2029 -0.0394  0.9704
   57DOPE  H16R 7298  -0.073   1.738   4.209 -1.6232 -0.4209 -1.0362
   57DOPE  H16S 7299  -0.006   1.578   4.228 -0.0358  0.2039  1.3973
   57DOPE  C217 7300  -0.020   1.635   4.024  0.2948  0.5669 -0.1481
   57DOPE  H17R 7301  -0.128   1.608   4.022  0.3134  0.5121 -0.5353
   57DOPE  H17S 7302   0.032   1.546   3.983 -0.0134  0.3601 -0.0919
   57DOPE  C218 7303  -0.013   1.750   3.925 -0.4626  0.1968  0.5108
   57DOPE  H18R 7304  -0.109   1.804   3.942 -1.3101 -1.6255  1.9436
   57DOPE  H18S 7305  -0.015   1.714   3.820 -0.3597 -0.1773  0.6350
   57DOPE  H18T 7306   0.067   1.826   3.932  0.3546 -0.3570 -2.0613
   57DOPE   C33 7307   0.801   2.626   3.811 -0.4471  0.1037  0.0023
   57DOPE   H3X 7308   0.693   2.636   3.838 -0.2260  0.2436  0.8638
   57DOPE   H3Y 7309   0.814   2.719   3.751 -1.4738  1.2644  1.4901
   57DOPE   C34 7310   0.887   2.633   3.936 -0.4218 -0.5282  0.2813
   57DOPE   H4X 7311   0.992   2.612   3.908 -0.2847 -1.5265  1.5186
   57DOPE   H4Y 7312   0.882   2.736   3.977 -1.6089 -0.0474 -0.9588
   57DOPE   C35 7313   0.854   2.542   4.054  0.2281 -0.0036  0.4148
   57DOPE   H5X 7314   0.837   2.440   4.012 -0.0159  1.3669 -3.2108
   57DOPE   H5Y 7315   0.762   2.579   4.103 -0.5680 -1.5210  0.1448
   57DOPE   C36 7316   0.971   2.535   4.152  0.6775 -0.2538  0.0055
   57DOPE   H6X 7317   0.988   2.636   4.195  0.4298 -1.0528  2.1237
   57DOPE   H6Y 7318   1.066   2.494   4.113  0.1423 -1.2239 -0.3047
   57DOPE   C37 7319   0.939   2.439   4.274  0.5834 -0.4579 -0.2507
   57DOPE   H7X 7320   0.901   2.342   4.235  2.3381 -0.9346 -0.8572
   57DOPE   H7Y 7321   1.033   2.421   4.329 -0.3692  0.4597  1.7695
   57DOPE   C38 7322   0.833   2.497   4.374 -0.1248  0.2803  0.2448
   57DOPE   H8X 7323   0.791   2.418   4.439  0.0556 -0.2020 -0.2198
   57DOPE   H8Y 7324   0.741   2.540   4.330 -0.4764 -0.7218 -0.0066
   57DOPE   C39 7325   0.892   2.602   4.459  0.6884  0.2453 -0.7316
   57DOPE   H9X 7326   1.002   2.608   4.463  0.7024 -0.3611  0.2933
   57DOPE  C310 7327   0.829   2.697   4.523  0.2700  0.0746 -0.4167
   57DOPE  H10X 7328   0.892   2.758   4.589  0.0924 -1.6222  1.4007
   57DOPE  C311 7329   0.677   2.718   4.540  0.0791  0.0638 -0.1862
   57DOPE  H11X 7330   0.647   2.807   4.480 -1.6229 -0.4989 -0.2238
   57DOPE  H11Y 7331   0.628   2.626   4.502 -0.9628  0.4460  0.1930
   57DOPE  C312 7332   0.632   2.755   4.687 -0.3836  0.1290 -0.2076
   57DOPE  H12X 7333   0.688   2.850   4.703 -0.3881  0.1964 -0.5775
   57DOPE  H12Y 7334   0.665   2.688   4.769  1.3318  1.4481  0.2500
   57DOPE  C313 7335   0.480   2.778   4.694  0.0491 -0.0065  0.2500
   57DOPE  H13X 7336   0.424   2.683   4.682 -0.7482  0.1707  2.2469
   57DOPE  H13Y 7337   0.457   2.819   4.794 -1.4344 -0.7151  0.2211
   57DOPE  C314 7338   0.423   2.875   4.586  0.0790 -0.0853  0.2242
   57DOPE  H14X 7339   0.409   2.826   4.487  0.5413  0.1951  0.0156
   57DOPE  H14Y 7340   0.495   2.958   4.569  0.5276 -0.3241  0.8952
   57DOPE  C315 7341   0.286   2.941   4.624  0.2631 -0.3347  1.3373
   57DOPE  H15X 7342   0.305   3.019   4.700  0.0246  1.6127 -0.5139
   57DOPE  H15Y 7343   0.210   2.867   4.656  0.0167 -0.2510  0.9455
   57DOPE  C316 7344   0.219   3.020   4.510  0.7859  0.0292  0.2658
   57DOPE  H16X 7345   0.293   3.072   4.445 -0.2420  1.9251  0.5343
   57DOPE  H16Y 7346   0.154   3.098   4.555  0.6868 -1.3981  2.7698
   57DOPE  C317 7347   0.129   2.927   4.425  0.7377  0.2287  0.4760
   57DOPE  H17X 7348   0.192   2.847   4.381 -3.1324 -2.6143 -0.4115
   57DOPE  H17Y 7349   0.042   2.883   4.478 -0.4502  0.9446 -0.8093
   57DOPE  C318 7350   0.079   3.011   4.302 -0.0327  1.1880 -0.1016
   57DOPE  H18X 7351   0.165   3.038   4.238 -0.9724 -0.5110 -2.2246
   57DOPE  H18Y 7352  -0.002   2.962   4.243  1.0070 -1.2264  0.3825
   57DOPE  H18Z 7353   0.024   3.103   4.333 -0.4681  0.2284  2.1629
   58DOPE     N 7354   7.347   5.836   2.663  0.1120  0.1323  0.1271
   58DOPE   HN1 7355   7.316   5.881   2.752  1.8522  3.1613 -0.6595
   58DOPE   HN2 7356   7.305   5.742   2.650  1.4346 -0.1963 -2.5591
   58DOPE   HN3 7357   7.450   5.828   2.672  0.2319  1.1998 -0.0863
   58DOPE   C12 7358   7.325   5.933   2.547 -0.2189  0.7471  0.0426
   58DOPE  H12A 7359   7.225   5.979   2.538  0.4525  2.1378 -0.5650
   58DOPE  H12B 7360   7.338   5.868   2.458  1.3499 -1.5046  1.7803
   58DOPE   C11 7361   7.428   6.045   2.548 -0.1630 -0.2219 -0.9102
   58DOPE  H11A 7362   7.389   6.098   2.637  1.3199  0.1289 -0.4552
   58DOPE  H11B 7363   7.437   6.110   2.458 -0.5131 -0.9368 -1.4779
   58DOPE     P 7364   7.672   6.069   2.627 -0.3461 -0.7791  0.2017
   58DOPE   O13 7365   7.690   6.181   2.533 -0.0441 -0.6338 -0.1773
   58DOPE   O14 7366   7.783   5.981   2.655  0.2842 -0.1089  0.1179
   58DOPE   O11 7367   7.618   6.125   2.763  0.2143  0.2713  0.3239
   58DOPE   O12 7368   7.552   5.978   2.571 -0.8914 -0.0397 -0.5200
   58DOPE    C1 7369   7.592   6.050   2.881  0.0495 -0.2167  1.0716
   58DOPE    HA 7370   7.594   5.941   2.859  1.0863 -0.6907  3.2486
   58DOPE    HB 7371   7.494   6.076   2.927 -0.6107 -0.1237 -0.3547
   58DOPE    C2 7372   7.689   6.072   2.995  0.2808 -0.0736  0.3512
   58DOPE    HS 7373   7.638   6.052   3.092 -0.0364 -2.0790 -0.1901
   58DOPE   O21 7374   7.743   6.209   2.986  0.2154 -0.0421 -0.1293
   58DOPE   C21 7375   7.656   6.295   3.017  0.1101 -0.8501  0.4542
   58DOPE   O22 7376   7.539   6.279   3.043 -0.0434  0.1461  0.1236
   58DOPE   C22 7377   7.724   6.438   3.008 -0.2407  0.8998  0.1055
   58DOPE   H2R 7378   7.638   6.505   2.986  0.0444  1.5307  0.8695
   58DOPE   H2S 7379   7.800   6.431   2.928  0.1155  0.1359  0.4984
   58DOPE    C3 7380   7.807   5.970   2.997  0.2839 -0.6902 -0.0417
   58DOPE    HX 7381   7.876   5.982   2.911  0.1178  0.6117 -0.0015
   58DOPE    HY 7382   7.765   5.868   2.983 -4.4707  0.9168  0.7117
   58DOPE   O31 7383   7.876   5.976   3.120  0.1555 -0.0011 -0.7689
   58DOPE   C31 7384   7.992   6.043   3.124 -0.1962 -1.2188  0.5300
   58DOPE   O32 7385   8.052   6.085   3.024 -0.0134 -0.7364  0.4827
   58DOPE   C32 7386   8.025   6.054   3.266  0.0413 -0.3559 -0.1465
   58DOPE   H2X 7387   8.050   6.159   3.294  1.5127 -0.7278  0.0011
   58DOPE   H2Y 7388   7.941   6.032   3.335  2.0924  3.7184  4.2431
   58DOPE   C23 7389   7.790   6.477   3.144  0.2113  0.1233  0.4595
   58DOPE   H3R 7390   7.713   6.468   3.224 -1.7339 -0.3378 -1.3921
   58DOPE   H3S 7391   7.813   6.584   3.123 -1.6780  0.5276  0.2388
   58DOPE   C24 7392   7.923   6.413   3.181 -0.1307  0.3205  0.0864
   58DOPE   H4R 7393   7.923   6.302   3.171  0.7390  0.1277  1.9355
   58DOPE   H4S 7394   7.926   6.428   3.291  1.8294 -0.9156  0.2323
   58DOPE   C25 7395   8.039   6.474   3.107  0.1370 -0.2610  0.3159
   58DOPE   H5R 7396   8.040   6.585   3.118  5.1435 -0.1386  1.0026
   58DOPE   H5S 7397   8.035   6.444   3.000 -1.2053  2.4219 -0.4530
   58DOPE   C26 7398   8.183   6.432   3.156  0.8364 -0.7772 -0.0066
   58DOPE   H6R 7399   8.262   6.493   3.109 -0.6357 -0.3323 -2.0789
   58DOPE   H6S 7400   8.209   6.329   3.121  0.6940 -0.1042 -2.2597
   58DOPE   C27 7401   8.193   6.436   3.310  0.3792 -0.2014 -0.1985
   58DOPE   H7R 7402   8.165   6.332   3.337  1.4609 -0.3622  0.3743
   58DOPE   H7S 7403   8.126   6.515   3.352 -2.1782 -1.2223 -2.0862
   58DOPE   C28 7404   8.332   6.478   3.345 -0.1325 -0.0903  0.1578
   58DOPE   H8R 7405   8.334   6.517   3.449  1.9154  0.3049  0.0053
   58DOPE   H8S 7406   8.364   6.564   3.283 -0.2516  0.0416  0.2811
   58DOPE   C29 7407   8.436   6.371   3.343 -0.4527 -0.0759 -0.5560
   58DOPE   H9R 7408   8.460   6.347   3.238  1.5339 -0.3946 -0.0654
   58DOPE  C210 7409   8.494   6.310   3.448 -0.0516 -0.3731 -0.0409
   58DOPE  H10R 7410   8.574   6.239   3.425  1.1931 -0.0307  2.8563
   58DOPE  C211 7411   8.486   6.355   3.591 -0.3106  0.0331 -0.1756
   58DOPE  H11R 7412   8.476   6.465   3.602  0.9831 -0.0116  1.9027
   58DOPE  H11S 7413   8.585   6.333   3.637 -1.6553  0.3332  3.1123
   58DOPE  C212 7414   8.382   6.273   3.664  0.0604 -0.2527  0.3154
   58DOPE  H12R 7415   8.398   6.166   3.639  0.4413  0.1452 -1.3093
   58DOPE  H12S 7416   8.285   6.300   3.618  0.5917 -0.3700 -0.9124
   58DOPE  C213 7417   8.374   6.302   3.809  0.0132 -0.3446 -0.0725
   58DOPE  H13R 7418   8.278   6.265   3.848 -0.1974  0.8407  0.5794
   58DOPE  H13S 7419   8.379   6.412   3.825  1.3552  0.0705 -2.7648
   58DOPE  C214 7420   8.486   6.249   3.893  1.1391 -0.4546  0.1239
   58DOPE  H14R 7421   8.588   6.267   3.853  0.9134 -1.0689 -0.7666
   58DOPE  H14S 7422   8.465   6.140   3.897 -2.6075  0.1293 -0.2648
   58DOPE  C215 7423   8.473   6.291   4.046 -0.1964  1.0912  0.5074
   58DOPE  H15R 7424   8.455   6.400   4.040 -0.2811  1.1622  1.7083
   58DOPE  H15S 7425   8.572   6.274   4.093  0.1167  1.7497  0.1039
   58DOPE  C216 7426   8.361   6.216   4.122 -0.1747 -0.0989 -0.1500
   58DOPE  H16R 7427   8.378   6.107   4.103 -0.9109 -0.0557 -1.1333
   58DOPE  H16S 7428   8.263   6.240   4.075 -0.8736 -2.4040 -0.0259
   58DOPE  C217 7429   8.369   6.230   4.282  0.2562 -0.4147 -0.6915
   58DOPE  H17R 7430   8.331   6.330   4.313  1.4968 -0.4320  1.0701
   58DOPE  H17S 7431   8.477   6.213   4.305 -0.1212 -0.9596  0.8366
   58DOPE  C218 7432   8.278   6.123   4.346  0.4583  0.5034 -0.1038
   58DOPE  H18R 7433   8.315   6.025   4.309 -0.1445  0.1712  0.1611
   58DOPE  H18S 7434   8.168   6.140   4.338  0.0610 -0.4181  2.3647
   58DOPE  H18T 7435   8.291   6.112   4.456 -0.2836  0.0993 -0.0509
   58DOPE   C33 7436   8.148   5.970   3.301 -0.2266  0.1754 -0.3988
   58DOPE   H3X 7437   8.187   6.030   3.385 -1.8935  1.5882 -0.5646
   58DOPE   H3Y 7438   8.221   5.965   3.217 -0.0637  0.4838 -0.2776
   58DOPE   C34 7439   8.125   5.827   3.356 -1.0009 -0.2215  0.3251
   58DOPE   H4X 7440   8.078   5.768   3.274  0.1280  1.7815 -1.9046
   58DOPE   H4Y 7441   8.218   5.774   3.382 -0.7498 -0.5230 -1.0815
   58DOPE   C35 7442   8.015   5.817   3.470 -0.1214 -0.2502 -0.4191
   58DOPE   H5X 7443   8.006   5.710   3.498 -1.6117  0.5838  2.7280
   58DOPE   H5Y 7444   7.916   5.857   3.440  0.5468  1.0336 -1.0382
   58DOPE   C36 7445   8.045   5.890   3.609 -0.3484  0.1697 -0.5125
   58DOPE   H6X 7446   8.015   5.996   3.622 -0.5376 -0.1114  1.8406
   58DOPE   H6Y 7447   8.152   5.882   3.639  0.1152  1.6983 -1.6135
   58DOPE   C37 7448   7.966   5.828   3.720  0.3196 -0.0964 -1.3795
   58DOPE   H7X 7449   7.857   5.844   3.704  0.0782  0.6173  0.6555
   58DOPE   H7Y 7450   7.989   5.720   3.728  0.6458  0.0343 -0.3567
   58DOPE   C38 7451   7.991   5.892   3.858  0.2643 -0.0097  0.1863
   58DOPE   H8X 7452   7.943   5.992   3.864  1.5871  0.7768 -1.4401
   58DOPE   H8Y 7453   8.099   5.916   3.867  0.5656 -1.6439  1.3326
   58DOPE   C39 7454   7.957   5.804   3.973  0.5472 -0.2426  0.1436
   58DOPE   H9X 7455   8.008   5.706   3.966  0.3154 -0.4411  1.0624
   58DOPE  C310 7456   7.856   5.816   4.059  0.1491 -0.0500  0.5989
   58DOPE  H10X 7457   7.840   5.734   4.131 -0.7238  1.8492  2.7077
   58DOPE  C311 7458   7.765   5.934   4.082  0.7168 -0.1275 -0.4240
   58DOPE  H11X 7459   7.757   6.012   4.003 -1.3889  1.6149  1.3790
   58DOPE  H11Y 7460   7.666   5.884   4.081  0.7235 -0.1407 -1.2395
   58DOPE  C312 7461   7.800   6.015   4.211  0.7741  0.4393 -0.0105
   58DOPE  H12X 7462   7.739   6.103   4.241  3.2566  2.0300  0.7135
   58DOPE  H12Y 7463   7.901   6.057   4.189  1.4707  0.4993  2.8183
   58DOPE  C313 7464   7.812   5.927   4.337 -0.5393  0.2647 -0.1775
   58DOPE  H13X 7465   7.711   5.895   4.368 -0.4493 -1.2179 -1.2810
   58DOPE  H13Y 7466   7.880   5.841   4.319 -1.4089  0.0053 -2.5623
   58DOPE  C314 7467   7.854   6.011   4.458  0.0220  0.3367  0.0179
   58DOPE  H14X 7468   7.783   6.096   4.459  0.4678  0.7296  1.6260
   58DOPE  H14Y 7469   7.960   6.045   4.450  0.1157 -0.0624 -0.4888
   58DOPE  C315 7470   7.855   5.929   4.589  0.6515  0.0947  0.3148
   58DOPE  H15X 7471   7.914   5.834   4.583  0.9726  0.3099  0.0273
   58DOPE  H15Y 7472   7.753   5.887   4.606  0.3670 -0.3166 -2.0522
   58DOPE  C316 7473   7.875   6.013   4.717  0.0624 -0.0153  0.0537
   58DOPE  H16X 7474   7.976   6.059   4.722  1.2741 -2.1380 -2.5707
   58DOPE  H16Y 7475   7.866   5.936   4.796 -1.2382 -0.4466 -0.4968
   58DOPE  C317 7476   7.759   6.113   4.743 -0.1776  0.3090 -0.1873
   58DOPE  H17X 7477   7.752   6.170   4.647  2.4946  1.3924  0.1620
   58DOPE  H17Y 7478   7.668   6.051   4.755 -0.2480  0.1012 -1.5814
   58DOPE  C318 7479   7.771   6.197   4.870  0.0023 -0.3550 -0.0011
   58DOPE  H18X 7480   7.845   6.279   4.858 -0.9351  0.7584  1.5389
   58DOPE  H18Y 7481   7.670   6.238   4.889 -0.8677 -2.3879  0.0695
   58DOPE  H18Z 7482   7.790   6.138   4.962 -3.3264 -2.5431 -0.5589
   59DOPE     N 7483   6.722   0.394   2.915 -0.6221 -0.1859  0.0700
   59DOPE   HN1 7484   6.667   0.341   2.845 -1.7794 -0.3660  1.0883
   59DOPE   HN2 7485   6.822   0.365   2.903 -0.3889  0.6155  0.0527
   59DOPE   HN3 7486   6.693   0.351   3.005 -1.7418 -0.5043 -0.4281
   59DOPE   C12 7487   6.727   0.539   2.914  0.6666  0.6973  0.0652
   59DOPE  H12A 7488   6.621   0.573   2.916  0.8586  1.3393 -0.1585
   59DOPE  H12B 7489   6.775   0.570   2.819  0.2965  1.8489  0.2337
   59DOPE   C11 7490   6.820   0.589   3.029  0.2865 -0.3944  0.6188
   59DOPE  H11A 7491   6.780   0.558   3.128  0.0083  0.9856  0.9666
   59DOPE  H11B 7492   6.801   0.698   3.034 -2.5204 -0.6419 -1.7410
   59DOPE     P 7493   7.074   0.629   2.961 -0.0622 -0.1958  0.1484
   59DOPE   O13 7494   7.015   0.728   2.872  0.0995 -1.1483 -0.0396
   59DOPE   O14 7495   7.182   0.542   2.910 -0.3769  0.6116 -0.3489
   59DOPE   O11 7496   7.124   0.694   3.094 -0.7919  0.0639 -0.1160
   59DOPE   O12 7497   6.952   0.541   3.008  0.3735  0.2790 -0.2449
   59DOPE    C1 7498   7.145   0.623   3.218  0.5896  1.1315  0.0401
   59DOPE    HA 7499   7.244   0.657   3.256  0.2633  1.3296  0.7092
   59DOPE    HB 7500   7.143   0.512   3.209 -0.8471  0.9343  2.1504
   59DOPE    C2 7501   7.040   0.665   3.323 -0.2329 -0.2828  0.0297
   59DOPE    HS 7502   6.945   0.672   3.266  0.9680 -1.1803 -2.2303
   59DOPE   O21 7503   7.081   0.785   3.383 -0.1410  0.2435 -0.2352
   59DOPE   C21 7504   7.021   0.897   3.340 -0.0988  0.5660 -0.4705
   59DOPE   O22 7505   6.918   0.909   3.271 -0.1392 -0.5700  0.6060
   59DOPE   C22 7506   7.108   1.011   3.384 -0.1481  0.4008  0.0413
   59DOPE   H2R 7507   7.086   1.103   3.325 -0.2892  0.7369  0.6032
   59DOPE   H2S 7508   7.217   0.997   3.371 -0.3038 -0.9416  0.0305
   59DOPE    C3 7509   7.021   0.544   3.423 -0.0228  0.2982  0.5791
   59DOPE    HX 7510   7.120   0.536   3.472  0.0323  1.6371  0.7256
   59DOPE    HY 7511   7.017   0.447   3.369  2.1119  0.4207  0.1182
   59DOPE   O31 7512   6.910   0.572   3.516  0.0411  0.4229  0.4900
   59DOPE   C31 7513   6.788   0.539   3.471 -0.0280 -0.7650  0.0434
   59DOPE   O32 7514   6.778   0.468   3.369  0.3706 -0.1313 -0.2584
   59DOPE   C32 7515   6.679   0.578   3.567  0.0885  0.2409 -0.3231
   59DOPE   H2X 7516   6.717   0.634   3.656 -0.9097 -0.7993  0.7886
   59DOPE   H2Y 7517   6.619   0.656   3.516 -1.0330  0.7698  1.6673
   59DOPE   C23 7518   7.086   1.053   3.531 -0.2227 -0.0053 -0.0233
   59DOPE   H3R 7519   7.167   1.129   3.539 -1.0752  1.0699 -1.2330
   59DOPE   H3S 7520   7.101   0.970   3.604  0.4008  0.3529  0.2688
   59DOPE   C24 7521   6.949   1.122   3.571 -0.8214  0.7124  0.2187
   59DOPE   H4R 7522   6.876   1.039   3.583  0.1844 -0.3588 -0.7238
   59DOPE   H4S 7523   6.902   1.179   3.488 -0.2231 -0.3158 -0.8591
   59DOPE   C25 7524   6.961   1.205   3.700  0.3853 -0.3043 -0.4543
   59DOPE   H5R 7525   7.024   1.290   3.665 -1.4929  1.4289  0.1864
   59DOPE   H5S 7526   7.014   1.151   3.781  0.8727 -1.9542 -1.7958
   59DOPE   C26 7527   6.827   1.271   3.745 -0.0172 -0.2890  0.5683
   59DOPE   H6R 7528   6.760   1.184   3.761 -1.4296  0.5802 -0.3032
   59DOPE   H6S 7529   6.785   1.333   3.662  2.2179 -0.2047 -0.5804
   59DOPE   C27 7530   6.844   1.350   3.867 -0.7674 -1.1329  0.1168
   59DOPE   H7R 7531   6.935   1.414   3.861 -2.5023  1.3176 -1.5589
   59DOPE   H7S 7532   6.861   1.279   3.951  0.9199 -0.4265  0.4295
   59DOPE   C28 7533   6.736   1.454   3.908  0.1233  0.2596  0.0387
   59DOPE   H8R 7534   6.710   1.503   3.812 -0.8093  1.5091  0.8931
   59DOPE   H8S 7535   6.782   1.522   3.984 -0.1177  0.5389 -0.0619
   59DOPE   C29 7536   6.609   1.382   3.951  0.1124 -0.5216  0.0503
   59DOPE   H9R 7537   6.535   1.368   3.871  2.0534 -0.1330 -1.9046
   59DOPE  C210 7538   6.575   1.349   4.078 -0.2217  0.6757  0.1396
   59DOPE  H10R 7539   6.480   1.294   4.091 -1.3093  2.2046 -0.9479
   59DOPE  C211 7540   6.666   1.376   4.192  0.9901 -0.4088 -0.2212
   59DOPE  H11R 7541   6.740   1.459   4.182 -0.9308  1.3172 -0.6775
   59DOPE  H11S 7542   6.729   1.289   4.220 -0.3807 -0.8128  1.8330
   59DOPE  C212 7543   6.574   1.408   4.314  0.5205  0.9277 -0.0791
   59DOPE  H12R 7544   6.508   1.322   4.339  0.7391  0.6029 -0.6065
   59DOPE  H12S 7545   6.516   1.500   4.294 -0.5075  0.1144 -0.9609
   59DOPE  C213 7546   6.661   1.426   4.436  0.1423 -0.0147  0.0222
   59DOPE  H13R 7547   6.729   1.513   4.421 -2.0250  2.1421  1.8025
   59DOPE  H13S 7548   6.721   1.334   4.452  1.1534  0.3718 -1.3490
   59DOPE  C214 7549   6.583   1.438   4.566 -0.0948 -0.3531  0.4258
   59DOPE  H14R 7550   6.546   1.339   4.600  0.9603 -1.4372 -1.4449
   59DOPE  H14S 7551   6.498   1.509   4.561  1.8656  2.1566  0.7382
   59DOPE  C215 7552   6.679   1.490   4.673  0.0100 -0.0252  0.4276
   59DOPE  H15R 7553   6.720   1.589   4.644 -0.3787  0.8716  2.6661
   59DOPE  H15S 7554   6.754   1.409   4.662 -0.9153 -0.6871 -1.3467
   59DOPE  C216 7555   6.631   1.488   4.815  0.4159 -0.0758 -0.2199
   59DOPE  H16R 7556   6.607   1.383   4.845 -3.8070  0.7243 -0.1749
   59DOPE  H16S 7557   6.539   1.548   4.830  1.3261  1.7873 -1.6732
   59DOPE  C217 7558   6.738   1.536   4.907  0.1656 -0.4471  0.5678
   59DOPE  H17R 7559   6.837   1.497   4.874  0.2964  0.5785 -0.3023
   59DOPE  H17S 7560   6.725   1.503   5.012 -0.0727 -0.4767  0.5292
   59DOPE  C218 7561   6.757   1.689   4.898  0.4682 -0.2781 -0.3247
   59DOPE  H18R 7562   6.844   1.721   4.960  0.3356 -1.1212  0.3124
   59DOPE  H18S 7563   6.665   1.745   4.925  0.3172 -0.5164 -0.3452
   59DOPE  H18T 7564   6.774   1.721   4.793  0.1528 -2.7312 -1.1948
   59DOPE   C33 7565   6.588   0.460   3.619  0.1721  0.6585  0.7691
   59DOPE   H3X 7566   6.538   0.413   3.532  0.3880 -0.2303  1.1083
   59DOPE   H3Y 7567   6.508   0.501   3.684 -1.8632 -2.3900  0.3977
   59DOPE   C34 7568   6.661   0.351   3.692  0.4071 -0.3752 -0.5678
   59DOPE   H4X 7569   6.596   0.268   3.726 -1.0782  0.4438 -1.2892
   59DOPE   H4Y 7570   6.740   0.305   3.629  0.8691 -2.1359  1.1938
   59DOPE   C35 7571   6.741   0.404   3.813 -0.1922  0.1421  0.4875
   59DOPE   H5X 7572   6.816   0.479   3.780  0.2125 -1.1315 -1.6467
   59DOPE   H5Y 7573   6.803   0.322   3.856  2.1919  1.5871 -0.0411
   59DOPE   C36 7574   6.670   0.470   3.927  0.3417  0.1570 -0.5578
   59DOPE   H6X 7575   6.636   0.573   3.905  1.3858  0.5534 -0.4001
   59DOPE   H6Y 7576   6.745   0.479   4.009 -0.6551  0.6412  0.3253
   59DOPE   C37 7577   6.548   0.404   3.993  0.0770 -0.5523  0.4454
   59DOPE   H7X 7578   6.480   0.386   3.906  0.8410 -1.0138 -0.0691
   59DOPE   H7Y 7579   6.577   0.309   4.042  2.0517  0.2114  0.8242
   59DOPE   C38 7580   6.476   0.496   4.098 -0.2438 -0.4386 -0.5003
   59DOPE   H8X 7581   6.415   0.566   4.037  1.2065  0.5616 -0.8557
   59DOPE   H8Y 7582   6.550   0.560   4.150  1.6692 -1.6433 -1.6098
   59DOPE   C39 7583   6.372   0.434   4.191  0.1237  0.0428  0.2877
   59DOPE   H9X 7584   6.287   0.379   4.147  0.2363 -0.0018  0.1247
   59DOPE  C310 7585   6.339   0.475   4.314  0.1894 -0.5660 -0.6750
   59DOPE  H10X 7586   6.261   0.423   4.371  1.4804 -1.3314  0.4907
   59DOPE  C311 7587   6.389   0.590   4.391  0.4864 -0.3211 -0.4757
   59DOPE  H11X 7588   6.454   0.560   4.477  1.1244  1.4232 -0.3092
   59DOPE  H11Y 7589   6.467   0.646   4.335  1.6094  0.0399  1.3334
   59DOPE  C312 7590   6.287   0.697   4.451 -0.3999  0.4411  0.7441
   59DOPE  H12X 7591   6.351   0.778   4.493 -0.7028  1.1617 -0.1518
   59DOPE  H12Y 7592   6.227   0.638   4.524 -0.2826 -0.2261  0.3130
   59DOPE  C313 7593   6.204   0.762   4.349 -0.0246  0.3540 -0.4773
   59DOPE  H13X 7594   6.278   0.785   4.270 -0.5585  0.8425 -0.8505
   59DOPE  H13Y 7595   6.123   0.699   4.306 -2.0850  2.7770 -0.3919
   59DOPE  C314 7596   6.140   0.883   4.414  0.1233  0.2244 -0.7118
   59DOPE  H14X 7597   6.094   0.946   4.335  0.2853  0.6234 -0.4924
   59DOPE  H14Y 7598   6.226   0.937   4.458  1.5542 -1.4432 -1.3523
   59DOPE  C315 7599   6.036   0.843   4.517  0.4319 -0.3531  0.1897
   59DOPE  H15X 7600   6.082   0.792   4.604 -1.4874 -0.5292  1.1340
   59DOPE  H15Y 7601   5.962   0.777   4.469 -1.8861  1.9456  0.3986
   59DOPE  C316 7602   5.941   0.956   4.579  0.0648 -0.5071 -0.5787
   59DOPE  H16X 7603   5.848   0.903   4.608 -1.1500  1.5695 -0.5144
   59DOPE  H16Y 7604   5.902   1.039   4.517 -3.5226 -1.6077 -0.0525
   59DOPE  C317 7605   6.003   1.019   4.709  0.2058  0.4238 -0.1705
   59DOPE  H17X 7606   6.045   0.935   4.768 -0.9813 -0.2905 -0.3193
   59DOPE  H17Y 7607   6.082   1.095   4.689  0.2100 -0.0780 -2.2565
   59DOPE  C318 7608   5.898   1.084   4.799  0.8534  0.1806  0.0240
   59DOPE  H18X 7609   5.868   1.006   4.873 -0.2591 -0.1463 -0.7391
   59DOPE  H18Y 7610   5.932   1.177   4.849 -0.2238 -0.1934  1.5285
   59DOPE  H18Z 7611   5.799   1.110   4.755 -0.0471  0.4799  2.1030
   60DOPE     N 7612   6.218   6.377   2.695 -0.1116 -0.0984 -0.3096
   60DOPE   HN1 7613   6.117   6.375   2.672 -0.6530  1.1850  1.6941
   60DOPE   HN2 7614   6.273   6.427   2.623 -0.4392 -0.0753 -0.5439
   60DOPE   HN3 7615   6.254   6.279   2.690 -1.0107 -0.7712  3.2641
   60DOPE   C12 7616   6.254   6.431   2.838 -0.0871  0.4816 -0.4028
   60DOPE  H12A 7617   6.362   6.451   2.846  0.0132  0.0544 -0.6543
   60DOPE  H12B 7618   6.232   6.347   2.909  0.7137 -2.7279 -3.6628
   60DOPE   C11 7619   6.188   6.560   2.876  0.0367  0.3148 -0.4330
   60DOPE  H11A 7620   6.210   6.582   2.982 -2.9174 -3.5333  1.2632
   60DOPE  H11B 7621   6.078   6.544   2.864  0.1635 -1.2219  0.1516
   60DOPE     P 7622   6.189   6.805   2.776 -0.0953 -0.4100 -0.2020
   60DOPE   O13 7623   6.071   6.817   2.690  0.2171  0.3750 -0.1747
   60DOPE   O14 7624   6.302   6.893   2.739  0.0870 -0.2875  0.2177
   60DOPE   O11 7625   6.152   6.829   2.927  0.0728  0.4442  0.2217
   60DOPE   O12 7626   6.243   6.658   2.783  0.5204  0.3976  0.0925
   60DOPE    C1 7627   6.224   6.901   3.019 -0.0505  0.7223  1.2696
   60DOPE    HA 7628   6.155   6.929   3.102  0.2753  0.6819  1.5587
   60DOPE    HB 7629   6.275   6.990   2.975  2.4732 -1.6334 -0.9335
   60DOPE    C2 7630   6.335   6.813   3.095 -0.3778 -0.4346  0.1903
   60DOPE    HS 7631   6.367   6.739   3.019  0.5410 -1.0240  1.1141
   60DOPE   O21 7632   6.274   6.740   3.201  0.2944 -0.3125 -0.1506
   60DOPE   C21 7633   6.342   6.638   3.248 -0.4866  0.1947 -0.0401
   60DOPE   O22 7634   6.438   6.586   3.191  0.4659  0.1797 -0.2334
   60DOPE   C22 7635   6.275   6.577   3.376  0.5460 -0.3066 -0.0617
   60DOPE   H2R 7636   6.292   6.468   3.368 -0.8337 -0.4243 -2.6901
   60DOPE   H2S 7637   6.166   6.598   3.368  0.6724  0.6325  0.5551
   60DOPE    C3 7638   6.450   6.899   3.154 -0.1072  0.1425 -0.2655
   60DOPE    HX 7639   6.425   6.928   3.258  1.4594 -0.9812  0.4563
   60DOPE    HY 7640   6.449   6.990   3.090 -2.5201  1.8856  2.0265
   60DOPE   O31 7641   6.565   6.818   3.155 -0.0903 -0.9658 -0.4720
   60DOPE   C31 7642   6.678   6.886   3.157 -0.1769 -0.0578  0.5908
   60DOPE   O32 7643   6.689   7.006   3.140 -0.2103 -0.4274 -0.2532
   60DOPE   C32 7644   6.796   6.789   3.171 -0.3276 -0.0668 -0.8073
   60DOPE   H2X 7645   6.748   6.693   3.200  1.3443 -1.2861 -1.9037
   60DOPE   H2Y 7646   6.840   6.778   3.070 -1.0668 -0.4944 -1.0878
   60DOPE   C23 7647   6.337   6.633   3.510 -0.5016  0.5190 -0.2002
   60DOPE   H3R 7648   6.259   6.609   3.585 -0.5289 -1.4440 -0.7949
   60DOPE   H3S 7649   6.335   6.744   3.500  0.6069  0.4559 -1.4711
   60DOPE   C24 7650   6.485   6.593   3.529 -0.1094  0.5785 -0.4994
   60DOPE   H4R 7651   6.550   6.610   3.440  1.0941  2.5162  0.6935
   60DOPE   H4S 7652   6.491   6.485   3.553 -0.3696  0.1776 -2.0925
   60DOPE   C25 7653   6.534   6.683   3.640  0.5160  0.2325  0.1650
   60DOPE   H5R 7654   6.518   6.785   3.599  0.8422 -0.0929 -0.8048
   60DOPE   H5S 7655   6.642   6.666   3.661  0.2210 -1.7769  0.2772
   60DOPE   C26 7656   6.460   6.665   3.781  0.3226  0.0583  0.6508
   60DOPE   H6R 7657   6.469   6.559   3.813 -0.0347  0.1064  0.9186
   60DOPE   H6S 7658   6.353   6.693   3.772 -0.0716 -1.4660  0.4782
   60DOPE   C27 7659   6.513   6.761   3.888  0.0819  0.0740  0.7372
   60DOPE   H7R 7660   6.524   6.861   3.840  0.0703  0.2656  1.1321
   60DOPE   H7S 7661   6.616   6.722   3.907 -0.0514 -1.6945 -1.6492
   60DOPE   C28 7662   6.431   6.784   4.018 -0.5867 -0.4623 -0.1436
   60DOPE   H8R 7663   6.337   6.835   3.986 -0.1288  1.1336  0.9397
   60DOPE   H8S 7664   6.490   6.854   4.081 -0.3128 -0.2629 -0.6173
   60DOPE   C29 7665   6.404   6.646   4.081  0.4051 -0.5890  0.7232
   60DOPE   H9R 7666   6.358   6.585   4.001 -0.8757  1.2947 -0.0479
   60DOPE  C210 7667   6.429   6.591   4.202  0.2697 -0.1134 -0.3756
   60DOPE  H10R 7668   6.386   6.490   4.217  0.5618 -0.3032 -0.8049
   60DOPE  C211 7669   6.474   6.666   4.323  0.7365  0.3436  0.3356
   60DOPE  H11R 7670   6.384   6.668   4.388  0.5602 -4.3177  0.5637
   60DOPE  H11S 7671   6.509   6.768   4.297  1.1256  0.1871  0.2289
   60DOPE  C212 7672   6.579   6.586   4.402 -0.5437 -0.6265 -0.7958
   60DOPE  H12R 7673   6.669   6.568   4.339  1.0227  2.0116  0.5258
   60DOPE  H12S 7674   6.537   6.487   4.428 -1.4341  0.1018  0.6852
   60DOPE  C213 7675   6.629   6.674   4.516 -0.0027  0.6473  0.2076
   60DOPE  H13R 7676   6.544   6.713   4.576 -0.0202  1.6590 -0.4640
   60DOPE  H13S 7677   6.691   6.751   4.466  2.6766 -1.1209  0.5498
   60DOPE  C214 7678   6.733   6.604   4.607  0.0968  0.1201 -0.7852
   60DOPE  H14R 7679   6.812   6.675   4.641  0.0505 -0.3048  0.2518
   60DOPE  H14S 7680   6.795   6.521   4.568 -1.2062 -2.7797  2.7918
   60DOPE  C215 7681   6.670   6.562   4.737  0.3704 -0.0427 -0.0869
   60DOPE  H15R 7682   6.603   6.482   4.699 -2.2911  2.1702 -0.3370
   60DOPE  H15S 7683   6.600   6.638   4.776  1.1993 -0.4197  2.2721
   60DOPE  C216 7684   6.770   6.500   4.838 -0.2768 -0.3779  0.4163
   60DOPE  H16R 7685   6.844   6.572   4.879  0.1335 -0.1533 -0.6899
   60DOPE  H16S 7686   6.826   6.419   4.786 -0.0100 -0.2356  0.4783
   60DOPE  C217 7687   6.697   6.439   4.962 -0.8902 -0.4476  0.1135
   60DOPE  H17R 7688   6.771   6.388   5.027  1.2614  1.0891 -1.0259
   60DOPE  H17S 7689   6.632   6.359   4.919 -1.3744 -0.4525  0.8332
   60DOPE  C218 7690   6.602   6.531   5.043  0.0477  0.6056  0.3635
   60DOPE  H18R 7691   6.508   6.528   4.984 -0.7425 -0.4722  1.6168
   60DOPE  H18S 7692   6.642   6.635   5.049  0.9426  0.4267 -1.7554
   60DOPE  H18T 7693   6.577   6.485   5.141  1.7936 -1.5144 -0.0927
   60DOPE   C33 7694   6.897   6.819   3.281 -0.1510  0.0935  0.0737
   60DOPE   H3X 7695   6.946   6.917   3.260  2.0746 -0.5526  1.7984
   60DOPE   H3Y 7696   6.976   6.741   3.274 -0.3592 -0.2061  0.9941
   60DOPE   C34 7697   6.842   6.820   3.417  0.3799 -0.4651 -0.2877
   60DOPE   H4X 7698   6.757   6.889   3.433  0.3665 -0.9080  1.7532
   60DOPE   H4Y 7699   6.791   6.722   3.426  0.0136 -0.3643 -1.1383
   60DOPE   C35 7700   6.951   6.843   3.528  0.0874  0.1319  0.1296
   60DOPE   H5X 7701   6.999   6.943   3.515  1.6878  0.0186  4.0395
   60DOPE   H5Y 7702   7.036   6.772   3.515 -1.4591 -1.8171  0.1855
   60DOPE   C36 7703   6.897   6.826   3.667 -0.3528 -0.2896  1.0488
   60DOPE   H6X 7704   6.834   6.736   3.682 -1.7427  0.4014 -0.3491
   60DOPE   H6Y 7705   6.837   6.916   3.692  1.1037  0.3331  2.4525
   60DOPE   C37 7706   7.004   6.832   3.772  0.4605  0.0291 -0.5113
   60DOPE   H7X 7707   7.055   6.733   3.774  0.0092 -0.2007 -0.2423
   60DOPE   H7Y 7708   7.079   6.910   3.747  0.7937 -0.1105  0.0273
   60DOPE   C38 7709   6.936   6.865   3.913  0.3489  0.2871 -0.1236
   60DOPE   H8X 7710   6.858   6.788   3.930 -1.2223  1.9487  0.5728
   60DOPE   H8Y 7711   6.881   6.960   3.900 -1.5210 -1.0187 -2.5960
   60DOPE   C39 7712   7.033   6.885   4.028 -0.1461 -0.4117  0.0419
   60DOPE   H9X 7713   7.087   6.981   4.027  0.4851 -0.6698  2.4531
   60DOPE  C310 7714   7.063   6.787   4.114 -0.1585 -0.5098 -0.4911
   60DOPE  H10X 7715   7.138   6.813   4.190  0.1310  0.4531 -1.0944
   60DOPE  C311 7716   6.993   6.654   4.126  0.1634 -0.0540  0.5245
   60DOPE  H11X 7717   6.888   6.676   4.100  0.8196  2.3225 -0.3789
   60DOPE  H11Y 7718   7.037   6.593   4.044 -0.1423  2.0402 -1.2628
   60DOPE  C312 7719   6.995   6.608   4.273 -0.0834 -0.7997  0.0473
   60DOPE  H12X 7720   6.921   6.526   4.290 -1.1803  0.1504  0.0017
   60DOPE  H12Y 7721   6.948   6.696   4.323  0.4173  0.2116 -1.2199
   60DOPE  C313 7722   7.131   6.575   4.345 -0.0863  1.0107 -0.5757
   60DOPE  H13X 7723   7.183   6.500   4.280 -0.3547 -0.3301  0.6995
   60DOPE  H13Y 7724   7.200   6.661   4.359  1.6544 -0.3625 -0.2218
   60DOPE  C314 7725   7.103   6.506   4.485  0.3754 -0.0510 -0.2630
   60DOPE  H14X 7726   7.018   6.434   4.479  0.8500 -0.9198  2.3461
   60DOPE  H14Y 7727   7.080   6.593   4.550 -2.8409  0.6813 -2.1613
   60DOPE  C315 7728   7.229   6.425   4.517  0.8948 -0.2657 -0.1740
   60DOPE  H15X 7729   7.318   6.488   4.494  1.6447 -1.2408 -0.0169
   60DOPE  H15Y 7730   7.225   6.346   4.438  0.8304  1.9063 -2.4660
   60DOPE  C316 7731   7.228   6.369   4.655 -0.5903 -0.0467  0.2426
   60DOPE  H16X 7732   7.326   6.319   4.664  1.4621  3.3245 -1.4322
   60DOPE  H16Y 7733   7.148   6.294   4.673 -1.8722  1.4674  1.1727
   60DOPE  C317 7734   7.231   6.472   4.768  0.6409 -0.4069  0.4529
   60DOPE  H17X 7735   7.134   6.525   4.757  0.2271 -1.3821 -0.9233
   60DOPE  H17Y 7736   7.233   6.422   4.867  2.0191  0.8583  1.0942
   60DOPE  C318 7737   7.367   6.558   4.758 -0.4712  0.1279  0.5739
   60DOPE  H18X 7738   7.462   6.500   4.757 -0.8567 -0.5812  2.3818
   60DOPE  H18Y 7739   7.367   6.619   4.665 -1.4700  0.2324  0.6278
   60DOPE  H18Z 7740   7.378   6.630   4.841  1.3324  1.5785 -0.8164
   6123SM     N 7741   3.183   3.539   7.182 -0.0146 -0.0981 -0.0198
   6123SM   C15 7742   3.060   3.551   7.109 -0.0085  0.0157  0.8758
   6123SM  H15A 7743   2.966   3.550   7.162 -0.8887  2.3076 -0.4966
   6123SM  H15B 7744   3.053   3.459   7.051 -0.4646  0.0414  0.8835
   6123SM  H15C 7745   3.051   3.627   7.033  0.0852  0.3572  1.2071
   6123SM   C14 7746   3.195   3.654   7.277  0.4316 -0.4892  0.2361
   6123SM  H14A 7747   3.273   3.641   7.349 -1.2235  0.3676  2.2968
   6123SM  H14B 7748   3.106   3.671   7.336 -0.6223 -0.4215 -1.3028
   6123SM  H14C 7749   3.214   3.745   7.222  0.3807 -1.1695 -0.9407
   6123SM   C13 7750   3.171   3.415   7.269  0.5223 -0.0751 -0.3050
   6123SM  H13A 7751   3.258   3.407   7.333  0.9924  0.5682 -0.8588
   6123SM  H13B 7752   3.171   3.327   7.207  3.0248  0.1237 -0.6821
   6123SM  H13C 7753   3.077   3.423   7.322  0.7016 -0.6091  0.1014
   6123SM   C12 7754   3.313   3.519   7.097  0.9964  0.1963 -0.6646
   6123SM  H12A 7755   3.301   3.424   7.048  0.1808 -1.1170  1.9576
   6123SM  H12B 7756   3.398   3.519   7.163  0.9978  0.6394 -0.6585
   6123SM   C11 7757   3.353   3.611   6.988 -0.0716  0.5229 -0.5089
   6123SM  H11A 7758   3.282   3.596   6.904  1.0051  0.3371 -1.4101
   6123SM  H11B 7759   3.454   3.584   6.951  0.4423  2.2912 -0.5312
   6123SM     P 7760   3.277   3.867   6.974  0.0570 -0.6296  0.1255
   6123SM   O13 7761   3.234   3.955   7.076  0.4060  0.3443  0.1390
   6123SM   O14 7762   3.354   3.928   6.868 -0.0903  0.0301  0.2757
   6123SM   O11 7763   3.156   3.811   6.901  0.8855 -0.1986 -0.1610
   6123SM   O12 7764   3.351   3.743   7.027  0.2403 -0.3148 -0.1665
   6123SM   C1S 7765   3.058   3.890   6.836 -0.2790  0.3932 -0.0054
   6123SM   H1S 7766   3.066   3.998   6.861 -0.6626  0.3283  0.4042
   6123SM   H1T 7767   2.963   3.858   6.883 -0.1836 -1.4080 -0.9495
   6123SM    NF 7768   2.943   3.968   6.633  0.7675  0.3181 -0.2954
   6123SM   HNF 7769   2.848   3.936   6.639  0.7326  0.3134 -0.8405
   6123SM   C2S 7770   3.039   3.871   6.687 -0.1238 -0.4045 -0.3362
   6123SM   H2S 7771   3.130   3.907   6.634 -0.3599  1.5378  0.4772
   6123SM   C3S 7772   3.015   3.716   6.658 -0.1381 -0.4617 -0.0065
   6123SM   H3S 7773   2.918   3.690   6.705  0.1109 -1.0531  0.1881
   6123SM    O3 7774   3.106   3.625   6.719 -0.6321  0.6791 -0.6377
   6123SM   HO3 7775   3.152   3.680   6.783 -0.0115  0.7097 -1.1031
   6123SM   C4S 7776   3.005   3.686   6.506 -0.2351  0.8671  0.4010
   6123SM   H4S 7777   2.907   3.705   6.461 -0.2304  1.0014  0.4469
   6123SM   C5S 7778   3.109   3.640   6.433  0.4355 -0.2744  0.9941
   6123SM   H5S 7779   3.207   3.630   6.481  0.7156  0.4946  0.5962
   6123SM   C6S 7780   3.122   3.614   6.283  0.2382  0.3897  0.2704
   6123SM   H6S 7781   3.145   3.505   6.280 -0.5829  0.2103 -2.0940
   6123SM   H6T 7782   3.203   3.672   6.234  0.7355 -1.2320 -0.9356
   6123SM   C7S 7783   2.994   3.630   6.194 -0.4390  0.3318 -0.4609
   6123SM   H7S 7784   2.976   3.739   6.191  1.2077  0.6232 -2.7760
   6123SM   H7T 7785   2.905   3.575   6.230 -0.9161 -0.4022 -2.5693
   6123SM   C8S 7786   3.011   3.583   6.053 -0.4840 -0.1939 -0.4898
   6123SM   H8S 7787   3.036   3.475   6.056  1.7838  0.1671 -2.9325
   6123SM   H8T 7788   3.107   3.633   6.027  0.2969 -1.3227  0.1420
   6123SM   C9S 7789   2.901   3.619   5.960  0.2988 -0.4819 -0.1332
   6123SM   H9S 7790   2.904   3.729   5.945 -0.4603 -0.2530  1.2211
   6123SM   H9T 7791   2.802   3.592   6.002 -1.0217  0.9521 -2.1622
   6123SM  C10S 7792   2.915   3.546   5.824 -0.0959 -0.2405  0.1017
   6123SM  H10S 7793   2.899   3.438   5.848  0.0786  0.0333  1.5148
   6123SM  H10T 7794   3.021   3.540   5.792  0.1137 -1.7994  0.9641
   6123SM  C11S 7795   2.819   3.604   5.712 -0.7697 -0.3958 -0.4197
   6123SM  H11S 7796   2.866   3.694   5.667  0.3554 -0.7511  0.0126
   6123SM  H11T 7797   2.723   3.627   5.762  0.7661 -0.5229  2.8688
   6123SM  C12S 7798   2.808   3.504   5.602 -0.3240  1.0487  0.0107
   6123SM  H12S 7799   2.750   3.413   5.626  1.3896  0.0254  0.4730
   6123SM  H12T 7800   2.909   3.470   5.570 -0.9563  0.4269 -1.3682
   6123SM  C13S 7801   2.730   3.562   5.478  0.0475 -0.7170  0.5109
   6123SM  H13S 7802   2.778   3.658   5.447 -0.9252  0.6387  2.9389
   6123SM  H13T 7803   2.623   3.583   5.501  0.6749  2.3381  1.1559
   6123SM  C14S 7804   2.727   3.465   5.362 -0.0552 -0.2318  0.3650
   6123SM  H14S 7805   2.649   3.389   5.381 -1.2278  1.0209  0.6960
   6123SM  H14T 7806   2.831   3.424   5.364 -0.2541 -0.7471  0.1253
   6123SM  C15S 7807   2.697   3.532   5.229 -0.0870  0.0762 -0.1386
   6123SM  H15S 7808   2.736   3.456   5.158  1.7839  0.0571  0.8412
   6123SM  H15T 7809   2.739   3.634   5.219 -2.5402  1.5628  2.7745
   6123SM  C16S 7810   2.552   3.544   5.202  1.0785  0.0196 -0.1280
   6123SM  H16S 7811   2.503   3.561   5.300  0.2583  0.8778 -0.6673
   6123SM  H16T 7812   2.513   3.452   5.154 -0.5574  0.5652  0.0871
   6123SM  C17S 7813   2.503   3.664   5.119 -0.6259  0.5159 -0.0347
   6123SM  H17S 7814   2.553   3.668   5.020 -1.9044  1.0982 -0.6643
   6123SM  H17T 7815   2.532   3.753   5.179 -0.1397 -1.5443  3.0572
   6123SM  C18S 7816   2.347   3.659   5.087  0.0862 -0.1065  0.9118
   6123SM  H18S 7817   2.309   3.754   5.044 -0.8686 -0.8492  0.0711
   6123SM  H18T 7818   2.287   3.649   5.179 -0.9373 -1.0990  0.1625
   6123SM  H18U 7819   2.319   3.576   5.018 -0.2843 -0.5576  1.5965
   6123SM   C1F 7820   2.972   4.089   6.602  0.1777 -0.1022  0.2444
   6123SM    OF 7821   3.088   4.135   6.620 -0.2493  0.6674 -0.1585
   6123SM   C2F 7822   2.858   4.170   6.539 -0.2366 -0.3857  0.7160
   6123SM   H2F 7823   2.808   4.247   6.600 -0.1886  0.7229 -0.5896
   6123SM   H2G 7824   2.778   4.095   6.518  0.5693 -0.6648 -1.7671
   6123SM   C3F 7825   2.907   4.226   6.409  0.4676  0.3934 -0.0438
   6123SM   H3F 7826   2.973   4.314   6.425  0.0862  0.8724 -1.0311
   6123SM   H3G 7827   2.824   4.266   6.346  0.2807  1.6057  0.9319
   6123SM   C4F 7828   2.980   4.123   6.322 -0.5763 -0.0256 -0.1630
   6123SM   H4F 7829   2.923   4.033   6.352 -1.3583  1.2249  2.3464
   6123SM   H4G 7830   3.087   4.102   6.345 -1.1893 -2.4498  0.7488
   6123SM   C5F 7831   2.963   4.147   6.174 -0.2398  0.0026  0.3400
   6123SM   H5F 7832   3.042   4.094   6.117  0.1157  1.1548 -0.2604
   6123SM   H5G 7833   2.972   4.257   6.164 -0.9444 -0.0356 -0.8539
   6123SM   C6F 7834   2.829   4.094   6.121  0.2780 -0.1634  0.8572
   6123SM   H6F 7835   2.747   4.132   6.186  2.7166  1.1194  3.3951
   6123SM   H6G 7836   2.825   3.985   6.136  1.5779 -0.1439  1.4243
   6123SM   C7F 7837   2.814   4.126   5.974  0.4980 -0.1096 -0.1831
   6123SM   H7F 7838   2.897   4.079   5.919 -0.0050  0.1774 -1.2230
   6123SM   H7G 7839   2.826   4.237   5.967 -2.8631  0.4134  0.3956
   6123SM   C8F 7840   2.684   4.088   5.905  0.0592 -0.1336 -0.3347
   6123SM   H8F 7841   2.682   4.133   5.804  0.0644  1.5892  0.3888
   6123SM   H8G 7842   2.596   4.109   5.969  1.0840 -1.5178  1.6240
   6123SM   C9F 7843   2.675   3.930   5.884 -0.0665 -0.1355 -0.2014
   6123SM   H9F 7844   2.669   3.876   5.981 -0.0494 -0.5164 -0.4120
   6123SM   H9G 7845   2.762   3.889   5.828  0.9934  0.1676  1.1512
   6123SM  C10F 7846   2.541   3.891   5.814  0.1066 -0.2241 -0.3497
   6123SM  H10F 7847   2.454   3.949   5.853 -1.1747 -1.2555 -1.5687
   6123SM  H10G 7848   2.520   3.785   5.836  0.3264  0.0130  1.0708
   6123SM  C11F 7849   2.540   3.902   5.666  0.3125  0.0228 -0.2655
   6123SM  H11F 7850   2.640   3.881   5.623  1.0040 -0.9914  1.6789
   6123SM  H11G 7851   2.518   4.000   5.620  0.6674 -0.9282 -2.5786
   6123SM  C12F 7852   2.447   3.785   5.610  0.0498 -0.4876 -0.0526
   6123SM  H12F 7853   2.478   3.685   5.645  1.1005 -1.2495 -2.8508
   6123SM  H12G 7854   2.461   3.772   5.500 -0.2030 -2.5150  0.1291
   6123SM  C13F 7855   2.297   3.799   5.642 -0.2002 -0.7058  0.4651
   6123SM  H13F 7856   2.285   3.816   5.751  1.1526 -2.2685  0.8866
   6123SM  H13G 7857   2.248   3.702   5.620  0.4882 -0.3436 -3.5785
   6123SM  C14F 7858   2.232   3.909   5.554  0.4593 -0.4216  1.0679
   6123SM  H14F 7859   2.281   4.008   5.565 -2.1453  1.2955 -1.3481
   6123SM  H14G 7860   2.125   3.916   5.581  0.0093 -0.0861 -0.6433
   6123SM  C15F 7861   2.231   3.877   5.400  0.1208 -0.5412 -0.0048
   6123SM  H15F 7862   2.188   3.777   5.376  0.1324 -0.4106 -0.5865
   6123SM  H15G 7863   2.337   3.877   5.364  0.4899  2.4326  0.8111
   6123SM  C16F 7864   2.161   3.977   5.313  0.3360  0.1219 -0.0070
   6123SM  H16F 7865   2.187   4.080   5.346 -0.9769 -0.0351  1.6647
   6123SM  H16G 7866   2.052   3.975   5.334  0.3888  0.9165  0.4179
   6123SM  C17F 7867   2.186   3.969   5.159 -0.1556  0.4880  0.7377
   6123SM  H17F 7868   2.170   3.863   5.128 -1.6904  1.4106 -1.9507
   6123SM  H17G 7869   2.294   3.993   5.144  0.4373 -2.0936  0.3276
   6123SM  C18F 7870   2.088   4.061   5.083  0.8829 -0.0401  0.2846
   6123SM  H18F 7871   2.084   4.155   5.141  0.8756 -0.9262  1.7717
   6123SM  H18G 7872   1.985   4.019   5.083  0.5581  0.7329  0.7393
   6123SM  C19F 7873   2.128   4.080   4.935  0.4510  0.8612 -0.5602
   6123SM  H19F 7874   2.237   4.096   4.940  0.5139  0.3921 -0.4259
   6123SM  H19G 7875   2.076   4.168   4.891 -0.2303 -0.6995 -3.1007
   6123SM  C20F 7876   2.108   3.948   4.855  0.3001 -0.0223  0.5506
   6123SM  H20F 7877   2.000   3.923   4.854  0.0059  1.1367  1.4794
   6123SM  H20G 7878   2.155   3.859   4.902  0.3350 -1.4202 -1.9164
   6123SM  C21F 7879   2.164   3.944   4.715 -0.2790  0.3875  0.7292
   6123SM  H21F 7880   2.141   3.842   4.676  1.3906 -0.0535  0.8052
   6123SM  H21G 7881   2.275   3.949   4.719 -0.2688  2.0392 -0.5790
   6123SM  C22F 7882   2.117   4.055   4.628 -0.0995 -0.9925  0.2184
   6123SM  H22F 7883   2.151   4.146   4.682  1.7544 -2.1595  1.1293
   6123SM  H22G 7884   2.006   4.060   4.632 -0.0918 -0.0832 -0.4202
   6123SM  C23F 7885   2.171   4.057   4.487  0.1353  0.4440  0.3842
   6123SM  H23F 7886   2.087   4.030   4.420  1.7314  1.1445 -2.0412
   6123SM  H23G 7887   2.261   3.995   4.467  0.5253  1.3297 -0.7186
   6123SM  H23H 7888   2.190   4.163   4.460  0.8325  0.6919  1.7440
   6223SM     N 7889   3.080   2.917   7.629  0.1420 -0.0573 -0.0064
   6223SM   C15 7890   3.008   3.010   7.728 -0.4840 -0.0686  0.9595
   6223SM  H15A 7891   2.926   2.971   7.785 -1.6216 -1.3636 -1.4289
   6223SM  H15B 7892   2.965   3.090   7.669 -2.2804 -0.6193  1.4651
   6223SM  H15C 7893   3.085   3.052   7.791 -0.0351  0.5015  0.0470
   6223SM   C14 7894   3.138   2.804   7.702 -0.0947  0.4337 -0.8112
   6223SM  H14A 7895   3.067   2.732   7.740 -0.6872  0.8507 -1.1240
   6223SM  H14B 7896   3.197   2.833   7.789  0.5703 -1.0151 -0.7470
   6223SM  H14C 7897   3.206   2.748   7.640 -0.7291 -0.5246 -0.6621
   6223SM   C13 7898   2.984   2.862   7.527 -0.6517  0.4472 -0.6052
   6223SM  H13A 7899   2.890   2.837   7.575 -0.2631  0.3497  0.1224
   6223SM  H13B 7900   3.030   2.776   7.481  3.2679  2.3265 -0.6083
   6223SM  H13C 7901   2.969   2.940   7.455 -2.8221  0.0194 -0.6779
   6223SM   C12 7902   3.183   2.997   7.543  0.3656 -0.5410 -0.3075
   6223SM  H12A 7903   3.257   2.931   7.499  0.6922 -1.5605  1.6458
   6223SM  H12B 7904   3.246   3.051   7.612 -2.2248  2.0349  0.2405
   6223SM   C11 7905   3.129   3.091   7.429 -0.6291 -0.5415  0.1824
   6223SM  H11A 7906   3.205   3.170   7.409  1.0519 -1.7478  1.5565
   6223SM  H11B 7907   3.041   3.147   7.466  0.6471  2.8770 -1.4691
   6223SM     P 7908   3.186   2.967   7.210 -0.1010  0.3115  0.4417
   6223SM   O13 7909   3.255   2.847   7.270 -0.3994 -0.5173 -0.2236
   6223SM   O14 7910   3.117   2.950   7.083  0.2139 -0.5816 -0.9246
   6223SM   O11 7911   3.292   3.081   7.190 -0.5441 -0.6477  0.2230
   6223SM   O12 7912   3.083   3.021   7.313  0.4719  0.1237  0.2817
   6223SM   C1S 7913   3.414   3.047   7.117  0.2734  0.2713 -0.4287
   6223SM   H1S 7914   3.455   2.948   7.146 -1.5269 -0.1723  0.7230
   6223SM   H1T 7915   3.490   3.125   7.137  0.5201 -0.1475  0.2975
   6223SM    NF 7916   3.517   3.015   6.890  0.2473  0.3143 -0.5614
   6223SM   HNF 7917   3.574   3.085   6.848 -0.5141  2.7158  2.0551
   6223SM   C2S 7918   3.398   3.060   6.959  0.1504  0.1630  1.2767
   6223SM   H2S 7919   3.316   2.991   6.930  1.0844 -0.0906 -0.9264
   6223SM   C3S 7920   3.346   3.206   6.922 -0.4762  0.2478 -0.0074
   6223SM   H3S 7921   3.414   3.269   6.983 -0.6683 -1.2205  1.8199
   6223SM    O3 7922   3.215   3.226   6.974  0.1364 -0.5170 -0.1995
   6223SM   HO3 7923   3.217   3.193   7.064  0.1690  0.9263  0.3514
   6223SM   C4S 7924   3.351   3.245   6.782  0.2347  0.4415 -0.3396
   6223SM   H4S 7925   3.297   3.182   6.711  0.6996 -0.6029  0.2013
   6223SM   C5S 7926   3.414   3.353   6.741  0.0984 -0.1418 -0.2350
   6223SM   H5S 7927   3.472   3.415   6.811 -2.8879  1.4899  0.9798
   6223SM   C6S 7928   3.437   3.404   6.603 -0.2807  1.3639 -0.1479
   6223SM   H6S 7929   3.544   3.390   6.580 -0.0168  2.7624  0.1102
   6223SM   H6T 7930   3.410   3.512   6.605 -1.0003  1.2442  3.2372
   6223SM   C7S 7931   3.355   3.336   6.489 -0.5016  0.1896 -0.4881
   6223SM   H7S 7932   3.252   3.378   6.487 -2.2290 -3.6365  0.3485
   6223SM   H7T 7933   3.343   3.228   6.511 -1.8672  0.5809  0.8875
   6223SM   C8S 7934   3.420   3.344   6.353 -0.2905  0.5819  0.3804
   6223SM   H8S 7935   3.525   3.310   6.356 -0.2959  0.6085  2.1535
   6223SM   H8T 7936   3.436   3.450   6.325 -0.1049  0.4567  0.0086
   6223SM   C9S 7937   3.335   3.261   6.250  0.6495 -0.1460 -0.8172
   6223SM   H9S 7938   3.229   3.290   6.267  0.0539 -2.1132 -0.8284
   6223SM   H9T 7939   3.352   3.154   6.275  1.4442  0.2334  0.3024
   6223SM  C10S 7940   3.361   3.296   6.105 -1.1283  1.2980 -0.0073
   6223SM  H10S 7941   3.465   3.259   6.098 -1.5967  0.2574 -2.6261
   6223SM  H10T 7942   3.358   3.407   6.101  0.3668  1.3324 -1.0147
   6223SM  C11S 7943   3.286   3.237   5.986  0.1464  0.0215  0.4933
   6223SM  H11S 7944   3.176   3.247   5.997 -0.0628 -1.4887 -0.0281
   6223SM  H11T 7945   3.309   3.128   5.987 -0.2713 -0.1107 -1.2601
   6223SM  C12S 7946   3.331   3.293   5.851  0.3291 -0.7430 -0.6871
   6223SM  H12S 7947   3.299   3.212   5.782 -0.0945 -1.1113 -0.0711
   6223SM  H12T 7948   3.442   3.299   5.847  0.4624 -2.5015 -0.4878
   6223SM  C13S 7949   3.259   3.420   5.802  0.2133 -0.2667  0.0821
   6223SM  H13S 7950   3.272   3.500   5.878  0.7989 -0.4140  0.1490
   6223SM  H13T 7951   3.152   3.391   5.795 -0.4332  1.4220  1.8618
   6223SM  C14S 7952   3.316   3.465   5.670  0.2642  0.3565 -0.0181
   6223SM  H14S 7953   3.354   3.377   5.613 -0.7312  0.2367 -0.5166
   6223SM  H14T 7954   3.401   3.532   5.696  0.1937 -0.0699  1.3954
   6223SM  C15S 7955   3.209   3.537   5.582  0.2189 -0.5822  0.1051
   6223SM  H15S 7956   3.194   3.639   5.623  0.7683 -0.5795  0.3061
   6223SM  H15T 7957   3.115   3.477   5.582  0.1873 -0.5984  1.8244
   6223SM  C16S 7958   3.263   3.559   5.438  0.9080 -0.5579  0.1391
   6223SM  H16S 7959   3.311   3.466   5.401 -1.1464 -0.9092 -1.8942
   6223SM  H16T 7960   3.343   3.636   5.443  1.2961 -0.9495  0.0102
   6223SM  C17S 7961   3.159   3.609   5.343  0.1202 -0.2945  0.7174
   6223SM  H17S 7962   3.083   3.531   5.323 -2.8044  2.7725 -1.2562
   6223SM  H17T 7963   3.203   3.621   5.242 -2.2307 -2.9801 -0.7826
   6223SM  C18S 7964   3.097   3.745   5.382 -0.0651  0.0904 -0.1319
   6223SM  H18S 7965   3.182   3.813   5.405  1.3742 -1.7227  0.1632
   6223SM  H18T 7966   3.051   3.733   5.483  0.4568 -1.0266 -0.0060
   6223SM  H18U 7967   3.030   3.801   5.313 -0.1467  0.4638  0.2516
   6223SM   C1F 7968   3.549   2.884   6.876  0.1595 -0.7027  0.1489
   6223SM    OF 7969   3.479   2.802   6.931  0.5637 -0.4399 -0.1152
   6223SM   C2F 7970   3.669   2.842   6.798 -0.4103  0.6981 -0.1739
   6223SM   H2F 7971   3.749   2.796   6.860 -1.9258 -2.0029 -0.0372
   6223SM   H2G 7972   3.715   2.926   6.743  1.4503 -1.5011 -2.2031
   6223SM   C3F 7973   3.626   2.729   6.698 -0.0660  0.1753  0.2493
   6223SM   H3F 7974   3.591   2.642   6.757  0.1139 -1.1309 -1.4968
   6223SM   H3G 7975   3.719   2.692   6.649  1.3383  2.1709  1.2493
   6223SM   C4F 7976   3.524   2.763   6.589  0.2376 -0.8754  0.4832
   6223SM   H4F 7977   3.421   2.777   6.628 -0.6578 -0.2872 -1.9106
   6223SM   H4G 7978   3.525   2.674   6.522  2.4653 -1.7039  1.5039
   6223SM   C5F 7979   3.575   2.889   6.511  0.0645 -0.1029 -0.9499
   6223SM   H5F 7980   3.675   2.853   6.477 -0.4443 -1.2172 -1.3217
   6223SM   H5G 7981   3.580   2.980   6.574  1.1786 -0.1126 -1.0142
   6223SM   C6F 7982   3.483   2.930   6.391  0.0405 -0.0626  0.4619
   6223SM   H6F 7983   3.538   3.017   6.350  0.7018 -1.4619 -1.7861
   6223SM   H6G 7984   3.377   2.942   6.420 -0.4858  0.0416 -1.4112
   6223SM   C7F 7985   3.464   2.822   6.288 -0.5705  0.4290 -0.0505
   6223SM   H7F 7986   3.409   2.733   6.326  0.0593 -0.5636 -1.3866
   6223SM   H7G 7987   3.566   2.785   6.264 -0.1142 -0.2630  2.6556
   6223SM   C8F 7988   3.402   2.871   6.155  0.2848 -0.4607  0.0163
   6223SM   H8F 7989   3.473   2.941   6.106 -1.2221  0.2759 -1.2219
   6223SM   H8G 7990   3.307   2.923   6.177 -0.0302  1.3375 -4.4547
   6223SM   C9F 7991   3.368   2.757   6.061  0.0489 -0.1376  0.0326
   6223SM   H9F 7992   3.289   2.704   6.118  0.3652 -0.1077  0.5071
   6223SM   H9G 7993   3.462   2.702   6.040 -0.4700 -1.1296  0.2291
   6223SM  C10F 7994   3.313   2.802   5.926  0.1234 -0.0809 -0.6323
   6223SM  H10F 7995   3.216   2.855   5.944 -0.1357 -0.4647 -0.8861
   6223SM  H10G 7996   3.302   2.707   5.870  2.2240 -0.3928 -0.6006
   6223SM  C11F 7997   3.417   2.892   5.844  0.1188 -0.2297 -0.0373
   6223SM  H11F 7998   3.511   2.833   5.853 -0.6848 -1.6571 -0.5815
   6223SM  H11G 7999   3.438   2.988   5.895  0.7938 -0.4399  0.0981
   6223SM  C12F 8000   3.380   2.898   5.701 -0.3396  0.2123  0.3567
   6223SM  H12F 8001   3.404   2.803   5.649  2.3330  1.2452 -0.4218
   6223SM  H12G 8002   3.440   2.973   5.646  1.5228 -1.4736 -0.0075
   6223SM  C13F 8003   3.232   2.923   5.665 -0.2250 -0.1112  0.1780
   6223SM  H13F 8004   3.198   3.010   5.725 -0.4682 -0.9817  1.3480
   6223SM  H13G 8005   3.166   2.838   5.694 -1.2104  0.3304 -0.7273
   6223SM  C14F 8006   3.214   2.958   5.517  0.3760  0.1627  0.4290
   6223SM  H14F 8007   3.114   2.924   5.483  0.6855 -0.3815  0.0363
   6223SM  H14G 8008   3.280   2.892   5.456  0.6384  0.7531  0.0569
   6223SM  C15F 8009   3.231   3.106   5.468  0.2346  0.5492 -0.0846
   6223SM  H15F 8010   3.319   3.148   5.520  0.9082 -1.5992  0.6257
   6223SM  H15G 8011   3.135   3.152   5.499  0.5812 -0.5411  2.9580
   6223SM  C16F 8012   3.253   3.125   5.316  0.6414  0.0005 -0.4446
   6223SM  H16F 8013   3.343   3.069   5.284 -0.5041 -2.4220  0.2800
   6223SM  H16G 8014   3.270   3.233   5.301 -2.0509  1.0923  3.0140
   6223SM  C17F 8015   3.148   3.071   5.214  0.3547  0.5204 -0.3076
   6223SM  H17F 8016   3.118   2.977   5.265 -0.6566  0.1495 -1.5374
   6223SM  H17G 8017   3.201   3.059   5.117 -0.6869 -1.3286 -0.6864
   6223SM  C18F 8018   3.024   3.171   5.197  0.1288 -0.6078  0.3511
   6223SM  H18F 8019   3.069   3.269   5.169  2.5895 -1.7390  0.1109
   6223SM  H18G 8020   2.978   3.185   5.297 -2.1606  1.8262 -0.9458
   6223SM  C19F 8021   2.927   3.129   5.078 -0.6334 -0.1884 -0.5528
   6223SM  H19F 8022   2.895   3.023   5.092 -2.3463  0.0401 -2.3307
   6223SM  H19G 8023   2.981   3.151   4.984 -1.6330  3.0415 -0.4907
   6223SM  C20F 8024   2.807   3.226   5.060  0.1738  0.0530  0.2024
   6223SM  H20F 8025   2.842   3.331   5.056 -0.0287  0.1159  0.0660
   6223SM  H20G 8026   2.749   3.218   5.155  2.6722 -1.6414  1.7100
   6223SM  C21F 8027   2.729   3.202   4.935  0.7236 -0.3180 -0.7089
   6223SM  H21F 8028   2.694   3.097   4.948 -2.4060  0.8414  1.3977
   6223SM  H21G 8029   2.795   3.191   4.846  0.5143 -0.3472 -0.8613
   6223SM  C22F 8030   2.602   3.289   4.904 -0.1353  0.2466 -0.2045
   6223SM  H22F 8031   2.553   3.291   5.004 -1.7732 -0.8917 -0.9332
   6223SM  H22G 8032   2.534   3.238   4.833  1.3375 -2.0303 -0.0939
   6223SM  C23F 8033   2.635   3.435   4.859 -0.0070 -0.3529 -0.8754
   6223SM  H23F 8034   2.707   3.468   4.937 -0.3049 -2.3000  0.2979
   6223SM  H23G 8035   2.544   3.499   4.863  0.0710 -0.2405 -0.9284
   6223SM  H23H 8036   2.675   3.420   4.757 -2.0909 -3.8811 -1.3613
   6323SM     N 8037   2.379   3.998   7.510  0.0560  0.1024  0.3071
   6323SM   C15 8038   2.481   3.894   7.480  0.4048  0.3503 -0.2819
   6323SM  H15A 8039   2.441   3.797   7.504 -2.5594  1.4659 -0.3100
   6323SM  H15B 8040   2.576   3.924   7.522 -0.2180  0.9891  0.7145
   6323SM  H15C 8041   2.493   3.893   7.373 -3.1197  0.2157 -0.7816
   6323SM   C14 8042   2.251   3.946   7.466  0.5218 -0.4464 -0.3937
   6323SM  H14A 8043   2.172   4.016   7.491  0.3384 -0.5565 -0.6681
   6323SM  H14B 8044   2.217   3.860   7.522  0.4057  0.0097  0.2520
   6323SM  H14C 8045   2.258   3.939   7.359 -1.5445 -0.7689 -0.5447
   6323SM   C13 8046   2.364   4.020   7.660 -0.4574  0.1892 -0.4233
   6323SM  H13A 8047   2.299   4.103   7.683  0.0911  1.0005 -1.6679
   6323SM  H13B 8048   2.463   4.038   7.698  0.7283 -1.1803 -2.6155
   6323SM  H13C 8049   2.333   3.925   7.702  0.9172 -0.8079 -1.5511
   6323SM   C12 8050   2.404   4.131   7.442  0.5180 -0.3499  0.1409
   6323SM  H12A 8051   2.469   4.194   7.501 -0.7937 -0.6302  1.9953
   6323SM  H12B 8052   2.311   4.184   7.430  1.8275  1.7333 -1.4319
   6323SM   C11 8053   2.471   4.124   7.301  0.0816 -0.0378  0.4870
   6323SM  H11A 8054   2.566   4.067   7.298  1.3712  2.0720 -0.9995
   6323SM  H11B 8055   2.492   4.224   7.257  1.3549 -0.4332  0.1748
   6323SM     P 8056   2.431   4.044   7.065  0.0428 -0.0149 -0.1940
   6323SM   O13 8057   2.577   4.028   7.063 -0.2235 -0.7117 -0.2421
   6323SM   O14 8058   2.352   3.944   6.991 -0.3525 -0.0765 -0.3601
   6323SM   O11 8059   2.383   4.179   7.002  0.0872  0.5431 -0.3762
   6323SM   O12 8060   2.382   4.055   7.217 -0.4722 -0.5675 -0.5961
   6323SM   C1S 8061   2.470   4.282   6.949 -0.4713  0.2723 -0.2657
   6323SM   H1S 8062   2.552   4.302   7.021 -0.6152 -0.8541  0.2427
   6323SM   H1T 8063   2.408   4.373   6.936  0.3297  0.5303 -2.6138
   6323SM    NF 8064   2.611   4.364   6.758  0.3041 -0.7499  0.4449
   6323SM   HNF 8065   2.586   4.438   6.696 -1.4499 -2.3579 -0.8724
   6323SM   C2S 8066   2.518   4.263   6.801 -0.9865  0.3410  0.2544
   6323SM   H2S 8067   2.569   4.166   6.788  1.1163  1.0300  2.5900
   6323SM   C3S 8068   2.403   4.246   6.703  0.3136  0.6472  0.1434
   6323SM   H3S 8069   2.363   4.350   6.701 -0.6573  0.2856  0.4728
   6323SM    O3 8070   2.286   4.165   6.745  0.6306 -0.2629 -0.0971
   6323SM   HO3 8071   2.299   4.148   6.838 -0.1966  1.5617  0.3889
   6323SM   C4S 8072   2.456   4.210   6.556  0.4691  0.1891 -0.2425
   6323SM   H4S 8073   2.490   4.294   6.494  0.2403  0.3720 -0.1223
   6323SM   C5S 8074   2.481   4.081   6.520  0.9340 -0.2870 -0.1500
   6323SM   H5S 8075   2.459   4.010   6.601 -0.1857 -1.3097 -1.2973
   6323SM   C6S 8076   2.542   4.022   6.395 -0.5262  0.0695 -0.1815
   6323SM   H6S 8077   2.615   3.945   6.429 -0.7906 -0.0528  0.1014
   6323SM   H6T 8078   2.598   4.098   6.336 -1.7798  0.0300 -1.4800
   6323SM   C7S 8079   2.439   3.970   6.293 -0.4585  0.2053  0.2336
   6323SM   H7S 8080   2.386   3.881   6.332  0.1310 -1.1451 -1.8565
   6323SM   H7T 8081   2.500   3.942   6.204 -0.8522 -1.4182  0.4557
   6323SM   C8S 8082   2.337   4.067   6.249  1.2838  0.0172  0.0323
   6323SM   H8S 8083   2.388   4.164   6.229 -2.1407  1.8316 -0.5027
   6323SM   H8T 8084   2.254   4.078   6.321 -1.3084 -0.5890 -2.6754
   6323SM   C9S 8085   2.278   4.031   6.110 -0.2395  0.3526 -0.0282
   6323SM   H9S 8086   2.219   3.936   6.108 -1.8339  1.3196 -0.5992
   6323SM   H9T 8087   2.365   4.008   6.045 -0.3054 -0.6262  0.2061
   6323SM  C10S 8088   2.188   4.129   6.033 -0.3165 -0.8865  0.6602
   6323SM  H10S 8089   2.249   4.223   6.027 -0.8490 -0.6056 -0.6105
   6323SM  H10T 8090   2.093   4.153   6.085 -0.8223 -0.9113 -0.2436
   6323SM  C11S 8091   2.142   4.071   5.890 -0.1623 -0.2158 -0.1565
   6323SM  H11S 8092   2.107   3.970   5.921  2.1067 -1.3054 -0.8703
   6323SM  H11T 8093   2.233   4.069   5.825  0.0218 -0.9769  0.1158
   6323SM  C12S 8094   2.028   4.154   5.824 -0.1838  0.2136  0.5531
   6323SM  H12S 8095   1.947   4.151   5.900 -0.5066 -1.2378  0.1812
   6323SM  H12T 8096   1.991   4.085   5.745  0.1518  0.5835  0.0679
   6323SM  C13S 8097   2.069   4.291   5.772  0.3856 -0.3983  0.3591
   6323SM  H13S 8098   2.139   4.278   5.687  2.0461  0.7951  1.4847
   6323SM  H13T 8099   2.119   4.349   5.853  1.1562  0.5927 -0.8026
   6323SM  C14S 8100   1.943   4.367   5.727 -0.1054 -0.5775 -0.0298
   6323SM  H14S 8101   1.970   4.466   5.683  1.0002 -1.4576 -1.3994
   6323SM  H14T 8102   1.876   4.381   5.814 -0.1270 -0.4111 -0.0717
   6323SM  C15S 8103   1.860   4.305   5.615  0.2690 -0.2034 -0.2266
   6323SM  H15S 8104   1.781   4.379   5.588 -1.5140 -1.4317  1.3976
   6323SM  H15T 8105   1.809   4.218   5.660 -2.3356  1.5772  0.4854
   6323SM  C16S 8106   1.938   4.254   5.490 -0.5385 -0.5860 -0.1007
   6323SM  H16S 8107   2.016   4.180   5.517  1.5029  1.4667 -0.0355
   6323SM  H16T 8108   1.981   4.346   5.445 -0.7922 -1.0302 -1.2820
   6323SM  C17S 8109   1.843   4.195   5.381  0.5063  0.4759 -0.6493
   6323SM  H17S 8110   1.899   4.175   5.288 -0.4068 -1.0634 -0.9037
   6323SM  H17T 8111   1.760   4.267   5.359 -0.9879 -1.1721 -0.6522
   6323SM  C18S 8112   1.789   4.062   5.420  0.1520 -1.0226 -0.1223
   6323SM  H18S 8113   1.729   4.077   5.513  0.9642  0.6113  0.1748
   6323SM  H18T 8114   1.869   3.988   5.438  1.5236  0.1010 -1.3516
   6323SM  H18U 8115   1.726   4.012   5.344  0.7494 -0.6842 -0.8444
   6323SM   C1F 8116   2.727   4.379   6.815 -0.1164 -0.0737  0.1132
   6323SM    OF 8117   2.750   4.328   6.926 -0.4813 -0.9946  0.3531
   6323SM   C2F 8118   2.822   4.480   6.763  0.2459 -0.3073  0.2406
   6323SM   H2F 8119   2.818   4.490   6.652  1.6231 -4.4863 -0.3349
   6323SM   H2G 8120   2.926   4.450   6.787  1.7287  2.2382 -2.3154
   6323SM   C3F 8121   2.793   4.617   6.836  0.0897 -1.0559 -0.5410
   6323SM   H3F 8122   2.820   4.606   6.943  1.8897  0.3647 -0.7896
   6323SM   H3G 8123   2.688   4.653   6.832 -0.4267 -2.3686  0.4026
   6323SM   C4F 8124   2.880   4.733   6.783 -0.5972  0.1263  0.2096
   6323SM   H4F 8125   2.876   4.727   6.672 -0.8678 -0.4988  0.2451
   6323SM   H4G 8126   2.985   4.710   6.809 -0.8264 -1.9174 -0.4559
   6323SM   C5F 8127   2.837   4.878   6.818 -0.3333 -0.7170  0.7203
   6323SM   H5F 8128   2.813   4.886   6.926 -2.1873  0.9538  0.2331
   6323SM   H5G 8129   2.741   4.903   6.770  0.5733 -0.0341 -0.8192
   6323SM   C6F 8130   2.947   4.980   6.774  0.3772 -0.6922  0.7792
   6323SM   H6F 8131   3.040   4.922   6.758  0.2961 -0.6430  0.1078
   6323SM   H6G 8132   2.967   5.059   6.850 -1.2522  0.7085 -0.1674
   6323SM   C7F 8133   2.915   5.041   6.641 -0.7100  0.0095 -0.0359
   6323SM   H7F 8134   2.853   5.130   6.664 -0.1375  0.7755 -1.3280
   6323SM   H7G 8135   2.852   4.978   6.574  1.3796 -0.0396 -2.0766
   6323SM   C8F 8136   3.040   5.077   6.561 -0.2353 -0.3305  0.4644
   6323SM   H8F 8137   3.091   4.980   6.543 -0.3878 -0.7810  2.2861
   6323SM   H8G 8138   3.117   5.134   6.618 -0.6727  0.8613 -0.1149
   6323SM   C9F 8139   3.008   5.162   6.435 -0.0718  0.0905 -0.1955
   6323SM   H9F 8140   2.961   5.255   6.473  0.8180  0.3335  0.3458
   6323SM   H9G 8141   2.940   5.114   6.361 -0.5444 -0.2269  0.4387
   6323SM  C10F 8142   3.134   5.204   6.368  0.4720  0.1076 -0.0132
   6323SM  H10F 8143   3.217   5.131   6.380  1.0082  0.8952  1.3098
   6323SM  H10G 8144   3.178   5.290   6.423 -1.1427 -0.8884  3.0692
   6323SM  C11F 8145   3.123   5.236   6.218  0.0483  0.2516  0.0064
   6323SM  H11F 8146   3.026   5.287   6.201  0.3701  0.7752 -0.3206
   6323SM  H11G 8147   3.108   5.142   6.161  0.0879 -0.1752  0.6894
   6323SM  C12F 8148   3.241   5.319   6.164  1.0916  0.4683 -0.5148
   6323SM  H12F 8149   3.327   5.248   6.167  2.0578  1.6378  0.6040
   6323SM  H12G 8150   3.248   5.398   6.242 -0.3025  1.8330 -1.7145
   6323SM  C13F 8151   3.208   5.383   6.030  0.3413 -0.3066  0.7594
   6323SM  H13F 8152   3.104   5.423   6.035  1.1483  1.7968  3.7439
   6323SM  H13G 8153   3.216   5.302   5.954 -0.3397  0.9689 -0.7375
   6323SM  C14F 8154   3.309   5.507   6.000  1.0965 -0.0124  0.1366
   6323SM  H14F 8155   3.414   5.470   6.008  0.7121 -1.4361 -0.8545
   6323SM  H14G 8156   3.291   5.574   6.087  2.0774 -0.9866  1.1214
   6323SM  C15F 8157   3.295   5.561   5.860 -0.2805 -0.4143  0.4540
   6323SM  H15F 8158   3.191   5.595   5.842 -0.3634 -1.1538 -0.5226
   6323SM  H15G 8159   3.312   5.475   5.791 -0.0103 -1.3727  1.6724
   6323SM  C16F 8160   3.402   5.668   5.828  0.5338  0.5914 -0.1678
   6323SM  H16F 8161   3.487   5.648   5.897 -0.8168  0.9832  1.6891
   6323SM  H16G 8162   3.360   5.766   5.859 -1.8861  0.0358 -1.4495
   6323SM  C17F 8163   3.438   5.676   5.681  0.5281 -0.0380  0.2684
   6323SM  H17F 8164   3.492   5.584   5.653 -1.0853 -1.1517  0.6721
   6323SM  H17G 8165   3.510   5.761   5.679  0.5063 -0.0128  0.5444
   6323SM  C18F 8166   3.319   5.695   5.592 -0.0447 -0.5673 -0.2301
   6323SM  H18F 8167   3.257   5.785   5.615  0.7786 -0.3185  1.1459
   6323SM  H18G 8168   3.254   5.606   5.583 -0.2068 -0.4327 -0.4105
   6323SM  C19F 8169   3.371   5.717   5.445  0.2789  0.2772  0.3238
   6323SM  H19F 8170   3.464   5.659   5.431 -0.2130 -0.4681  0.0973
   6323SM  H19G 8171   3.386   5.826   5.430  0.2230  0.3799  0.9832
   6323SM  C20F 8172   3.264   5.686   5.339  0.1351  0.2814  0.0943
   6323SM  H20F 8173   3.173   5.746   5.359 -0.0561 -0.1108  0.4123
   6323SM  H20G 8174   3.232   5.580   5.336 -2.4720  1.0250 -2.5660
   6323SM  C21F 8175   3.319   5.714   5.201  0.3409  1.1256  0.1629
   6323SM  H21F 8176   3.269   5.648   5.127  2.8806 -3.5387  2.1944
   6323SM  H21G 8177   3.421   5.670   5.200 -0.1072  0.0436 -0.9090
   6323SM  C22F 8178   3.326   5.862   5.152  0.3147 -0.3348  0.7524
   6323SM  H22F 8179   3.365   5.934   5.227 -0.7127  0.1634  0.8221
   6323SM  H22G 8180   3.231   5.917   5.139  1.8323  2.8622  2.1719
   6323SM  C23F 8181   3.402   5.872   5.018 -0.6532 -0.4213 -0.1350
   6323SM  H23F 8182   3.511   5.887   5.031 -0.7158  0.9456 -0.9804
   6323SM  H23G 8183   3.356   5.956   4.962 -0.9138 -0.3123  0.2404
   6323SM  H23H 8184   3.384   5.780   4.957 -0.5310 -2.4830  2.7574
   6423SM     N 8185   3.725   4.647   7.548 -0.1646  0.3445 -0.7084
   6423SM   C15 8186   3.596   4.581   7.506 -0.5944  0.1143 -0.0417
   6423SM  H15A 8187   3.568   4.613   7.406  2.6226 -0.6410 -1.2968
   6423SM  H15B 8188   3.521   4.619   7.574  0.0403  0.3816  0.5060
   6423SM  H15C 8189   3.609   4.474   7.508  1.3505  0.3219  0.0813
   6423SM   C14 8190   3.695   4.791   7.567 -0.0893 -0.0200 -0.3542
   6423SM  H14A 8191   3.779   4.850   7.601  1.2625 -1.2900 -1.3678
   6423SM  H14B 8192   3.608   4.805   7.630 -0.3769 -0.7491 -0.5850
   6423SM  H14C 8193   3.685   4.829   7.466 -0.8129  0.1634 -0.2204
   6423SM   C13 8194   3.763   4.608   7.683 -0.0072 -0.4775 -0.2186
   6423SM  H13A 8195   3.793   4.507   7.705  2.1096  0.2975  0.7342
   6423SM  H13B 8196   3.680   4.621   7.751 -0.0523  2.6825 -0.7066
   6423SM  H13C 8197   3.846   4.664   7.723 -1.2255  0.4370  1.1332
   6423SM   C12 8198   3.836   4.624   7.444 -0.8877  0.3858 -0.7421
   6423SM  H12A 8199   3.836   4.516   7.434 -0.3937 -0.0462  2.5645
   6423SM  H12B 8200   3.935   4.643   7.483 -1.6858  0.7139  1.2625
   6423SM   C11 8201   3.824   4.691   7.303 -0.3881 -0.0332 -0.1341
   6423SM  H11A 8202   3.719   4.664   7.282 -0.6727  0.0643  1.0768
   6423SM  H11B 8203   3.895   4.643   7.232 -0.6755  0.2321 -0.6009
   6423SM     P 8204   3.792   4.959   7.238 -0.0313  0.7167 -0.3893
   6423SM   O13 8205   3.652   4.984   7.278  0.4316  0.3297  0.4396
   6423SM   O14 8206   3.894   5.056   7.269 -0.0698 -0.0194 -0.1569
   6423SM   O11 8207   3.813   4.902   7.087  0.0093 -0.2110  0.3569
   6423SM   O12 8208   3.841   4.831   7.319  0.1884 -0.6498 -0.1243
   6423SM   C1S 8209   3.950   4.871   7.045 -0.0611 -0.2754 -0.2496
   6423SM   H1S 8210   3.981   4.775   7.091 -0.1238 -1.2435 -2.1248
   6423SM   H1T 8211   4.024   4.952   7.062  0.5755 -1.0564  0.8002
   6423SM    NF 8212   4.078   4.804   6.845  0.3225  0.3677 -0.5396
   6423SM   HNF 8213   4.137   4.867   6.796  0.7845  0.0222 -0.4484
   6423SM   C2S 8214   3.949   4.855   6.893  0.1899 -0.1552 -0.2043
   6423SM   H2S 8215   3.873   4.777   6.869  1.0889 -0.5278 -2.0809
   6423SM   C3S 8216   3.901   4.986   6.817  0.1365 -0.5536 -0.3210
   6423SM   H3S 8217   3.975   5.068   6.834 -0.2995  0.2316 -1.9801
   6423SM    O3 8218   3.780   5.046   6.869  0.3973  0.3954  0.0907
   6423SM   HO3 8219   3.767   4.999   6.951 -0.9029 -0.0766 -0.3481
   6423SM   C4S 8220   3.900   4.964   6.666 -0.3189  0.7307  0.2844
   6423SM   H4S 8221   4.001   4.966   6.623 -0.4724  1.0356 -0.0627
   6423SM   C5S 8222   3.786   4.923   6.600  0.3604  0.2970 -0.2275
   6423SM   H5S 8223   3.697   4.898   6.660 -0.3746 -0.2014 -1.4854
   6423SM   C6S 8224   3.781   4.884   6.454  0.1470  1.0472 -0.5703
   6423SM   H6S 8225   3.764   4.775   6.437 -0.2330  0.6947  1.7031
   6423SM   H6T 8226   3.856   4.925   6.383  0.5776  0.3524 -0.5261
   6423SM   C7S 8227   3.653   4.948   6.396 -0.2213 -0.4696  0.0553
   6423SM   H7S 8228   3.679   5.055   6.380  0.8253 -0.9051 -1.4735
   6423SM   H7T 8229   3.573   4.943   6.472 -1.0965  1.2551 -0.6858
   6423SM   C8S 8230   3.617   4.885   6.260  0.4236 -0.9346 -0.5505
   6423SM   H8S 8231   3.598   4.777   6.278 -2.2140 -0.2662  1.2354
   6423SM   H8T 8232   3.711   4.911   6.208  1.8798  0.6955  2.6112
   6423SM   C9S 8233   3.493   4.951   6.208  0.5734  0.3717 -0.5175
   6423SM   H9S 8234   3.516   5.058   6.188  1.1253 -0.1234 -2.9579
   6423SM   H9T 8235   3.413   4.949   6.284  0.6829  1.6990 -0.3502
   6423SM  C10S 8236   3.449   4.892   6.075 -0.1998 -0.4459 -0.1735
   6423SM  H10S 8237   3.404   4.790   6.076 -0.0772 -0.4991  0.4740
   6423SM  H10T 8238   3.527   4.895   5.996 -1.3394 -0.4341 -1.3289
   6423SM  C11S 8239   3.344   4.984   6.007  0.5424  0.4957 -0.1441
   6423SM  H11S 8240   3.398   5.081   5.998  0.9681  0.4146  1.2508
   6423SM  H11T 8241   3.266   4.990   6.086  0.7367 -0.9489  0.1869
   6423SM  C12S 8242   3.302   4.938   5.873 -0.3258 -0.2020 -0.5339
   6423SM  H12S 8243   3.229   4.855   5.881  0.2161 -0.6341  0.0953
   6423SM  H12T 8244   3.388   4.908   5.810  1.7468 -0.8378  2.3515
   6423SM  C13S 8245   3.216   5.047   5.808  0.7055 -0.5793  0.4402
   6423SM  H13S 8246   3.266   5.145   5.827  1.1017 -0.8580  0.8690
   6423SM  H13T 8247   3.115   5.047   5.855 -0.3287 -0.8024 -1.6827
   6423SM  C14S 8248   3.212   5.041   5.654  0.1482  0.1553  0.8745
   6423SM  H14S 8249   3.312   5.045   5.605 -1.4812 -0.4561 -2.8310
   6423SM  H14T 8250   3.157   5.125   5.606  3.3269  1.3489 -0.9495
   6423SM  C15S 8251   3.151   4.906   5.609 -0.3663 -0.3142  0.3087
   6423SM  H15S 8252   3.041   4.918   5.623 -0.3056  0.4823  0.1703
   6423SM  H15T 8253   3.168   4.825   5.683 -1.4238  0.3872  1.3731
   6423SM  C16S 8254   3.200   4.867   5.469  0.8327  0.9003 -0.6697
   6423SM  H16S 8255   3.308   4.842   5.467  1.1587  1.6018  2.7959
   6423SM  H16T 8256   3.172   4.951   5.401 -1.9524  1.3553  0.9170
   6423SM  C17S 8257   3.133   4.739   5.407 -1.4619 -0.6967  0.3458
   6423SM  H17S 8258   3.171   4.654   5.468  0.5555  1.8708  2.9703
   6423SM  H17T 8259   3.166   4.724   5.302 -1.0358  0.6641  0.2682
   6423SM  C18S 8260   2.980   4.741   5.400 -0.3341  0.5104 -0.0310
   6423SM  H18S 8261   2.933   4.706   5.495  1.7352 -0.0149  0.8600
   6423SM  H18T 8262   2.939   4.671   5.324 -1.9355  0.5308  0.7653
   6423SM  H18U 8263   2.948   4.844   5.374  1.9196  1.0452 -0.9371
   6423SM   C1F 8264   4.111   4.679   6.864  0.2452  0.0841  0.3250
   6423SM    OF 8265   4.044   4.604   6.931  0.3540 -0.0856  0.6925
   6423SM   C2F 8266   4.254   4.643   6.837  0.8890 -0.4759 -0.7521
   6423SM   H2F 8267   4.305   4.604   6.928  2.4569  0.3189 -1.2588
   6423SM   H2G 8268   4.308   4.726   6.787  1.5559 -0.9733 -0.8776
   6423SM   C3F 8269   4.257   4.526   6.727  0.2458  0.1176 -0.2167
   6423SM   H3F 8270   4.183   4.549   6.647  0.3588 -0.7367 -0.5818
   6423SM   H3G 8271   4.229   4.430   6.774 -0.1808  0.8296  1.0283
   6423SM   C4F 8272   4.401   4.517   6.673 -0.0261  0.6685  0.4110
   6423SM   H4F 8273   4.461   4.473   6.755 -0.4006 -1.3900 -0.3628
   6423SM   H4G 8274   4.442   4.615   6.640 -0.9658  1.4839  1.5900
   6423SM   C5F 8275   4.404   4.408   6.566  0.3793  0.6072  0.0070
   6423SM   H5F 8276   4.361   4.454   6.474  0.8931 -1.4560 -1.3346
   6423SM   H5G 8277   4.337   4.326   6.597  1.0142 -0.4272 -1.2446
   6423SM   C6F 8278   4.536   4.356   6.519 -0.1026 -0.0436  0.0614
   6423SM   H6F 8279   4.585   4.325   6.614 -0.4818  1.5788  0.8387
   6423SM   H6G 8280   4.592   4.445   6.482 -2.6322  2.1584  1.1300
   6423SM   C7F 8281   4.528   4.247   6.424 -0.4995  0.2286 -0.6684
   6423SM   H7F 8282   4.436   4.259   6.363 -0.1406 -2.7922 -2.0107
   6423SM   H7G 8283   4.519   4.147   6.472  0.4455  1.3595  2.0440
   6423SM   C8F 8284   4.643   4.235   6.320 -0.2140  0.1455 -0.2468
   6423SM   H8F 8285   4.739   4.215   6.373 -0.8155  1.1900  1.2779
   6423SM   H8G 8286   4.657   4.332   6.267 -1.9643  1.0539  0.8835
   6423SM   C9F 8287   4.611   4.124   6.212 -0.0844 -0.0474 -0.5340
   6423SM   H9F 8288   4.566   4.034   6.260  1.5430  0.6580  2.6486
   6423SM   H9G 8289   4.704   4.082   6.167 -0.0636 -4.1336  2.6245
   6423SM  C10F 8290   4.521   4.166   6.100 -0.3815 -0.0706  0.1486
   6423SM  H10F 8291   4.568   4.252   6.046 -1.1955  0.0841 -0.3284
   6423SM  H10G 8292   4.427   4.212   6.138 -1.0841 -0.4262 -1.1278
   6423SM  C11F 8293   4.488   4.055   5.997  0.1394  0.0539 -0.1277
   6423SM  H11F 8294   4.443   3.972   6.056 -0.3380 -0.3605 -1.0515
   6423SM  H11G 8295   4.581   4.023   5.947 -0.8691  0.3972 -2.3504
   6423SM  C12F 8296   4.401   4.129   5.892 -0.1322  0.1427  0.3733
   6423SM  H12F 8297   4.455   4.221   5.862  0.0320 -0.1057 -0.0982
   6423SM  H12G 8298   4.299   4.154   5.930  0.0404  0.5888  0.5474
   6423SM  C13F 8299   4.376   4.040   5.773  0.2226  0.4650  0.3479
   6423SM  H13F 8300   4.321   3.951   5.809 -2.5517  1.9231 -0.0022
   6423SM  H13G 8301   4.474   4.008   5.731  1.1813  1.8050  1.4410
   6423SM  C14F 8302   4.276   4.091   5.667  0.3206  0.0695  0.8329
   6423SM  H14F 8303   4.297   4.197   5.641 -0.0856 -0.3554 -1.4571
   6423SM  H14G 8304   4.173   4.096   5.709  0.1027  1.3567  0.1766
   6423SM  C15F 8305   4.256   4.002   5.542 -0.7103  0.1642 -1.0567
   6423SM  H15F 8306   4.232   3.908   5.597  1.8540  0.6182  1.0070
   6423SM  H15G 8307   4.351   3.986   5.486  0.0220 -2.0803  0.6737
   6423SM  C16F 8308   4.145   4.046   5.453 -0.1330  0.2049 -0.5198
   6423SM  H16F 8309   4.174   4.140   5.402  0.8825  0.6055  0.7571
   6423SM  H16G 8310   4.059   4.076   5.517 -1.3593 -1.2258 -1.4298
   6423SM  C17F 8311   4.113   3.944   5.347  0.2923  0.5918  0.2502
   6423SM  H17F 8312   4.098   3.842   5.390  1.1637  1.5318  2.9393
   6423SM  H17G 8313   4.192   3.933   5.270  1.3112  0.8591  1.2478
   6423SM  C18F 8314   3.982   3.982   5.281  1.0532 -0.1191  0.5430
   6423SM  H18F 8315   3.999   4.066   5.210 -0.8377 -0.6039 -0.5775
   6423SM  H18G 8316   3.908   4.002   5.361  1.6963 -0.9208  1.3583
   6423SM  C19F 8317   3.915   3.865   5.213 -0.1039  0.0731  0.3379
   6423SM  H19F 8318   3.900   3.789   5.292 -0.2105 -0.4249 -0.1533
   6423SM  H19G 8319   3.979   3.812   5.139 -1.3567 -0.3824 -0.4604
   6423SM  C20F 8320   3.785   3.910   5.149  0.1607 -0.0860  0.1967
   6423SM  H20F 8321   3.791   3.977   5.061  1.3542 -1.1830 -0.5855
   6423SM  H20G 8322   3.718   3.955   5.226  1.0358  2.0511 -0.2331
   6423SM  C21F 8323   3.696   3.788   5.102 -0.5744  0.5092 -0.2170
   6423SM  H21F 8324   3.690   3.729   5.197 -0.9664 -0.1723 -0.6590
   6423SM  H21G 8325   3.756   3.726   5.032 -1.9037 -0.1281 -0.8208
   6423SM  C22F 8326   3.558   3.813   5.047 -0.1799  0.1020 -0.2770
   6423SM  H22F 8327   3.528   3.732   4.978  0.0580  1.1256 -1.6247
   6423SM  H22G 8328   3.552   3.908   4.991  1.7140  0.8789  0.7545
   6423SM  C23F 8329   3.449   3.819   5.150 -0.3200 -0.3828  0.1928
   6423SM  H23F 8330   3.478   3.892   5.228  1.4836 -0.3358 -0.4759
   6423SM  H23G 8331   3.445   3.718   5.197 -2.9387 -0.2204  0.4547
   6423SM  H23H 8332   3.348   3.844   5.111 -0.1214 -1.5481 -1.1557
   6523SM     N 8333   3.327   5.728   7.570 -0.2369  0.6340  0.1550
   6523SM   C15 8334   3.396   5.640   7.670  0.3702  0.2079 -0.5147
   6523SM  H15A 8335   3.497   5.675   7.687 -0.2403  2.7941 -1.7853
   6523SM  H15B 8336   3.401   5.541   7.626  3.1038  0.3266 -0.6527
   6523SM  H15C 8337   3.349   5.628   7.767  1.0531 -0.5711 -0.2696
   6523SM   C14 8338   3.201   5.666   7.528  0.0745 -0.2227  0.1381
   6523SM  H14A 8339   3.173   5.705   7.431  0.1289 -0.7802 -0.1053
   6523SM  H14B 8340   3.123   5.680   7.601  0.2300 -1.2461  0.5161
   6523SM  H14C 8341   3.222   5.561   7.520 -0.6163 -0.2985 -0.9469
   6523SM   C13 8342   3.299   5.865   7.615  0.1363 -0.1467 -0.2630
   6523SM  H13A 8343   3.242   5.926   7.546  0.8524  0.4869 -0.3005
   6523SM  H13B 8344   3.386   5.925   7.637 -1.5245  2.8659 -1.3288
   6523SM  H13C 8345   3.242   5.862   7.707 -0.1607  1.7769 -0.3460
   6523SM   C12 8346   3.426   5.733   7.449 -0.5156 -0.3830 -0.2153
   6523SM  H12A 8347   3.520   5.770   7.488  0.5236 -3.0787  0.0562
   6523SM  H12B 8348   3.405   5.807   7.373 -1.9288  0.9915  1.4345
   6523SM   C11 8349   3.454   5.597   7.377  0.1383 -0.5581  0.1884
   6523SM  H11A 8350   3.513   5.613   7.284 -0.3383 -0.1095 -0.0438
   6523SM  H11B 8351   3.357   5.560   7.338  0.6511  0.2009 -1.9507
   6523SM     P 8352   3.668   5.488   7.481 -0.0379 -0.1094 -0.1406
   6523SM   O13 8353   3.711   5.615   7.540 -1.3008  0.1646  0.0933
   6523SM   O14 8354   3.699   5.373   7.566 -0.7154 -0.5460  0.0789
   6523SM   O11 8355   3.735   5.456   7.341 -0.5790 -0.3846 -0.0034
   6523SM   O12 8356   3.509   5.491   7.462  0.2321 -0.1640  0.4397
   6523SM   C1S 8357   3.686   5.353   7.262  0.6408  0.3927 -0.1865
   6523SM   H1S 8358   3.575   5.352   7.255  0.6711  1.9446 -1.3789
   6523SM   H1T 8359   3.732   5.254   7.283 -2.5406 -1.2771 -0.3906
   6523SM    NF 8360   3.641   5.284   7.029 -0.3866  0.3400  0.5073
   6523SM   HNF 8361   3.691   5.214   6.978  0.1249  2.1421 -1.6375
   6523SM   C2S 8362   3.716   5.382   7.107 -0.5747  0.6050 -0.8626
   6523SM   H2S 8363   3.668   5.482   7.098 -2.8068 -0.2503  0.6227
   6523SM   C3S 8364   3.867   5.379   7.076  0.4980  0.7076  0.7053
   6523SM   H3S 8365   3.876   5.269   7.089 -1.0351  0.5516  0.5947
   6523SM    O3 8366   3.949   5.447   7.173  0.1117  0.0913  0.0528
   6523SM   HO3 8367   3.899   5.452   7.255  0.6161 -1.5008  0.4935
   6523SM   C4S 8368   3.896   5.405   6.928 -1.1804 -0.4843 -0.0808
   6523SM   H4S 8369   3.882   5.318   6.863 -1.9128  0.8787 -1.8568
   6523SM   C5S 8370   3.924   5.523   6.868  0.2205 -0.5561  0.0139
   6523SM   H5S 8371   3.938   5.611   6.932 -2.2574 -0.7827  0.9873
   6523SM   C6S 8372   3.950   5.535   6.716  0.7405  0.3266 -0.4161
   6523SM   H6S 8373   4.024   5.618   6.707 -0.6488  1.4435 -2.0164
   6523SM   H6T 8374   3.856   5.566   6.666 -1.1841 -1.6592  1.6923
   6523SM   C7S 8375   4.000   5.409   6.642 -0.2348  0.1317  0.8254
   6523SM   H7S 8376   3.914   5.343   6.615 -0.5245  0.9116 -0.2446
   6523SM   H7T 8377   4.070   5.341   6.696 -1.6136 -3.0496 -1.0971
   6523SM   C8S 8378   4.080   5.449   6.519  0.1932 -0.1089 -0.5142
   6523SM   H8S 8379   4.131   5.548   6.525  1.3396 -0.7080 -0.0531
   6523SM   H8T 8380   4.011   5.459   6.433  0.7451  2.7919 -0.7334
   6523SM   C9S 8381   4.182   5.340   6.472  1.4640 -0.2670 -0.0557
   6523SM   H9S 8382   4.118   5.250   6.458 -2.0740  2.3776 -2.6267
   6523SM   H9T 8383   4.260   5.334   6.551  1.8681  1.3414 -0.3114
   6523SM  C10S 8384   4.248   5.386   6.342  0.5560  0.4570  0.8305
   6523SM  H10S 8385   4.336   5.323   6.315 -0.0878 -0.4420  0.8109
   6523SM  H10T 8386   4.289   5.490   6.345  3.1341 -0.2791 -2.6225
   6523SM  C11S 8387   4.171   5.382   6.214 -0.2273 -0.4247  0.1172
   6523SM  H11S 8388   4.243   5.375   6.129  0.1232  1.9102  0.1554
   6523SM  H11T 8389   4.112   5.476   6.212  2.1006  1.1357  1.1722
   6523SM  C12S 8390   4.085   5.252   6.201  0.0677  0.5407 -0.4986
   6523SM  H12S 8391   3.998   5.262   6.270 -0.9412 -0.2319 -1.6236
   6523SM  H12T 8392   4.152   5.169   6.231  1.5286  0.5652 -3.3589
   6523SM  C13S 8393   4.031   5.208   6.065 -0.1012  0.2050  0.7450
   6523SM  H13S 8394   4.112   5.223   5.990 -2.2563  1.4148 -1.4762
   6523SM  H13T 8395   3.955   5.277   6.024  0.5673  1.0451  0.9015
   6523SM  C14S 8396   3.989   5.059   6.060  0.0864 -0.2200  0.9143
   6523SM  H14S 8397   3.915   5.035   6.140 -1.0871  1.3600  0.3413
   6523SM  H14T 8398   4.079   4.998   6.085  1.0933  1.5137  1.6532
   6523SM  C15S 8399   3.952   5.024   5.914  0.2182 -0.0014  0.4169
   6523SM  H15S 8400   4.030   5.061   5.843  0.3249  0.6898  0.8874
   6523SM  H15T 8401   3.858   5.070   5.878 -0.6584 -1.6922  0.4427
   6523SM  C16S 8402   3.931   4.877   5.882 -0.1664  0.5395 -0.1287
   6523SM  H16S 8403   3.889   4.834   5.975 -0.8054  1.1811 -0.1145
   6523SM  H16T 8404   4.034   4.837   5.870  0.8070  1.5753  3.4854
   6523SM  C17S 8405   3.836   4.839   5.761  0.2561  0.2589 -0.5815
   6523SM  H17S 8406   3.745   4.902   5.768  1.3085  1.5897  3.2317
   6523SM  H17T 8407   3.808   4.734   5.782 -2.6091  1.4765  2.5690
   6523SM  C18S 8408   3.889   4.845   5.618 -0.5144 -0.3659 -0.5739
   6523SM  H18S 8409   3.988   4.794   5.629 -0.2347  0.0844 -0.9713
   6523SM  H18T 8410   3.895   4.951   5.586 -0.4718  0.1162  0.9224
   6523SM  H18U 8411   3.830   4.786   5.545  1.9564 -0.3322 -2.7626
   6523SM   C1F 8412   3.507   5.289   7.002 -0.1364 -0.0811  0.1706
   6523SM    OF 8413   3.435   5.370   7.058 -0.0652 -0.2540  0.8779
   6523SM   C2F 8414   3.459   5.177   6.909 -0.4623 -0.0644 -0.3679
   6523SM   H2F 8415   3.352   5.178   6.940 -0.3525 -2.2957  0.2278
   6523SM   H2G 8416   3.494   5.079   6.946 -0.4983  0.8411  2.2746
   6523SM   C3F 8417   3.494   5.201   6.763 -0.6466 -0.6420 -1.4684
   6523SM   H3F 8418   3.492   5.104   6.710  3.1461 -2.2410  0.8714
   6523SM   H3G 8419   3.597   5.242   6.762 -1.0385  0.3504 -1.7565
   6523SM   C4F 8420   3.416   5.319   6.709 -0.0492 -0.3533  0.1293
   6523SM   H4F 8421   3.459   5.413   6.749 -0.4736  0.2712 -0.8682
   6523SM   H4G 8422   3.312   5.300   6.745  0.0272  0.0508  0.5742
   6523SM   C5F 8423   3.421   5.323   6.557  0.3493  0.0922  0.4868
   6523SM   H5F 8424   3.346   5.404   6.542 -3.2788 -2.7222  1.8840
   6523SM   H5G 8425   3.383   5.228   6.515  0.4147 -0.3065  1.3170
   6523SM   C6F 8426   3.556   5.365   6.503 -0.9152  0.0089  0.3159
   6523SM   H6F 8427   3.632   5.289   6.530 -1.6607 -0.6545  0.5937
   6523SM   H6G 8428   3.579   5.457   6.561  0.6796 -1.1190  1.5821
   6523SM   C7F 8429   3.551   5.378   6.348 -0.4972 -0.2177 -0.0537
   6523SM   H7F 8430   3.478   5.456   6.315 -0.3998  0.6760  1.7330
   6523SM   H7G 8431   3.519   5.276   6.319  1.5990 -1.1136  0.5942
   6523SM   C8F 8432   3.692   5.411   6.296  0.0997 -0.0083 -0.0978
   6523SM   H8F 8433   3.757   5.332   6.340  1.0324  0.5808 -0.3799
   6523SM   H8G 8434   3.728   5.507   6.340 -1.2584  1.4513 -2.0002
   6523SM   C9F 8435   3.709   5.406   6.141 -0.4068  0.8381  0.1489
   6523SM   H9F 8436   3.817   5.402   6.116 -0.9008 -2.3846 -2.0044
   6523SM   H9G 8437   3.667   5.493   6.086  1.2049  0.1216 -2.3643
   6523SM  C10F 8438   3.649   5.285   6.079 -0.5299 -0.7570  0.5065
   6523SM  H10F 8439   3.540   5.277   6.100 -0.9401  1.5130 -0.4929
   6523SM  H10G 8440   3.698   5.191   6.112 -0.2339 -1.2818 -1.2840
   6523SM  C11F 8441   3.666   5.293   5.921  0.0769  0.6812 -0.0985
   6523SM  H11F 8442   3.775   5.300   5.899  0.6744 -0.2646  2.2755
   6523SM  H11G 8443   3.608   5.375   5.874 -1.3384 -0.9901 -1.4310
   6523SM  C12F 8444   3.618   5.165   5.845  0.1076 -0.3463 -0.2413
   6523SM  H12F 8445   3.508   5.154   5.841  0.1893 -1.1137 -0.6220
   6523SM  H12G 8446   3.643   5.069   5.895 -1.0753  0.3991  1.9127
   6523SM  C13F 8447   3.662   5.156   5.695 -0.0949  0.3506  0.3929
   6523SM  H13F 8448   3.623   5.066   5.644  0.5381 -0.8234  1.9257
   6523SM  H13G 8449   3.770   5.135   5.703 -0.5020 -3.4512 -1.6516
   6523SM  C14F 8450   3.624   5.277   5.612 -0.3844 -0.4875  0.2582
   6523SM  H14F 8451   3.647   5.365   5.675 -2.3776 -0.2153  0.6860
   6523SM  H14G 8452   3.518   5.269   5.581 -0.2554 -1.9283  0.1300
   6523SM  C15F 8453   3.710   5.296   5.483  0.1312 -0.8512  0.3393
   6523SM  H15F 8454   3.726   5.212   5.411  2.1520 -0.3201  0.1189
   6523SM  H15G 8455   3.811   5.316   5.523 -0.2400  2.1604  0.0035
   6523SM  C16F 8456   3.660   5.419   5.398 -0.4815 -0.2335  0.1023
   6523SM  H16F 8457   3.644   5.505   5.466 -0.0829 -0.5620  0.6195
   6523SM  H16G 8458   3.560   5.398   5.354 -1.3371  0.5613  1.5818
   6523SM  C17F 8459   3.764   5.461   5.292 -0.2907  0.3297  0.1570
   6523SM  H17F 8460   3.781   5.375   5.223 -2.0513 -0.1782  0.3258
   6523SM  H17G 8461   3.858   5.482   5.347 -0.6329 -1.4194  1.4731
   6523SM  C18F 8462   3.710   5.571   5.199 -0.3499  0.5350 -0.1990
   6523SM  H18F 8463   3.700   5.665   5.257 -0.8537 -0.5545  1.5828
   6523SM  H18G 8464   3.612   5.541   5.155 -0.2110 -0.7682  0.3081
   6523SM  C19F 8465   3.818   5.594   5.093  0.4203  0.3255  0.3570
   6523SM  H19F 8466   3.829   5.496   5.041  0.4791  0.3657  0.2932
   6523SM  H19G 8467   3.917   5.615   5.140  1.9280 -1.5355 -1.7130
   6523SM  C20F 8468   3.776   5.703   4.992 -0.2813  1.1073  0.5868
   6523SM  H20F 8469   3.766   5.796   5.052  1.0937  1.2765  0.5899
   6523SM  H20G 8470   3.678   5.677   4.947  0.3800 -0.5234  0.0136
   6523SM  C21F 8471   3.868   5.726   4.874 -0.4046 -0.3002  0.0204
   6523SM  H21F 8472   3.968   5.730   4.921 -1.3169  3.2358  2.0208
   6523SM  H21G 8473   3.858   5.827   4.830  0.8616 -0.2600 -0.1964
   6523SM  C22F 8474   3.880   5.617   4.768 -0.4392  0.1778 -0.7994
   6523SM  H22F 8475   3.777   5.590   4.738  0.0257 -1.6627 -0.8759
   6523SM  H22G 8476   3.925   5.526   4.814  0.5873 -0.6111 -3.1772
   6523SM  C23F 8477   3.966   5.653   4.655  0.2830  0.1248 -0.2072
   6523SM  H23F 8478   3.931   5.746   4.605 -0.4241 -0.3587 -0.6177
   6523SM  H23G 8479   3.979   5.569   4.584 -0.3426 -0.0826 -0.0889
   6523SM  H23H 8480   4.074   5.673   4.672  0.6064 -1.4868 -0.2503
   6623SM     N 8481   2.899   1.282   7.419 -0.1927  0.4384  0.1305
   6623SM   C15 8482   2.914   1.417   7.480 -0.0762 -0.4678  0.1373
   6623SM  H15A 8483   2.908   1.401   7.587  1.5751 -2.3970  0.0209
   6623SM  H15B 8484   2.836   1.487   7.456  0.1790 -0.6751 -1.3924
   6623SM  H15C 8485   3.008   1.459   7.446  0.2963 -2.1850 -1.1166
   6623SM   C14 8486   3.010   1.190   7.454 -0.1021  0.1708  0.0933
   6623SM  H14A 8487   3.030   1.171   7.558  0.7404 -1.9949 -0.4089
   6623SM  H14B 8488   3.101   1.236   7.418  1.0189  0.1527  2.6965
   6623SM  H14C 8489   2.997   1.092   7.410  0.2251 -0.7919  2.0479
   6623SM   C13 8490   2.770   1.220   7.465  0.5811 -0.8037  0.1980
   6623SM  H13A 8491   2.765   1.218   7.573  1.9416  0.5571  0.3312
   6623SM  H13B 8492   2.750   1.120   7.429 -1.2111 -1.1916  2.1020
   6623SM  H13C 8493   2.693   1.287   7.429  1.1592  0.7144  1.6611
   6623SM   C12 8494   2.905   1.296   7.269  0.3017  0.3872 -0.3623
   6623SM  H12A 8495   2.809   1.325   7.230 -0.6395 -1.6267  0.3658
   6623SM  H12B 8496   2.902   1.196   7.229 -0.4270 -0.3322  1.3899
   6623SM   C11 8497   3.020   1.376   7.206 -0.3701 -0.6781  0.1045
   6623SM  H11A 8498   2.981   1.480   7.209 -0.8909 -0.7891 -1.7872
   6623SM  H11B 8499   3.019   1.359   7.097  0.1115 -1.3547  0.2005
   6623SM     P 8500   3.247   1.466   7.297  0.0492 -0.3831  0.3656
   6623SM   O13 8501   3.195   1.553   7.405 -0.1787  0.0728  0.2216
   6623SM   O14 8502   3.389   1.412   7.311  0.1601  0.5498 -0.4705
   6623SM   O11 8503   3.259   1.548   7.162  0.1547  0.8752  0.1297
   6623SM   O12 8504   3.147   1.352   7.260  0.7105 -0.1267 -0.3928
   6623SM   C1S 8505   3.275   1.488   7.034  0.3753  0.3367 -0.2346
   6623SM   H1S 8506   3.227   1.389   7.020  1.2834 -0.0507 -0.7098
   6623SM   H1T 8507   3.382   1.459   7.031  0.3912  0.1661  1.1938
   6623SM    NF 8508   3.296   1.530   6.794 -0.4068 -0.3737  0.1173
   6623SM   HNF 8509   3.384   1.567   6.763 -1.4687 -0.2300 -3.0949
   6623SM   C2S 8510   3.244   1.590   6.915 -0.0805  0.0526 -0.3644
   6623SM   H2S 8511   3.133   1.600   6.909 -0.3776 -2.7063 -0.6135
   6623SM   C3S 8512   3.292   1.739   6.937  0.1784 -0.4149  0.3222
   6623SM   H3S 8513   3.404   1.739   6.937  0.2277 -2.6531 -0.2972
   6623SM    O3 8514   3.251   1.793   7.065  0.8665 -0.0986 -0.2441
   6623SM   HO3 8515   3.225   1.719   7.121  1.1001  1.3873  1.9622
   6623SM   C4S 8516   3.237   1.830   6.838  0.4856 -0.5322  0.2119
   6623SM   H4S 8517   3.132   1.855   6.856  0.5970 -1.1467  1.8441
   6623SM   C5S 8518   3.308   1.885   6.742 -0.0545  0.1176 -0.5273
   6623SM   H5S 8519   3.415   1.861   6.740 -0.3790 -1.5950  0.7974
   6623SM   C6S 8520   3.250   1.988   6.643  0.2625  0.4265 -0.1782
   6623SM   H6S 8521   3.261   1.956   6.537 -1.0783  1.9393 -0.8028
   6623SM   H6T 8522   3.297   2.088   6.652  0.0405  0.5491 -0.3787
   6623SM   C7S 8523   3.095   2.015   6.662 -0.3745 -0.4986  0.3329
   6623SM   H7S 8524   3.079   2.061   6.762 -0.1361  2.0801 -0.7339
   6623SM   H7T 8525   3.049   1.914   6.653  2.0462 -1.6751  0.4505
   6623SM   C8S 8526   3.031   2.114   6.557 -0.0893  0.5620 -0.3664
   6623SM   H8S 8527   3.085   2.211   6.564  1.2458 -0.2426  1.2425
   6623SM   H8T 8528   2.932   2.143   6.598 -0.9519 -3.2912  0.6697
   6623SM   C9S 8529   3.033   2.047   6.420  0.0727  0.2326  0.2901
   6623SM   H9S 8530   3.016   1.938   6.434  3.7797 -0.3274  1.6407
   6623SM   H9T 8531   3.138   2.043   6.382 -0.5349 -0.6576 -1.4266
   6623SM  C10S 8532   2.934   2.107   6.320 -0.4522  0.0290  0.3353
   6623SM  H10S 8533   2.963   2.212   6.299  1.3012 -0.3070  0.9046
   6623SM  H10T 8534   2.828   2.095   6.352 -0.5614 -0.3546 -0.1562
   6623SM  C11S 8535   2.945   2.041   6.181  1.1096 -0.1751  0.4044
   6623SM  H11S 8536   2.943   1.930   6.191 -3.0569 -0.3038  0.1257
   6623SM  H11T 8537   3.046   2.067   6.144  0.4412  1.6988 -0.2189
   6623SM  C12S 8538   2.840   2.093   6.086 -0.2492  0.5417  0.6013
   6623SM  H12S 8539   2.865   2.194   6.048 -2.0227  0.5488 -0.6730
   6623SM  H12T 8540   2.744   2.095   6.143  0.1301 -1.4889  1.4005
   6623SM  C13S 8541   2.826   1.992   5.970 -0.5749 -0.0260 -0.3704
   6623SM  H13S 8542   2.779   1.902   6.016  0.7342 -1.1995 -1.2558
   6623SM  H13T 8543   2.931   1.966   5.945 -0.6724  1.7335 -3.0406
   6623SM  C14S 8544   2.746   2.038   5.853  0.0057 -0.3392 -0.1604
   6623SM  H14S 8545   2.812   2.108   5.797 -0.2139 -2.6807 -3.6736
   6623SM  H14T 8546   2.657   2.103   5.870  0.4685  0.2785 -0.0682
   6623SM  C15S 8547   2.708   1.933   5.740 -0.3227 -0.5567 -0.1214
   6623SM  H15S 8548   2.635   1.859   5.779 -2.6540  2.6128  2.0389
   6623SM  H15T 8549   2.804   1.893   5.702  1.4790  1.0517  2.4304
   6623SM  C16S 8550   2.635   1.996   5.623 -0.0765 -0.1661  0.1151
   6623SM  H16S 8551   2.694   2.084   5.591 -1.1060  1.2593  1.9507
   6623SM  H16T 8552   2.530   2.023   5.646  0.5327  1.0549  1.7058
   6623SM  C17S 8553   2.634   1.904   5.503 -0.1487  0.6222 -0.3391
   6623SM  H17S 8554   2.581   1.809   5.524  0.6031  0.4838  1.0551
   6623SM  H17T 8555   2.741   1.879   5.488  0.1591  2.0140 -0.6456
   6623SM  C18S 8556   2.583   1.966   5.373 -0.6105 -0.3965 -0.5615
   6623SM  H18S 8557   2.657   2.045   5.347  1.4160 -1.4846  1.5173
   6623SM  H18T 8558   2.483   2.011   5.389 -0.7338 -0.7689 -0.2804
   6623SM  H18U 8559   2.568   1.890   5.293 -0.7338 -1.1473  0.1594
   6623SM   C1F 8560   3.253   1.437   6.721 -0.0533  0.0575 -0.2088
   6623SM    OF 8561   3.156   1.368   6.763 -0.3293  0.3506  0.1570
   6623SM   C2F 8562   3.339   1.404   6.599  0.2390 -0.3808 -0.9142
   6623SM   H2F 8563   3.409   1.323   6.632  3.0190  1.9873 -0.5604
   6623SM   H2G 8564   3.412   1.487   6.590 -0.4491  0.5301  1.1683
   6623SM   C3F 8565   3.253   1.366   6.476 -0.1428 -0.4402 -0.6426
   6623SM   H3F 8566   3.167   1.433   6.456 -0.2669  0.3217  2.1453
   6623SM   H3G 8567   3.218   1.263   6.499  1.4880 -1.1186 -1.0125
   6623SM   C4F 8568   3.341   1.347   6.354 -0.8122  0.2606  0.6691
   6623SM   H4F 8569   3.405   1.257   6.365 -0.5859  0.3407  0.0022
   6623SM   H4G 8570   3.404   1.438   6.345 -1.1341  0.6718  2.2890
   6623SM   C5F 8571   3.261   1.339   6.221 -0.2615 -0.1131 -0.5204
   6623SM   H5F 8572   3.196   1.429   6.216  0.8280  0.6922 -0.7615
   6623SM   H5G 8573   3.190   1.254   6.227 -2.9348  1.9788 -0.4960
   6623SM   C6F 8574   3.347   1.328   6.091  0.3877 -0.1723 -0.0102
   6623SM   H6F 8575   3.404   1.234   6.103  0.3263  0.0633  2.8315
   6623SM   H6G 8576   3.417   1.414   6.092  0.5367 -0.2980  0.6142
   6623SM   C7F 8577   3.275   1.345   5.953  0.0349 -0.6127 -0.7158
   6623SM   H7F 8578   3.195   1.423   5.961  2.0420  1.4998 -0.1808
   6623SM   H7G 8579   3.238   1.244   5.926 -0.1576 -0.8711  0.4668
   6623SM   C8F 8580   3.371   1.375   5.834  0.2835  0.0068  0.7193
   6623SM   H8F 8581   3.428   1.282   5.815  1.3155  0.8109 -0.3122
   6623SM   H8G 8582   3.434   1.463   5.860  0.9065 -0.0560 -0.5058
   6623SM   C9F 8583   3.302   1.398   5.693 -0.3814 -0.8088 -0.1988
   6623SM   H9F 8584   3.223   1.473   5.713  3.0531  2.9736  0.3791
   6623SM   H9G 8585   3.243   1.308   5.663 -0.5471 -1.0531  0.7998
   6623SM  C10F 8586   3.405   1.432   5.590 -0.6515  0.5280  0.5362
   6623SM  H10F 8587   3.475   1.347   5.577  0.3156  1.5486 -1.5873
   6623SM  H10G 8588   3.464   1.525   5.605  0.6890 -0.3609  0.8633
   6623SM  C11F 8589   3.345   1.438   5.447 -0.5726  0.5018 -0.5682
   6623SM  H11F 8590   3.277   1.526   5.438  0.5406  1.2487 -2.0771
   6623SM  H11G 8591   3.275   1.352   5.446 -1.4529  1.1661  0.6537
   6623SM  C12F 8592   3.452   1.439   5.342  0.0810 -0.2758 -0.3630
   6623SM  H12F 8593   3.501   1.339   5.344  0.6391  0.0018  0.3884
   6623SM  H12G 8594   3.522   1.523   5.364 -0.3567  0.8289 -2.8808
   6623SM  C13F 8595   3.404   1.481   5.201 -0.3266 -0.6929  0.0106
   6623SM  H13F 8596   3.322   1.413   5.171 -1.4852  1.4655 -2.0610
   6623SM  H13G 8597   3.486   1.459   5.130 -0.1117  2.1536 -0.7410
   6623SM  C14F 8598   3.352   1.621   5.179  0.7636  0.1701 -0.0567
   6623SM  H14F 8599   3.423   1.695   5.222  1.2911  1.2428 -2.5842
   6623SM  H14G 8600   3.255   1.627   5.234  0.0176  1.8833 -1.4586
   6623SM  C15F 8601   3.328   1.637   5.031 -0.2547  0.1310 -0.3310
   6623SM  H15F 8602   3.243   1.572   5.001 -1.5580  1.1188  1.0316
   6623SM  H15G 8603   3.417   1.612   4.970  0.0415  1.0057 -0.2849
   6623SM  C16F 8604   3.276   1.783   4.996 -0.3941 -0.5147  0.5831
   6623SM  H16F 8605   3.360   1.843   5.037  1.0591 -0.0431 -2.7061
   6623SM  H16G 8606   3.178   1.812   5.039 -1.0444  0.5040 -1.4466
   6623SM  C17F 8607   3.274   1.811   4.842  0.4639 -0.4099 -0.7838
   6623SM  H17F 8608   3.181   1.762   4.804 -0.2163  0.4869 -0.2984
   6623SM  H17G 8609   3.356   1.758   4.788 -0.1555 -0.7482 -1.4191
   6623SM  C18F 8610   3.254   1.956   4.791 -0.0583  0.1020  0.0115
   6623SM  H18F 8611   3.152   1.980   4.827 -0.1571  0.2130 -0.3361
   6623SM  H18G 8612   3.258   1.957   4.680  0.6556 -1.6291 -0.0144
   6623SM  C19F 8613   3.358   2.061   4.833 -0.6235 -0.1178 -0.5629
   6623SM  H19F 8614   3.350   2.063   4.944 -3.7274 -1.1771 -0.6562
   6623SM  H19G 8615   3.334   2.162   4.792 -0.3206  0.1812 -0.0220
   6623SM  C20F 8616   3.504   2.019   4.786  0.2988 -0.5605  0.0266
   6623SM  H20F 8617   3.521   1.918   4.829  1.1802 -0.5081 -0.1973
   6623SM  H20G 8618   3.563   2.099   4.835 -1.3628  1.0246 -0.4295
   6623SM  C21F 8619   3.521   2.011   4.634 -0.1699  0.0106  0.0653
   6623SM  H21F 8620   3.507   2.116   4.599  1.1104  0.1366 -0.1480
   6623SM  H21G 8621   3.450   1.934   4.598  1.0476 -0.8347 -0.5966
   6623SM  C22F 8622   3.662   1.970   4.582  0.1254 -0.1874  0.1373
   6623SM  H22F 8623   3.670   1.890   4.505 -1.7697  0.5895 -0.9435
   6623SM  H22G 8624   3.712   1.912   4.662 -0.2196  1.0880  1.3205
   6623SM  C23F 8625   3.764   2.079   4.540  0.1754 -0.5620 -0.9100
   6623SM  H23F 8626   3.865   2.039   4.514  0.6626  0.8065 -1.2146
   6623SM  H23G 8627   3.785   2.151   4.622  2.3523 -0.6182 -1.3603
   6623SM  H23H 8628   3.742   2.146   4.454 -0.5352  0.3685 -0.0252
   6723SM     N 8629   2.098   6.033   7.277 -0.5216  0.2089  0.2062
   6723SM   C15 8630   1.957   5.988   7.299  0.0806 -0.3523 -0.3447
   6723SM  H15A 8631   1.922   6.032   7.391 -1.1169 -2.0068  0.0147
   6723SM  H15B 8632   1.939   5.882   7.299  0.3516 -0.4061 -0.9633
   6723SM  H15C 8633   1.893   6.034   7.225 -0.8188  1.4537  1.4896
   6723SM   C14 8634   2.109   6.181   7.315  0.4790 -0.8049 -0.4885
   6723SM  H14A 8635   2.215   6.195   7.303  0.1530  1.5647 -1.0491
   6723SM  H14B 8636   2.082   6.199   7.418 -0.2395 -0.7341 -0.6795
   6723SM  H14C 8637   2.051   6.237   7.243 -2.7314 -2.5711  0.4774
   6723SM   C13 8638   2.184   5.960   7.378  0.3083  0.1290  0.4299
   6723SM  H13A 8639   2.185   5.852   7.377  2.0036  0.0567  2.1795
   6723SM  H13B 8640   2.145   5.980   7.477  0.8886  0.8453  0.5258
   6723SM  H13C 8641   2.288   5.989   7.386  0.4530 -0.6136  1.4815
   6723SM   C12 8642   2.143   6.007   7.139  0.4874 -0.1502 -0.3389
   6723SM  H12A 8643   2.239   6.049   7.112 -0.2214 -0.1032 -3.1337
   6723SM  H12B 8644   2.067   6.044   7.071  1.4215 -0.2354 -1.4621
   6723SM   C11 8645   2.152   5.858   7.090 -0.1731 -0.0508  0.2110
   6723SM  H11A 8646   2.208   5.794   7.162 -0.3587  1.3854  1.6904
   6723SM  H11B 8647   2.222   5.862   7.004  0.3560  1.0700  0.6731
   6723SM     P 8648   1.982   5.769   6.910  0.0101 -0.3905  0.3498
   6723SM   O13 8649   1.842   5.722   6.910  0.0244 -0.1368 -0.1058
   6723SM   O14 8650   2.013   5.880   6.822  0.5629  0.1850  0.1675
   6723SM   O11 8651   2.086   5.658   6.883 -0.4103 -0.0802  0.7029
   6723SM   O12 8652   2.022   5.808   7.058 -0.0804 -0.1270 -0.1753
   6723SM   C1S 8653   2.063   5.569   6.773 -0.1597  0.4174 -0.5832
   6723SM   H1S 8654   1.968   5.589   6.719 -0.5692  0.8039  0.2729
   6723SM   H1T 8655   2.057   5.465   6.814 -0.2557  1.1940  1.4647
   6723SM    NF 8656   2.138   5.467   6.574 -0.5419 -0.5331  0.2392
   6723SM   HNF 8657   2.151   5.373   6.606  0.3184 -0.7133 -0.5726
   6723SM   C2S 8658   2.182   5.572   6.673  0.3514  0.0803  0.2227
   6723SM   H2S 8659   2.195   5.674   6.631  0.0259  0.5248  1.1736
   6723SM   C3S 8660   2.314   5.540   6.744  0.1260 -0.0084 -0.3079
   6723SM   H3S 8661   2.305   5.448   6.807  2.1357  0.6206  0.9862
   6723SM    O3 8662   2.356   5.640   6.840 -0.2620  0.1529  0.2235
   6723SM   HO3 8663   2.272   5.682   6.857 -1.0199 -1.7768  1.6389
   6723SM   C4S 8664   2.414   5.515   6.642  0.0552 -0.1003  0.5011
   6723SM   H4S 8665   2.407   5.571   6.548 -0.3166  0.4058  0.8243
   6723SM   C5S 8666   2.484   5.402   6.642 -0.6732 -0.1252  0.1543
   6723SM   H5S 8667   2.474   5.331   6.725  1.7912 -0.3179  0.3573
   6723SM   C6S 8668   2.563   5.348   6.526  0.0261 -0.0203  0.1411
   6723SM   H6S 8669   2.573   5.237   6.524 -0.2185 -0.1152  2.0228
   6723SM   H6T 8670   2.669   5.381   6.531  0.0571  0.3366 -1.8866
   6723SM   C7S 8671   2.525   5.409   6.386 -1.2578 -0.0712 -0.9170
   6723SM   H7S 8672   2.541   5.519   6.393 -2.2454  0.1054 -1.1687
   6723SM   H7T 8673   2.416   5.396   6.367 -1.3852 -0.2525 -0.0875
   6723SM   C8S 8674   2.608   5.352   6.267  0.4304  0.1213 -0.2351
   6723SM   H8S 8675   2.596   5.242   6.258  5.5723 -0.5114 -3.5023
   6723SM   H8T 8676   2.714   5.368   6.295  0.7647 -0.7644 -0.9411
   6723SM   C9S 8677   2.570   5.427   6.135  0.1716 -0.0424 -0.1004
   6723SM   H9S 8678   2.575   5.536   6.157  1.5291 -0.5388  2.4352
   6723SM   H9T 8679   2.471   5.397   6.095  0.7820  2.0105 -3.5587
   6723SM  C10S 8680   2.675   5.405   6.031  0.1553  0.1829 -0.4709
   6723SM  H10S 8681   2.766   5.442   6.083 -0.5968  0.6150  0.5866
   6723SM  H10T 8682   2.654   5.473   5.946  0.8722  0.2848 -0.5731
   6723SM  C11S 8683   2.687   5.254   5.988 -0.2621  0.3622 -0.1651
   6723SM  H11S 8684   2.592   5.213   5.947 -0.5438 -0.4027  1.1835
   6723SM  H11T 8685   2.710   5.195   6.079  1.9333 -0.1231 -0.9843
   6723SM  C12S 8686   2.808   5.225   5.887  0.0182 -1.0940 -0.5446
   6723SM  H12S 8687   2.797   5.115   5.871 -0.2850 -1.3968  1.3913
   6723SM  H12T 8688   2.909   5.230   5.932 -1.1083 -0.4841  2.1323
   6723SM  C13S 8689   2.797   5.310   5.759  0.2149 -0.1466 -0.3117
   6723SM  H13S 8690   2.840   5.408   5.789 -1.5938  0.8116 -0.7519
   6723SM  H13T 8691   2.690   5.332   5.743  0.5243  0.6841 -1.3636
   6723SM  C14S 8692   2.856   5.246   5.640  0.5713  0.5806 -0.2220
   6723SM  H14S 8693   2.819   5.143   5.623 -0.8522  0.9166  0.6270
   6723SM  H14T 8694   2.966   5.236   5.647  0.5697 -0.1934 -1.1351
   6723SM  C15S 8695   2.825   5.333   5.519  0.7445  0.1754  0.0948
   6723SM  H15S 8696   2.716   5.346   5.502  0.8816 -0.3706 -1.3594
   6723SM  H15T 8697   2.868   5.272   5.436  0.4686 -0.0711  0.1304
   6723SM  C16S 8698   2.895   5.466   5.502 -0.2083 -0.1731  0.5346
   6723SM  H16S 8699   2.992   5.453   5.554 -0.2064  0.2954  0.6539
   6723SM  H16T 8700   2.843   5.553   5.546  0.3935 -1.2630  3.6895
   6723SM  C17S 8701   2.931   5.495   5.349 -0.0831  0.4233  0.5942
   6723SM  H17S 8702   3.008   5.416   5.333  2.6258  2.5333  2.2438
   6723SM  H17T 8703   2.996   5.585   5.345 -1.9530  1.7762 -0.3481
   6723SM  C18S 8704   2.815   5.498   5.255  0.0295  0.2619  0.5291
   6723SM  H18S 8705   2.849   5.543   5.160 -1.9190 -0.8372 -0.7585
   6723SM  H18T 8706   2.729   5.564   5.280 -0.7380 -0.6208  0.2962
   6723SM  H18U 8707   2.778   5.395   5.235  1.0097  0.3633 -2.0852
   6723SM   C1F 8708   2.061   5.501   6.474  0.7011  0.4140 -1.1206
   6723SM    OF 8709   2.025   5.615   6.452  0.3642  0.1532  0.1755
   6723SM   C2F 8710   2.014   5.387   6.385 -0.1421 -0.0489 -0.2513
   6723SM   H2F 8711   1.908   5.359   6.397  0.0683 -1.2404 -1.0083
   6723SM   H2G 8712   2.062   5.292   6.417 -1.7720 -1.2185 -1.1356
   6723SM   C3F 8713   2.032   5.410   6.235 -0.1207  0.6780  0.6312
   6723SM   H3F 8714   2.141   5.424   6.216 -0.3859  1.8480 -0.0777
   6723SM   H3G 8715   1.979   5.494   6.188  0.7509  0.6471 -0.4479
   6723SM   C4F 8716   1.998   5.277   6.159 -0.2889 -0.2366 -0.8348
   6723SM   H4F 8717   1.894   5.254   6.191  0.9567 -3.2427  1.5542
   6723SM   H4G 8718   2.059   5.191   6.193 -0.3073  0.5140  1.2785
   6723SM   C5F 8719   2.011   5.295   6.007  0.5428 -0.1029  0.3895
   6723SM   H5F 8720   2.105   5.352   5.998 -0.0682  0.9276  0.4194
   6723SM   H5G 8721   1.933   5.363   5.966  0.8598 -0.1509 -0.3123
   6723SM   C6F 8722   2.001   5.160   5.931  0.0054  0.6609 -0.3012
   6723SM   H6F 8723   1.898   5.123   5.949 -0.5609  1.9720 -0.7167
   6723SM   H6G 8724   2.071   5.088   5.978 -0.9215  0.0415  0.1502
   6723SM   C7F 8725   2.027   5.145   5.775  0.0697  0.1823 -0.5237
   6723SM   H7F 8726   1.979   5.059   5.724 -0.1584  0.1498 -0.2600
   6723SM   H7G 8727   2.136   5.137   5.757 -0.1656 -0.5990 -1.7168
   6723SM   C8F 8728   1.969   5.265   5.701  0.2335 -0.3106 -0.1058
   6723SM   H8F 8729   2.028   5.354   5.731  0.0981 -0.4584  0.6203
   6723SM   H8G 8730   1.862   5.273   5.733 -0.8511 -2.4490 -2.8171
   6723SM   C9F 8731   1.977   5.244   5.552  0.6075  0.6433 -0.0557
   6723SM   H9F 8732   1.903   5.173   5.511 -1.0213  2.0449  0.3432
   6723SM   H9G 8733   2.075   5.195   5.531  0.5191  0.6250 -0.4229
   6723SM  C10F 8734   1.957   5.367   5.463 -0.4679  0.1036  1.3089
   6723SM  H10F 8735   1.976   5.337   5.358  1.9984  1.0820  1.4069
   6723SM  H10G 8736   2.044   5.435   5.477  0.4313 -0.5369 -0.8541
   6723SM  C11F 8737   1.822   5.441   5.490 -0.7430  0.0111 -0.0475
   6723SM  H11F 8738   1.817   5.503   5.582 -0.4054 -1.7370  1.1947
   6723SM  H11G 8739   1.743   5.363   5.490  0.6715 -1.4660  0.1859
   6723SM  C12F 8740   1.786   5.537   5.374 -0.3397 -0.4076  0.4256
   6723SM  H12F 8741   1.809   5.473   5.286  1.5564 -2.5266  2.3323
   6723SM  H12G 8742   1.856   5.623   5.378 -0.1663 -0.5538  0.5432
   6723SM  C13F 8743   1.637   5.583   5.372 -0.6837 -0.1107  0.9825
   6723SM  H13F 8744   1.580   5.489   5.356 -0.4058 -0.2324  0.6803
   6723SM  H13G 8745   1.621   5.643   5.280 -1.5371 -1.2850  0.3335
   6723SM  C14F 8746   1.586   5.675   5.486  0.0583 -0.4379 -0.8039
   6723SM  H14F 8747   1.656   5.760   5.502  0.5612 -0.9894  0.0141
   6723SM  H14G 8748   1.581   5.617   5.581  2.6466 -2.9435 -2.0722
   6723SM  C15F 8749   1.445   5.732   5.459 -0.8243 -0.7134  0.0179
   6723SM  H15F 8750   1.434   5.757   5.352 -2.1064 -1.2415  0.0080
   6723SM  H15G 8751   1.421   5.827   5.513 -2.7105 -0.5959 -0.9438
   6723SM  C16F 8752   1.319   5.645   5.475 -0.6060  0.1481 -0.0001
   6723SM  H16F 8753   1.332   5.599   5.575 -0.3351 -1.3107 -0.6761
   6723SM  H16G 8754   1.316   5.562   5.401 -0.2856 -1.0422  1.2895
   6723SM  C17F 8755   1.192   5.734   5.482 -0.1355  0.3566  0.0351
   6723SM  H17F 8756   1.209   5.821   5.550  0.9543 -1.6862  2.5452
   6723SM  H17G 8757   1.110   5.670   5.522 -2.1504  0.3253 -3.6936
   6723SM  C18F 8758   1.144   5.780   5.347 -0.1605  0.6544 -0.3843
   6723SM  H18F 8759   1.082   5.698   5.304 -0.8571  0.3143  1.2064
   6723SM  H18G 8760   1.234   5.785   5.281  0.6362 -2.9301  0.2118
   6723SM  C19F 8761   1.053   5.903   5.342  0.4643 -0.3940  0.1509
   6723SM  H19F 8762   0.967   5.890   5.411  0.3107  0.4390  0.1290
   6723SM  H19G 8763   0.999   5.903   5.245  0.3133 -1.1329  0.2334
   6723SM  C20F 8764   1.117   6.040   5.361  0.2254  0.1061  0.5802
   6723SM  H20F 8765   1.217   6.039   5.311  0.7042 -2.1869  1.4506
   6723SM  H20G 8766   1.133   6.055   5.470  1.3141 -0.6977  0.5522
   6723SM  C21F 8767   1.027   6.153   5.308  0.2571 -0.4127  0.0462
   6723SM  H21F 8768   1.028   6.238   5.378 -1.0636 -0.2265 -0.1337
   6723SM  H21G 8769   0.919   6.126   5.311 -0.8503  2.8715 -3.2512
   6723SM  C22F 8770   1.052   6.218   5.166  0.0172  0.0376 -0.4885
   6723SM  H22F 8771   1.158   6.201   5.140 -0.1575 -1.0303 -0.5499
   6723SM  H22G 8772   1.046   6.327   5.185 -0.1156 -0.1026  0.3202
   6723SM  C23F 8773   0.963   6.167   5.057  0.5123  0.0616  0.0089
   6723SM  H23F 8774   0.989   6.067   5.015 -0.2997  1.0981 -3.2331
   6723SM  H23G 8775   0.975   6.231   4.967 -0.2475  0.1181 -0.0559
   6723SM  H23H 8776   0.857   6.162   5.088 -0.0426 -1.6593 -1.8852
   6823SM     N 8777   2.249   1.785   7.099 -0.0313 -0.0990 -0.0378
   6823SM   C15 8778   2.241   1.788   6.951 -0.7761 -0.3679  0.2746
   6823SM  H15A 8779   2.140   1.771   6.919 -0.7672  1.3236 -0.8078
   6823SM  H15B 8780   2.303   1.709   6.912 -0.0439  1.3866 -2.3960
   6823SM  H15C 8781   2.273   1.884   6.912  0.4757 -1.0706 -0.4984
   6823SM   C14 8782   2.172   1.898   7.160 -0.0957  0.5492  0.0348
   6823SM  H14A 8783   2.065   1.890   7.146  0.2025 -4.0330 -1.1849
   6823SM  H14B 8784   2.210   1.993   7.126  1.2486 -0.2141 -0.6707
   6823SM  H14C 8785   2.186   1.896   7.268  3.9297  0.8369 -0.3298
   6823SM   C13 8786   2.185   1.660   7.155 -0.0550 -0.6240  0.1985
   6823SM  H13A 8787   2.248   1.576   7.132  2.0207  0.9028  0.0625
   6823SM  H13B 8788   2.083   1.643   7.124  0.3927  0.3833 -2.0170
   6823SM  H13C 8789   2.182   1.657   7.263  0.9465  0.0381  0.2575
   6823SM   C12 8790   2.391   1.791   7.141 -0.4767 -0.3140 -0.6335
   6823SM  H12A 8791   2.400   1.784   7.248  0.6545  0.9637 -0.6220
   6823SM  H12B 8792   2.437   1.885   7.117  2.6571 -1.3913  0.6762
   6823SM   C11 8793   2.496   1.692   7.080  0.1347  0.6428  0.0586
   6823SM  H11A 8794   2.598   1.731   7.104  0.4247  0.8921 -1.4792
   6823SM  H11B 8795   2.498   1.704   6.970 -1.2752  0.3560 -0.0180
   6823SM     P 8796   2.591   1.487   7.199  0.2271  0.1878 -0.0554
   6823SM   O13 8797   2.639   1.583   7.305  0.7223 -0.6804 -0.0963
   6823SM   O14 8798   2.563   1.345   7.240 -0.2100  0.0861 -0.0896
   6823SM   O11 8799   2.713   1.480   7.096 -0.8713  0.2287 -0.2970
   6823SM   O12 8800   2.473   1.552   7.118  0.0678  0.1238 -0.4309
   6823SM   C1S 8801   2.718   1.379   6.987 -0.0498  0.6789 -0.2494
   6823SM   H1S 8802   2.628   1.313   6.993  0.1070  0.4849 -0.0273
   6823SM   H1T 8803   2.805   1.310   6.995 -0.7663 -0.0367  3.0484
   6823SM    NF 8804   2.694   1.348   6.741 -0.3630  0.1686  0.5108
   6823SM   HNF 8805   2.775   1.314   6.694 -0.2851  0.5314  0.3768
   6823SM   C2S 8806   2.732   1.439   6.850 -0.0045 -0.5910  0.3725
   6823SM   H2S 8807   2.657   1.522   6.848 -0.3635 -0.9221 -1.4233
   6823SM   C3S 8808   2.871   1.515   6.838  0.2244  0.6269  0.6297
   6823SM   H3S 8809   2.947   1.434   6.839 -0.3653  0.0457  0.0540
   6823SM    O3 8810   2.903   1.597   6.945 -0.3210  0.2873  0.7549
   6823SM   HO3 8811   2.823   1.577   6.994 -2.5454 -1.2410 -3.0406
   6823SM   C4S 8812   2.879   1.592   6.710  0.0126 -0.3413  0.0479
   6823SM   H4S 8813   2.833   1.691   6.724  2.2307  0.5664  1.3346
   6823SM   C5S 8814   2.933   1.561   6.591  0.8925  0.2401 -0.1339
   6823SM   H5S 8815   2.978   1.461   6.585  1.1793  0.3511  0.1461
   6823SM   C6S 8816   2.923   1.633   6.459  0.2857 -0.0893  0.3387
   6823SM   H6S 8817   3.022   1.674   6.431  0.1734  0.1844  0.3336
   6823SM   H6T 8818   2.852   1.719   6.462  0.1776 -0.1839  0.5115
   6823SM   C7S 8819   2.894   1.544   6.340  0.8473  0.3161  0.1534
   6823SM   H7S 8820   2.798   1.488   6.334  0.5513  0.8926 -0.8169
   6823SM   H7T 8821   2.984   1.479   6.334 -0.6673 -1.7601 -2.9291
   6823SM   C8S 8822   2.901   1.628   6.210  0.2683  0.1197 -0.0716
   6823SM   H8S 8823   2.991   1.692   6.222 -1.1784  2.0737  0.9123
   6823SM   H8T 8824   2.815   1.699   6.205 -0.6377 -0.8784  0.7694
   6823SM   C9S 8825   2.913   1.548   6.086 -0.1088  0.1284 -0.3089
   6823SM   H9S 8826   2.841   1.464   6.072 -1.6622  1.8114 -3.6244
   6823SM   H9T 8827   3.012   1.498   6.094 -0.1017 -0.2069 -2.0052
   6823SM  C10S 8828   2.916   1.629   5.957 -0.1367 -0.4376 -0.4109
   6823SM  H10S 8829   3.005   1.694   5.955  1.7815 -2.6949  2.6404
   6823SM  H10T 8830   2.831   1.701   5.959  1.2749  1.3279 -1.5131
   6823SM  C11S 8831   2.895   1.537   5.830  0.2006  0.1388  0.0775
   6823SM  H11S 8832   2.804   1.476   5.846  0.9971 -0.7539  1.3442
   6823SM  H11T 8833   2.981   1.468   5.834 -0.7781 -1.0428  1.9197
   6823SM  C12S 8834   2.899   1.609   5.693 -0.0321  0.2765 -0.0007
   6823SM  H12S 8835   2.803   1.666   5.692 -0.2433 -0.0693  0.7655
   6823SM  H12T 8836   2.902   1.532   5.612 -0.3263 -0.2683  0.5046
   6823SM  C13S 8837   3.009   1.703   5.664 -0.5888  0.4925 -0.0213
   6823SM  H13S 8838   3.104   1.649   5.685 -0.9188  0.0443  0.3434
   6823SM  H13T 8839   2.997   1.792   5.730  0.0717  0.4859  0.1159
   6823SM  C14S 8840   3.019   1.752   5.511  0.2827  0.0463 -0.3815
   6823SM  H14S 8841   2.936   1.825   5.501  1.1930  1.1825  0.0383
   6823SM  H14T 8842   2.990   1.661   5.455 -1.0444 -0.6356  1.3046
   6823SM  C15S 8843   3.156   1.806   5.472  0.2339  1.0411 -0.1393
   6823SM  H15S 8844   3.239   1.733   5.480 -1.5700 -1.3024 -1.3659
   6823SM  H15T 8845   3.191   1.890   5.535  0.3006 -0.2650  1.6394
   6823SM  C16S 8846   3.156   1.871   5.329 -0.2830 -0.6701 -0.5222
   6823SM  H16S 8847   3.130   1.791   5.257  0.4766 -0.2980 -1.2180
   6823SM  H16T 8848   3.242   1.932   5.294  0.3852 -0.7480  0.8979
   6823SM  C17S 8849   3.046   1.974   5.317  0.3091  0.3146 -0.2311
   6823SM  H17S 8850   3.043   2.043   5.404 -2.1755  1.1851 -0.9238
   6823SM  H17T 8851   2.946   1.924   5.319  1.7156 -2.7705 -0.8313
   6823SM  C18S 8852   3.058   2.064   5.192  0.2509  0.8389  0.8870
   6823SM  H18S 8853   3.072   2.004   5.099  0.0968  1.5728  0.3809
   6823SM  H18T 8854   3.150   2.126   5.202 -0.4839  2.3131 -0.8301
   6823SM  H18U 8855   2.974   2.135   5.179 -0.2930  0.2580  1.1677
   6823SM   C1F 8856   2.580   1.280   6.719  0.1401  0.2748 -0.7312
   6823SM    OF 8857   2.480   1.296   6.786  0.0021 -0.0428 -0.0888
   6823SM   C2F 8858   2.582   1.192   6.592 -0.4991 -0.0022  0.6575
   6823SM   H2F 8859   2.663   1.117   6.601 -1.0369 -0.7471 -0.4804
   6823SM   H2G 8860   2.602   1.263   6.509  0.0697 -0.6886  0.1975
   6823SM   C3F 8861   2.452   1.124   6.571  0.6058 -0.1591 -0.0899
   6823SM   H3F 8862   2.373   1.200   6.554  0.2201 -0.5745 -0.2087
   6823SM   H3G 8863   2.432   1.066   6.664  1.7871 -1.0930 -0.3988
   6823SM   C4F 8864   2.449   1.028   6.453 -0.7839  0.4623  0.0402
   6823SM   H4F 8865   2.362   0.960   6.460  0.4416 -1.4241 -2.0654
   6823SM   H4G 8866   2.532   0.956   6.469 -0.8066  0.5443  0.5694
   6823SM   C5F 8867   2.453   1.091   6.310  0.3504 -0.1342 -0.0429
   6823SM   H5F 8868   2.536   1.165   6.303 -0.8175  1.0740 -2.2271
   6823SM   H5G 8869   2.357   1.145   6.298 -0.5308 -1.0840  2.1974
   6823SM   C6F 8870   2.482   0.997   6.194  0.3184 -0.5010 -0.3013
   6823SM   H6F 8871   2.425   0.902   6.203 -1.2202  0.1732 -2.1633
   6823SM   H6G 8872   2.590   0.973   6.198  0.4524  0.3063  1.8726
   6823SM   C7F 8873   2.446   1.063   6.053  0.0160  0.5862 -0.2837
   6823SM   H7F 8874   2.497   1.162   6.047  0.7985  0.1830 -0.5425
   6823SM   H7G 8875   2.338   1.086   6.065  0.1592  1.3180 -0.3682
   6823SM   C8F 8876   2.471   0.970   5.932 -0.4639 -0.4105  0.6196
   6823SM   H8F 8877   2.388   0.897   5.940 -0.0890 -1.0998 -1.2567
   6823SM   H8G 8878   2.564   0.914   5.955  1.8812  1.8544 -2.5039
   6823SM   C9F 8879   2.475   1.036   5.794  0.2975  0.1769  0.1577
   6823SM   H9F 8880   2.568   1.095   5.785  1.8338 -2.3134 -1.9444
   6823SM   H9G 8881   2.383   1.096   5.778 -0.7489 -1.5576 -0.7368
   6823SM  C10F 8882   2.466   0.923   5.684 -0.2137 -0.3168  0.2544
   6823SM  H10F 8883   2.363   0.880   5.679 -0.4886  0.4306 -0.7519
   6823SM  H10G 8884   2.542   0.847   5.711  1.3289  1.4149  1.0070
   6823SM  C11F 8885   2.507   0.984   5.547  0.2145 -0.7469 -0.5571
   6823SM  H11F 8886   2.609   1.025   5.559 -0.8817  1.8388  0.7136
   6823SM  H11G 8887   2.444   1.069   5.514  2.4768  0.3591 -2.2782
   6823SM  C12F 8888   2.497   0.887   5.431 -0.8411  0.3668 -0.1792
   6823SM  H12F 8889   2.395   0.843   5.421 -0.4873 -0.1163 -2.0786
   6823SM  H12G 8890   2.566   0.802   5.447  0.8447  1.8482  0.7121
   6823SM  C13F 8891   2.525   0.951   5.294  0.4553  0.2214  1.0259
   6823SM  H13F 8892   2.463   1.043   5.282 -1.1010 -1.0669 -1.8335
   6823SM  H13G 8893   2.480   0.889   5.214 -0.7276 -0.0245  1.8545
   6823SM  C14F 8894   2.673   0.977   5.257 -0.4717 -0.5574  0.0633
   6823SM  H14F 8895   2.740   0.894   5.289  0.7933  0.3101 -0.2434
   6823SM  H14G 8896   2.710   1.069   5.305 -1.9853  0.2989 -0.3660
   6823SM  C15F 8897   2.711   0.993   5.103 -0.1170  0.2616 -0.8499
   6823SM  H15F 8898   2.683   0.890   5.071 -1.0868 -0.0970  0.9976
   6823SM  H15G 8899   2.820   1.003   5.084  0.1845  1.4809  1.1870
   6823SM  C16F 8900   2.622   1.087   5.023 -0.2110 -0.0016  0.3122
   6823SM  H16F 8901   2.534   1.114   5.084 -1.6920  0.2170 -1.8045
   6823SM  H16G 8902   2.578   1.028   4.939 -1.1134 -1.0431  1.4830
   6823SM  C17F 8903   2.680   1.211   4.957  0.7632  0.8582  0.5670
   6823SM  H17F 8904   2.732   1.178   4.865  0.8755  1.6940  0.3229
   6823SM  H17G 8905   2.755   1.263   5.021 -0.0524  1.8328  0.7439
   6823SM  C18F 8906   2.576   1.313   4.914  0.7550  0.6652  0.1807
   6823SM  H18F 8907   2.493   1.251   4.875 -0.0078  0.6922  1.7106
   6823SM  H18G 8908   2.612   1.374   4.827 -0.8833 -1.1431 -1.8729
   6823SM  C19F 8909   2.538   1.418   5.016  0.8436  0.0286  0.5461
   6823SM  H19F 8910   2.633   1.454   5.060  0.8555  0.0200  0.5277
   6823SM  H19G 8911   2.473   1.381   5.098 -0.0875 -2.7139 -1.2746
   6823SM  C20F 8912   2.450   1.526   4.952 -0.6153 -0.1990  0.0081
   6823SM  H20F 8913   2.348   1.483   4.940  0.1950 -3.2126  2.4829
   6823SM  H20G 8914   2.490   1.553   4.853  1.1886  1.9746  1.2476
   6823SM  C21F 8915   2.427   1.645   5.047 -0.3420 -0.8048 -0.4058
   6823SM  H21F 8916   2.398   1.730   4.982  2.3435  1.0848  0.7099
   6823SM  H21G 8917   2.522   1.680   5.091 -0.1224 -0.7907 -0.8898
   6823SM  C22F 8918   2.318   1.624   5.156  0.3807  0.6147  0.4119
   6823SM  H22F 8919   2.352   1.542   5.222 -0.6287 -0.7496 -0.6809
   6823SM  H22G 8920   2.220   1.592   5.113  1.9895  0.0225 -3.1522
   6823SM  C23F 8921   2.291   1.743   5.239 -0.2341  0.1461  1.3417
   6823SM  H23F 8922   2.231   1.729   5.331 -0.7841  0.0866  0.9802
   6823SM  H23G 8923   2.231   1.802   5.166  1.5171 -1.2224 -1.4005
   6823SM  H23H 8924   2.388   1.792   5.263 -0.2248  1.5546 -1.1500
   6923SM     N 8925   4.276   1.741   7.451  0.3836  0.0421  0.4809
   6923SM   C15 8926   4.308   1.889   7.445  0.3432  0.4690  0.1004
   6923SM  H15A 8927   4.318   1.928   7.345 -0.6285 -1.3246 -0.7376
   6923SM  H15B 8928   4.405   1.898   7.492  0.6401 -0.9443 -0.1784
   6923SM  H15C 8929   4.228   1.940   7.495 -0.1758 -1.3069  1.1555
   6923SM   C14 8930   4.391   1.664   7.402 -0.5010 -0.1467 -0.0704
   6923SM  H14A 8931   4.388   1.557   7.404  0.8376 -0.2058  0.0748
   6923SM  H14B 8932   4.478   1.691   7.461  0.8720 -1.5507 -1.3348
   6923SM  H14C 8933   4.427   1.691   7.303 -0.5859 -1.3695 -0.4535
   6923SM   C13 8934   4.255   1.699   7.588  0.3355 -0.5874 -0.1454
   6923SM  H13A 8935   4.340   1.704   7.654 -0.9219 -0.2296  1.4975
   6923SM  H13B 8936   4.236   1.592   7.581  1.6084 -0.7346 -3.2847
   6923SM  H13C 8937   4.171   1.745   7.637  0.9081  0.4298 -0.1063
   6923SM   C12 8938   4.159   1.705   7.369  0.3077  0.0087  0.6703
   6923SM  H12A 8939   4.173   1.734   7.266 -1.3968  1.9461  0.9084
   6923SM  H12B 8940   4.069   1.759   7.397 -1.0676 -2.4001  1.2455
   6923SM   C11 8941   4.105   1.564   7.370 -0.3443  0.1527  0.6659
   6923SM  H11A 8942   4.187   1.491   7.349  0.8318  2.2991 -3.1447
   6923SM  H11B 8943   4.041   1.561   7.280 -0.8337 -1.4714  1.0362
   6923SM     P 8944   4.040   1.399   7.568 -0.6018 -0.3950 -0.6062
   6923SM   O13 8945   4.167   1.408   7.649 -0.2198  0.0784 -0.3317
   6923SM   O14 8946   3.917   1.377   7.646 -0.0871 -0.1014 -0.2881
   6923SM   O11 8947   4.044   1.291   7.455  0.2425 -0.1108  0.6425
   6923SM   O12 8948   4.027   1.535   7.493 -0.3506 -0.6798 -0.0705
   6923SM   C1S 8949   3.938   1.277   7.358 -0.4103 -0.6179  0.3617
   6923SM   H1S 8950   3.876   1.368   7.346 -0.6090 -0.6483  1.0954
   6923SM   H1T 8951   3.875   1.190   7.388 -0.9743 -0.1312  0.6195
   6923SM    NF 8952   3.867   1.223   7.127  0.9455 -0.3679 -0.3503
   6923SM   HNF 8953   3.859   1.132   7.089  1.2050 -0.2316 -0.7298
   6923SM   C2S 8954   3.981   1.258   7.215 -0.2173 -0.1836 -0.4781
   6923SM   H2S 8955   4.021   1.354   7.175  1.3083 -0.4935  0.2086
   6923SM   C3S 8956   4.097   1.163   7.212  0.0205 -0.1253 -0.6760
   6923SM   H3S 8957   4.047   1.070   7.246 -0.2672 -0.2700 -1.4865
   6923SM    O3 8958   4.201   1.176   7.304  0.3554  0.0324  0.0471
   6923SM   HO3 8959   4.173   1.243   7.367  1.0297  0.5314 -0.1573
   6923SM   C4S 8960   4.141   1.134   7.073  0.8869 -0.4277  0.6212
   6923SM   H4S 8961   4.109   1.033   7.042 -0.8758  0.3231 -0.1311
   6923SM   C5S 8962   4.233   1.197   6.999 -0.4767  0.1345  0.3229
   6923SM   H5S 8963   4.290   1.284   7.035  0.4739 -0.8484  1.3076
   6923SM   C6S 8964   4.298   1.165   6.869 -0.2241  0.5839 -0.4506
   6923SM   H6S 8965   4.316   1.056   6.874  2.2592  0.9886  1.3338
   6923SM   H6T 8966   4.400   1.208   6.871  1.6392 -3.4172 -0.8208
   6923SM   C7S 8967   4.216   1.204   6.749 -0.2108  0.8524 -0.1890
   6923SM   H7S 8968   4.168   1.305   6.748 -1.5693  0.2533  0.7784
   6923SM   H7T 8969   4.134   1.129   6.753  0.7009 -0.3824 -2.7094
   6923SM   C8S 8970   4.285   1.199   6.615  0.4260  0.3816 -0.9952
   6923SM   H8S 8971   4.338   1.104   6.593 -2.5553 -1.8502  0.7410
   6923SM   H8T 8972   4.357   1.283   6.604 -0.2798  1.0459 -0.7154
   6923SM   C9S 8973   4.187   1.201   6.494 -0.2579  0.6106  0.3829
   6923SM   H9S 8974   4.127   1.294   6.494  0.6760  1.2929  2.4298
   6923SM   H9T 8975   4.107   1.130   6.524 -0.6557  1.2010  0.7384
   6923SM  C10S 8976   4.251   1.162   6.357 -0.1863 -0.2389 -0.5563
   6923SM  H10S 8977   4.301   1.063   6.364  2.2743  1.0412  1.2148
   6923SM  H10T 8978   4.328   1.242   6.352 -2.3829  2.2097  1.9065
   6923SM  C11S 8979   4.167   1.182   6.232  0.1207  0.2467 -0.4046
   6923SM  H11S 8980   4.091   1.261   6.249 -1.1314 -0.2340 -3.2471
   6923SM  H11T 8981   4.118   1.091   6.192  1.4743  0.1865 -2.0351
   6923SM  C12S 8982   4.259   1.246   6.108 -0.5805  0.5415  0.0571
   6923SM  H12S 8983   4.352   1.191   6.081 -0.6326  1.5490 -2.3841
   6923SM  H12T 8984   4.288   1.349   6.138  0.5958  0.1775  0.2331
   6923SM  C13S 8985   4.178   1.255   5.976 -0.7880  0.0514 -0.0394
   6923SM  H13S 8986   4.114   1.345   5.970 -0.2811  0.3520 -1.2153
   6923SM  H13T 8987   4.124   1.158   5.973  0.4327 -0.6448 -0.1924
   6923SM  C14S 8988   4.277   1.258   5.857  0.8908 -0.7595  0.9056
   6923SM  H14S 8989   4.359   1.187   5.882  1.0045 -1.5510 -1.4579
   6923SM  H14T 8990   4.313   1.362   5.867 -1.0748  0.2926 -1.7507
   6923SM  C15S 8991   4.194   1.244   5.728  0.4381 -0.3723 -0.2589
   6923SM  H15S 8992   4.125   1.331   5.718 -0.4671 -0.7510  2.0145
   6923SM  H15T 8993   4.119   1.163   5.737 -0.0352  0.1628  0.8009
   6923SM  C16S 8994   4.283   1.248   5.600  0.4600 -0.4736  0.4591
   6923SM  H16S 8995   4.221   1.195   5.524  0.1506 -0.5077  0.7335
   6923SM  H16T 8996   4.379   1.195   5.612  0.1742 -0.8161  1.2866
   6923SM  C17S 8997   4.291   1.394   5.547  0.0401 -0.1662 -0.4392
   6923SM  H17S 8998   4.359   1.452   5.613  0.0052  0.1576 -0.6863
   6923SM  H17T 8999   4.192   1.443   5.559  0.3207  0.0896  1.0886
   6923SM  C18S 9000   4.329   1.419   5.406  0.1875 -0.1497  0.0794
   6923SM  H18S 9001   4.269   1.361   5.334  0.1703 -1.1830  0.8989
   6923SM  H18T 9002   4.437   1.399   5.388  0.3482 -0.7467  1.5352
   6923SM  H18U 9003   4.309   1.524   5.379  2.1007  0.6459  1.4694
   6923SM   C1F 9004   3.768   1.307   7.105  0.1052 -0.2001 -0.6018
   6923SM    OF 9005   3.772   1.422   7.148 -0.1005  0.1733 -0.5564
   6923SM   C2F 9006   3.651   1.268   7.016 -0.0906 -0.0999 -0.1668
   6923SM   H2F 9007   3.557   1.303   7.063  0.0420  2.1326 -1.4073
   6923SM   H2G 9008   3.642   1.157   7.022  0.5735 -0.1352  0.3587
   6923SM   C3F 9009   3.670   1.303   6.866 -0.1660  0.6063  0.5490
   6923SM   H3F 9010   3.672   1.414   6.857 -0.6491  0.5731 -0.0225
   6923SM   H3G 9011   3.583   1.268   6.805  1.2084  0.0548 -1.1997
   6923SM   C4F 9012   3.804   1.252   6.806  0.6828 -0.5238 -0.2645
   6923SM   H4F 9013   3.807   1.142   6.825  1.2880 -0.7354 -1.5061
   6923SM   H4G 9014   3.889   1.295   6.864  1.6694 -0.3538 -1.7840
   6923SM   C5F 9015   3.823   1.274   6.654 -0.8413  0.1724 -0.0718
   6923SM   H5F 9016   3.932   1.264   6.636 -0.2723  1.9136  1.9591
   6923SM   H5G 9017   3.806   1.381   6.631  1.6700  0.9120  1.1519
   6923SM   C6F 9018   3.742   1.192   6.558 -0.9935 -0.3684  0.1626
   6923SM   H6F 9019   3.643   1.244   6.555 -0.7521  0.4706  3.0984
   6923SM   H6G 9020   3.731   1.091   6.603  1.9713 -0.4389  0.9244
   6923SM   C7F 9021   3.812   1.197   6.418 -0.1651  0.7057 -0.3917
   6923SM   H7F 9022   3.900   1.129   6.418 -0.3002  0.2561  3.9858
   6923SM   H7G 9023   3.849   1.301   6.405  0.2156  1.1871  3.4195
   6923SM   C8F 9024   3.723   1.151   6.303  0.3059 -0.3968  0.3559
   6923SM   H8F 9025   3.632   1.213   6.285 -0.4469 -1.1616  1.3658
   6923SM   H8G 9026   3.683   1.051   6.329  2.1730 -1.3438 -0.2466
   6923SM   C9F 9027   3.805   1.127   6.173 -0.2506 -0.2030 -0.2835
   6923SM   H9F 9028   3.886   1.055   6.197 -0.0290  0.1953  0.1923
   6923SM   H9G 9029   3.848   1.225   6.143  0.2605 -0.4404 -0.3272
   6923SM  C10F 9030   3.720   1.075   6.059  0.3711 -0.5991 -0.5745
   6923SM  H10F 9031   3.645   1.151   6.030  1.3649  0.0660 -1.5054
   6923SM  H10G 9032   3.674   0.980   6.094  1.6886 -0.4678  1.6751
   6923SM  C11F 9033   3.794   1.048   5.928  0.2035 -0.3009  0.1847
   6923SM  H11F 9034   3.829   1.138   5.874 -0.9040 -0.6237 -1.1397
   6923SM  H11G 9035   3.716   1.006   5.860 -0.7844  0.7282  0.6386
   6923SM  C12F 9036   3.907   0.943   5.922 -0.3551 -0.2222 -0.2874
   6923SM  H12F 9037   3.872   0.855   5.980 -0.7950 -0.9059 -1.5477
   6923SM  H12G 9038   4.001   0.954   5.980  0.6984 -2.6947 -1.4114
   6923SM  C13F 9039   3.929   0.908   5.779 -0.0267 -0.1169 -0.2088
   6923SM  H13F 9040   3.924   1.002   5.720  0.6248  0.1574  0.1578
   6923SM  H13G 9041   3.854   0.836   5.742 -1.2347  0.7856  0.4189
   6923SM  C14F 9042   4.068   0.849   5.746  0.7433 -0.0345 -0.3400
   6923SM  H14F 9043   4.088   0.757   5.806 -0.6845  0.7589  1.4161
   6923SM  H14G 9044   4.143   0.929   5.764  0.4875 -0.0221  0.7275
   6923SM  C15F 9045   4.083   0.806   5.600 -0.0006  0.2018  0.4393
   6923SM  H15F 9046   4.013   0.722   5.578 -1.4798  1.6637 -0.6822
   6923SM  H15G 9047   4.184   0.762   5.586 -0.0136 -0.0556  1.0917
   6923SM  C16F 9048   4.040   0.905   5.499  0.1405 -0.3123  0.1080
   6923SM  H16F 9049   4.088   1.003   5.517  0.9784 -0.8022  0.6218
   6923SM  H16G 9050   3.929   0.911   5.510  0.2793 -1.4158  3.2635
   6923SM  C17F 9051   4.068   0.852   5.357  0.1374 -0.2382 -0.3782
   6923SM  H17F 9052   4.008   0.759   5.346 -1.1227  0.2798  1.5774
   6923SM  H17G 9053   4.178   0.841   5.348  0.7120  1.7743  2.5681
   6923SM  C18F 9054   4.029   0.973   5.262  0.2630 -0.0418 -0.2146
   6923SM  H18F 9055   4.063   1.070   5.304 -2.6089  0.9359  0.1001
   6923SM  H18G 9056   3.920   0.973   5.283  0.1556  0.0998 -0.7541
   6923SM  C19F 9057   4.052   0.966   5.113 -0.6252  0.8629 -0.6752
   6923SM  H19F 9058   3.969   1.001   5.048  1.1529  1.7163 -2.5954
   6923SM  H19G 9059   4.064   0.856   5.107  1.6938  1.0965 -1.2054
   6923SM  C20F 9060   4.172   1.042   5.055  0.1840  0.0264  0.1204
   6923SM  H20F 9061   4.164   1.145   5.095 -0.9065 -0.1291  0.3222
   6923SM  H20G 9062   4.171   1.051   4.945 -0.8775 -0.3362  0.0953
   6923SM  C21F 9063   4.305   0.981   5.098  0.2253  0.7196 -0.1281
   6923SM  H21F 9064   4.382   0.993   5.018  0.2499 -0.7704 -0.3517
   6923SM  H21G 9065   4.292   0.874   5.125  0.5663  0.8336  0.5051
   6923SM  C22F 9066   4.369   1.037   5.235  0.1692 -0.3636 -0.7892
   6923SM  H22F 9067   4.299   1.042   5.321 -0.8668  1.6571 -1.6938
   6923SM  H22G 9068   4.397   1.140   5.207 -0.0949 -0.0912 -0.0741
   6923SM  C23F 9069   4.491   0.961   5.284 -0.0290 -0.3632  0.3514
   6923SM  H23F 9070   4.477   0.853   5.307  0.0202 -0.6249 -0.8001
   6923SM  H23G 9071   4.546   1.009   5.367  0.9867 -0.1371 -0.4345
   6923SM  H23H 9072   4.565   0.958   5.202 -1.4339 -0.2000 -0.9675
   7023SM     N 9073   3.329   7.134   7.079  0.1439  0.0125 -0.2847
   7023SM   C15 9074   3.363   7.098   6.931 -0.5175 -0.4389 -0.1439
   7023SM  H15A 9075   3.276   7.056   6.882 -1.9002  1.0208  0.9732
   7023SM  H15B 9076   3.434   7.018   6.939 -0.4200 -0.3696 -0.3196
   7023SM  H15C 9077   3.415   7.177   6.879  0.7270 -0.9018  0.3668
   7023SM   C14 9078   3.194   7.200   7.072  0.7981 -0.8747  0.1151
   7023SM  H14A 9079   3.211   7.295   7.023 -2.5761  0.8079  1.8752
   7023SM  H14B 9080   3.154   7.210   7.172 -0.4737  0.3003 -0.4759
   7023SM  H14C 9081   3.127   7.141   7.011  1.8138 -2.5913  0.5935
   7023SM   C13 9082   3.320   7.012   7.162  1.1226  1.0139 -0.4327
   7023SM  H13A 9083   3.303   7.026   7.268  1.3745  4.2435 -0.7281
   7023SM  H13B 9084   3.404   6.944   7.163 -0.5873 -1.2609 -0.3194
   7023SM  H13C 9085   3.239   6.948   7.128  0.7089  1.2915  0.0131
   7023SM   C12 9086   3.437   7.217   7.134 -0.5189 -0.1767 -0.4329
   7023SM  H12A 9087   3.517   7.150   7.162  0.6438  2.0840  2.0742
   7023SM  H12B 9088   3.410   7.256   7.231  0.1147  2.3353 -1.2027
   7023SM   C11 9089   3.492   7.333   7.048  0.2382  0.8536 -0.1315
   7023SM  H11A 9090   3.547   7.295   6.959 -1.9616  0.1771 -1.2819
   7023SM  H11B 9091   3.573   7.383   7.104 -0.8886  0.8944  1.5262
   7023SM     P 9092   3.415   7.540   6.921 -0.2606 -0.1484  0.0914
   7023SM   O13 9093   3.284   7.613   6.900 -0.0988  0.5986 -0.4533
   7023SM   O14 9094   3.530   7.618   6.979 -0.1040  0.3631  0.2970
   7023SM   O11 9095   3.454   7.462   6.787  0.1175 -0.3726 -0.0051
   7023SM   O12 9096   3.388   7.426   7.015  0.5431  0.4596 -0.4053
   7023SM   C1S 9097   3.512   7.540   6.683 -0.4444 -0.5725  0.4027
   7023SM   H1S 9098   3.588   7.612   6.719 -0.9465  0.9326 -1.3652
   7023SM   H1T 9099   3.435   7.596   6.627 -1.7089 -1.1170  1.5279
   7023SM    NF 9100   3.612   7.537   6.457  0.0874 -0.5320  0.5793
   7023SM   HNF 9101   3.548   7.526   6.381 -1.2258 -0.8137  1.6689
   7023SM   C2S 9102   3.584   7.453   6.575  0.1528  0.0032 -0.7118
   7023SM   H2S 9103   3.679   7.424   6.625 -0.3288  1.4315  1.1194
   7023SM   C3S 9104   3.501   7.317   6.550 -0.1224  0.4441 -0.8220
   7023SM   H3S 9105   3.399   7.345   6.514 -0.2338  0.9444 -0.1330
   7023SM    O3 9106   3.481   7.247   6.668  0.6153  0.0976  0.0588
   7023SM   HO3 9107   3.503   7.314   6.733 -2.4533  1.0647  0.2639
   7023SM   C4S 9108   3.573   7.234   6.448  0.2407  0.6595 -0.0754
   7023SM   H4S 9109   3.532   7.258   6.349 -1.0557 -0.7380  0.0763
   7023SM   C5S 9110   3.684   7.156   6.455  0.9357 -0.1971 -0.2628
   7023SM   H5S 9111   3.733   7.143   6.553  1.0525 -0.4096 -0.3491
   7023SM   C6S 9112   3.761   7.099   6.339  0.1689 -0.4515  0.3907
   7023SM   H6S 9113   3.775   6.989   6.347 -0.2075 -0.4753  0.7888
   7023SM   H6T 9114   3.860   7.146   6.356 -0.1320  0.2131  0.3443
   7023SM   C7S 9115   3.734   7.149   6.194  0.3850 -0.4048 -0.1761
   7023SM   H7S 9116   3.730   7.260   6.200 -3.6629 -0.1432 -3.1213
   7023SM   H7T 9117   3.635   7.102   6.177 -0.0693  1.0191 -1.8694
   7023SM   C8S 9118   3.836   7.102   6.098  0.0093 -0.3242  0.4807
   7023SM   H8S 9119   3.848   6.992   6.106  1.5817 -0.0934  1.7117
   7023SM   H8T 9120   3.930   7.152   6.129 -1.3336  1.5488  1.7514
   7023SM   C9S 9121   3.805   7.139   5.950  0.0542 -0.3035 -0.8551
   7023SM   H9S 9122   3.699   7.113   5.929  0.0912 -2.6973  1.3694
   7023SM   H9T 9123   3.873   7.089   5.877  1.7234  0.8069 -0.1346
   7023SM  C10S 9124   3.840   7.281   5.917 -0.2803 -0.1537 -0.3856
   7023SM  H10S 9125   3.943   7.297   5.956 -0.1797  0.6008 -0.9332
   7023SM  H10T 9126   3.767   7.353   5.958 -0.1145  1.3000 -2.4602
   7023SM  C11S 9127   3.841   7.310   5.765 -0.2337 -0.2042  0.1172
   7023SM  H11S 9128   3.922   7.240   5.734 -0.3875 -0.2230 -0.2492
   7023SM  H11T 9129   3.871   7.415   5.746 -0.4657  0.1795  1.7401
   7023SM  C12S 9130   3.717   7.278   5.682 -0.4198  0.1240 -0.0431
   7023SM  H12S 9131   3.630   7.326   5.733  1.1757  3.2668 -0.0747
   7023SM  H12T 9132   3.696   7.169   5.676  2.1527 -0.5930  2.2209
   7023SM  C13S 9133   3.721   7.325   5.539  0.6474 -0.3696 -0.1591
   7023SM  H13S 9134   3.768   7.426   5.533 -0.6958  0.3794  1.1220
   7023SM  H13T 9135   3.621   7.338   5.491  0.1548  0.4803  1.0235
   7023SM  C14S 9136   3.805   7.236   5.453  0.2278  0.2031  0.0315
   7023SM  H14S 9137   3.756   7.136   5.453  0.6197 -0.0130  1.3530
   7023SM  H14T 9138   3.902   7.207   5.498  0.3942  0.7666  0.0418
   7023SM  C15S 9139   3.826   7.281   5.309 -0.3313  0.2045 -0.6282
   7023SM  H15S 9140   3.870   7.206   5.240  2.3779  0.4513  0.6895
   7023SM  H15T 9141   3.899   7.366   5.307 -0.1671  0.0714 -0.3022
   7023SM  C16S 9142   3.701   7.329   5.237  0.5213 -1.0798 -0.0742
   7023SM  H16S 9143   3.669   7.426   5.281 -0.5856 -1.6110  0.3162
   7023SM  H16T 9144   3.613   7.262   5.248 -1.1159  0.9090 -0.4996
   7023SM  C17S 9145   3.720   7.345   5.082  0.3964  0.4943 -0.0839
   7023SM  H17S 9146   3.819   7.387   5.052  1.2773 -1.8097 -0.5668
   7023SM  H17T 9147   3.648   7.425   5.052  0.7676  0.3119 -1.5412
   7023SM  C18S 9148   3.684   7.222   5.007 -0.3334  0.1976 -0.7313
   7023SM  H18S 9149   3.581   7.185   5.027  0.5744 -0.8975  2.3950
   7023SM  H18T 9150   3.740   7.138   5.053  2.2835  1.6861 -1.0075
   7023SM  H18U 9151   3.722   7.223   4.902 -0.5779 -1.8166 -0.8687
   7023SM   C1F 9152   3.688   7.647   6.466 -0.5434  0.1938  0.4777
   7023SM    OF 9153   3.765   7.648   6.556 -0.4430 -0.5575  0.2601
   7023SM   C2F 9154   3.659   7.757   6.372  0.2892  0.0685  0.1592
   7023SM   H2F 9155   3.549   7.771   6.368  0.5128  2.3759  0.6378
   7023SM   H2G 9156   3.721   7.746   6.281  1.0675  2.8342  0.2576
   7023SM   C3F 9157   3.708   7.889   6.438 -0.0853 -0.1334 -0.0672
   7023SM   H3F 9158   3.812   7.867   6.472 -0.4561 -1.7162  0.1168
   7023SM   H3G 9159   3.649   7.901   6.531 -1.7504 -0.8460 -0.9927
   7023SM   C4F 9160   3.711   8.012   6.344  0.0217  0.6817  0.1362
   7023SM   H4F 9161   3.774   7.986   6.256  0.0363 -0.0907  0.3695
   7023SM   H4G 9162   3.778   8.092   6.381  1.0933  0.3299 -0.9831
   7023SM   C5F 9163   3.576   8.072   6.307 -0.2095 -0.6507 -0.3711
   7023SM   H5F 9164   3.516   8.104   6.395  1.6872 -0.4509  0.9114
   7023SM   H5G 9165   3.510   8.006   6.247 -0.8863  1.0601 -1.5705
   7023SM   C6F 9166   3.589   8.199   6.219  0.0900 -0.6925 -0.3194
   7023SM   H6F 9167   3.651   8.266   6.283 -0.9110 -0.8853  0.8938
   7023SM   H6G 9168   3.491   8.251   6.210  1.3173  1.9438  0.3842
   7023SM   C7F 9169   3.647   8.185   6.075 -0.2033  0.6376 -0.3197
   7023SM   H7F 9170   3.718   8.099   6.072 -1.5390 -0.5031 -0.5082
   7023SM   H7G 9171   3.699   8.274   6.034 -1.5888  1.0790 -1.1990
   7023SM   C8F 9172   3.538   8.149   5.970  0.1871 -0.0537 -0.4145
   7023SM   H8F 9173   3.457   8.224   5.982 -0.7166 -1.3631  2.6714
   7023SM   H8G 9174   3.494   8.050   5.995  0.1328 -0.2579 -1.2706
   7023SM   C9F 9175   3.582   8.140   5.830  0.1639 -0.2881  0.3029
   7023SM   H9F 9176   3.618   8.241   5.802 -1.4803  0.4739  0.8387
   7023SM   H9G 9177   3.496   8.119   5.763 -0.9653  0.0345  1.6026
   7023SM  C10F 9178   3.700   8.041   5.801  0.0911 -0.0724  0.0569
   7023SM  H10F 9179   3.669   7.936   5.820 -1.9231  0.6293  0.8834
   7023SM  H10G 9180   3.783   8.067   5.870  0.0105  1.7336 -0.4767
   7023SM  C11F 9181   3.757   8.037   5.660 -0.0700 -0.5559  0.5432
   7023SM  H11F 9182   3.687   7.962   5.615  1.1496 -1.0362 -0.6137
   7023SM  H11G 9183   3.861   8.000   5.671  0.6390  0.3583 -2.2443
   7023SM  C12F 9184   3.754   8.168   5.587  0.9631  0.2179 -0.2846
   7023SM  H12F 9185   3.806   8.246   5.648 -1.5352  2.1225 -0.4468
   7023SM  H12G 9186   3.653   8.212   5.579 -0.5137 -2.5454  1.4663
   7023SM  C13F 9187   3.810   8.163   5.441  0.1854 -0.7599 -0.2688
   7023SM  H13F 9188   3.788   8.064   5.397 -0.2002 -0.4924 -0.6789
   7023SM  H13G 9189   3.920   8.181   5.442  0.1455 -0.2524 -1.7861
   7023SM  C14F 9190   3.741   8.260   5.340 -0.3655 -0.8666 -0.3399
   7023SM  H14F 9191   3.722   8.359   5.385 -2.7251 -0.6284 -1.6811
   7023SM  H14G 9192   3.635   8.230   5.321 -0.5043 -0.0435 -0.9263
   7023SM  C15F 9193   3.814   8.280   5.204  0.2702 -0.2457 -0.6577
   7023SM  H15F 9194   3.888   8.200   5.188  2.2360  0.7631  2.5263
   7023SM  H15G 9195   3.865   8.379   5.213  1.3404 -0.8329 -0.1802
   7023SM  C16F 9196   3.721   8.286   5.085 -0.1753 -0.2646  0.1852
   7023SM  H16F 9197   3.634   8.353   5.102 -0.4011 -0.8910  1.6021
   7023SM  H16G 9198   3.663   8.191   5.081 -1.5937  0.5700  0.1750
   7023SM  C17F 9199   3.806   8.283   4.954 -0.1178 -0.4658  0.1659
   7023SM  H17F 9200   3.769   8.204   4.887  1.4394 -0.5503 -0.6428
   7023SM  H17G 9201   3.904   8.245   4.991  0.7395  0.5033 -1.0269
   7023SM  C18F 9202   3.829   8.421   4.880 -0.2104  0.3376  0.8075
   7023SM  H18F 9203   3.832   8.498   4.960  1.8384  1.4528 -0.2542
   7023SM  H18G 9204   3.744   8.452   4.815  2.7730  2.2079 -2.6309
   7023SM  C19F 9205   3.959   8.432   4.799 -0.1552  0.0933  0.1473
   7023SM  H19F 9206   4.043   8.393   4.860  0.5567  0.0239 -0.8498
   7023SM  H19G 9207   3.982   8.533   4.759 -2.6372  1.1386  1.1095
   7023SM  C20F 9208   3.947   8.337   4.675  0.6223  0.4259  0.5887
   7023SM  H20F 9209   3.918   8.235   4.711  0.3686 -0.4277 -1.8763
   7023SM  H20G 9210   4.048   8.324   4.632 -0.0255  2.0971 -1.5656
   7023SM  C21F 9211   3.849   8.369   4.561  0.4169 -0.5535 -0.4225
   7023SM  H21F 9212   3.881   8.460   4.507 -0.1933 -0.6915 -1.0235
   7023SM  H21G 9213   3.746   8.377   4.601  0.9729 -2.5033  1.5983
   7023SM  C22F 9214   3.832   8.265   4.452 -0.5822 -0.1369  0.3417
   7023SM  H22F 9215   3.813   8.163   4.494  1.0841 -2.2287 -3.4393
   7023SM  H22G 9216   3.923   8.250   4.390  0.1675 -0.4619  1.4869
   7023SM  C23F 9217   3.713   8.298   4.363  0.1226  0.8383 -0.0138
   7023SM  H23F 9218   3.724   8.395   4.310  1.8381  0.1847 -0.8997
   7023SM  H23G 9219   3.613   8.298   4.412 -0.2427  0.7713 -0.7430
   7023SM  H23H 9220   3.709   8.215   4.289  0.5652  0.0469  0.8263
   7123SM     N 9221   4.284   7.347   7.081  0.2132  0.1963 -0.2762
   7123SM   C15 9222   4.393   7.356   6.982  0.4413 -0.2576  0.1986
   7123SM  H15A 9223   4.469   7.411   7.036 -3.1488  2.3793  3.1263
   7123SM  H15B 9224   4.366   7.412   6.894  2.1421  2.0007  0.9955
   7123SM  H15C 9225   4.427   7.256   6.961  1.0510 -0.1504  0.6246
   7123SM   C14 9226   4.329   7.266   7.203  0.4126 -0.1641  0.1034
   7123SM  H14A 9227   4.351   7.163   7.178  1.9827  0.4081 -1.0436
   7123SM  H14B 9228   4.250   7.264   7.277  0.4171 -2.9017  0.1482
   7123SM  H14C 9229   4.426   7.300   7.234 -0.0798 -0.6095  2.2970
   7123SM   C13 9230   4.249   7.488   7.130 -0.1904 -0.0324  0.3187
   7123SM  H13A 9231   4.229   7.558   7.051  1.0185  0.4044  0.3723
   7123SM  H13B 9232   4.333   7.527   7.186  0.6665  2.2619 -2.3293
   7123SM  H13C 9233   4.164   7.481   7.196  0.0097 -1.5837  0.4441
   7123SM   C12 9234   4.161   7.287   7.022  0.2802  0.3793 -0.4483
   7123SM  H12A 9235   4.132   7.357   6.945  3.6334 -0.2135 -2.4530
   7123SM  H12B 9236   4.085   7.276   7.098  1.0316 -1.0066  0.1392
   7123SM   C11 9237   4.170   7.150   6.952 -0.7876  0.6616 -0.4974
   7123SM  H11A 9238   4.246   7.158   6.871  0.4972 -0.9222  0.4916
   7123SM  H11B 9239   4.075   7.130   6.897 -1.7077  1.0104  0.8984
   7123SM     P 9240   4.081   6.941   7.095 -0.0640  0.0780  0.4958
   7123SM   O13 9241   4.141   6.829   7.163  0.2019  0.0083 -0.1169
   7123SM   O14 9242   3.980   7.012   7.173  0.6340 -0.0199 -0.4689
   7123SM   O11 9243   4.018   6.884   6.954  0.4105 -0.3128 -0.0146
   7123SM   O12 9244   4.198   7.043   7.042  0.2731  0.0084 -0.1671
   7123SM   C1S 9245   4.083   6.770   6.888  0.3149 -0.2948 -0.2262
   7123SM   H1S 9246   4.051   6.676   6.937  1.4968 -0.3543  0.4556
   7123SM   H1T 9247   4.194   6.766   6.889  0.4340  1.2293 -1.8978
   7123SM    NF 9248   4.086   6.621   6.681  0.9195 -0.5873  0.0643
   7123SM   HNF 9249   4.176   6.631   6.640  0.3011  1.2434 -0.9670
   7123SM   C2S 9250   4.028   6.742   6.742 -0.1665  0.5457 -0.0404
   7123SM   H2S 9251   3.917   6.741   6.746 -0.1960  1.5605 -0.3675
   7123SM   C3S 9252   4.059   6.868   6.649 -0.4429  0.6343  0.0061
   7123SM   H3S 9253   4.168   6.887   6.641  0.4145 -3.2802  0.3040
   7123SM    O3 9254   4.000   6.988   6.697  0.3554 -0.4444 -0.0669
   7123SM   HO3 9255   3.980   6.970   6.789  1.0628 -0.0649  0.1700
   7123SM   C4S 9256   4.004   6.845   6.506 -0.2480 -0.1600  0.7749
   7123SM   H4S 9257   3.905   6.798   6.491 -0.2500  0.9050 -4.1077
   7123SM   C5S 9258   4.071   6.880   6.396  0.0479  0.1780  0.4260
   7123SM   H5S 9259   4.166   6.936   6.402  0.0848  0.2161 -0.3796
   7123SM   C6S 9260   4.032   6.837   6.258  0.2522  0.3707 -0.0608
   7123SM   H6S 9261   4.052   6.915   6.181  0.5129 -0.1066 -0.4808
   7123SM   H6T 9262   3.928   6.801   6.247  0.1246  0.6935  0.0646
   7123SM   C7S 9263   4.125   6.723   6.217 -0.0949  0.2914  0.4700
   7123SM   H7S 9264   4.119   6.625   6.268  0.3433 -0.9694 -1.7652
   7123SM   H7T 9265   4.229   6.753   6.243 -0.3647  0.9393  0.8425
   7123SM   C8S 9266   4.133   6.708   6.060 -0.0455  0.1762 -0.3219
   7123SM   H8S 9267   4.234   6.670   6.034 -0.4660  0.4067 -2.4507
   7123SM   H8T 9268   4.131   6.811   6.018 -1.2082  0.9978  1.5628
   7123SM   C9S 9269   4.007   6.636   5.996  0.2500  0.2004  0.3198
   7123SM   H9S 9270   4.012   6.655   5.887  0.4008  0.3306  0.3489
   7123SM   H9T 9271   3.917   6.680   6.045 -0.6331 -1.5009  0.3027
   7123SM  C10S 9272   4.015   6.490   6.031 -0.4428 -0.0934  0.2760
   7123SM  H10S 9273   4.059   6.480   6.133  0.2782  0.0306 -0.0158
   7123SM  H10T 9274   4.079   6.441   5.954 -0.6269 -1.4122  0.9361
   7123SM  C11S 9275   3.875   6.424   6.026  0.3163  0.2810 -0.4067
   7123SM  H11S 9276   3.887   6.318   6.059 -1.9192  0.4736  1.2935
   7123SM  H11T 9277   3.837   6.429   5.922 -0.6673  0.1127 -0.0631
   7123SM  C12S 9278   3.762   6.474   6.116  0.1433  0.2418  0.8806
   7123SM  H12S 9279   3.664   6.422   6.104  0.0006  0.1655  2.2888
   7123SM  H12T 9280   3.737   6.579   6.087  1.8354  0.8382  1.4791
   7123SM  C13S 9281   3.792   6.481   6.261 -0.5279 -0.4841  0.5451
   7123SM  H13S 9282   3.710   6.526   6.321 -1.4378  0.2170 -1.1807
   7123SM  H13T 9283   3.878   6.551   6.272 -1.1016  0.6270 -1.5642
   7123SM  C14S 9284   3.808   6.345   6.323  0.1393  0.1772 -0.2474
   7123SM  H14S 9285   3.895   6.292   6.279 -0.5240 -1.3641  0.2163
   7123SM  H14T 9286   3.722   6.282   6.293 -0.5223  0.7936  0.3234
   7123SM  C15S 9287   3.789   6.350   6.480 -0.1299  0.8788  0.4038
   7123SM  H15S 9288   3.699   6.413   6.498 -1.5590 -0.7623 -0.7419
   7123SM  H15T 9289   3.873   6.411   6.520  0.4728 -0.6896  1.6322
   7123SM  C16S 9290   3.784   6.210   6.551  0.4551 -0.0674  0.8390
   7123SM  H16S 9291   3.873   6.146   6.530  0.3716  0.0593  0.0772
   7123SM  H16T 9292   3.704   6.150   6.503 -0.9262  1.7670  0.7639
   7123SM  C17S 9293   3.773   6.236   6.704  0.0307  0.5214 -0.3150
   7123SM  H17S 9294   3.697   6.315   6.721 -0.3850  0.1439 -0.4087
   7123SM  H17T 9295   3.871   6.255   6.754  0.6842 -1.6412 -0.6589
   7123SM  C18S 9296   3.720   6.105   6.770 -0.6537  0.4614  1.0481
   7123SM  H18S 9297   3.649   6.062   6.696  1.8139 -1.6244 -0.2856
   7123SM  H18T 9298   3.669   6.129   6.866 -1.7159 -0.0349  0.6284
   7123SM  H18U 9299   3.807   6.039   6.792  1.0625  2.7126  1.3667
   7123SM   C1F 9300   4.065   6.494   6.734 -0.7708 -0.1995  0.4647
   7123SM    OF 9301   3.969   6.480   6.809  0.6105  0.1706 -0.5084
   7123SM   C2F 9302   4.167   6.379   6.715  0.0317  0.4528  0.3246
   7123SM   H2F 9303   4.104   6.287   6.718  1.1554 -0.3371  0.2803
   7123SM   H2G 9304   4.241   6.382   6.798 -1.4193  1.6807  1.6224
   7123SM   C3F 9305   4.241   6.383   6.580 -1.2569  0.3838 -0.4534
   7123SM   H3F 9306   4.311   6.297   6.575 -2.1944 -0.3532 -1.5067
   7123SM   H3G 9307   4.306   6.473   6.579  0.6721 -0.8709  1.5725
   7123SM   C4F 9308   4.154   6.363   6.453  0.1512  0.0431 -0.5613
   7123SM   H4F 9309   4.102   6.454   6.416 -0.7133 -0.4903 -0.6982
   7123SM   H4G 9310   4.063   6.308   6.486 -0.9733  1.6636 -0.8687
   7123SM   C5F 9311   4.220   6.287   6.339 -0.5621  0.2726  0.1722
   7123SM   H5F 9312   4.148   6.235   6.272 -0.7786  0.7991 -0.0118
   7123SM   H5G 9313   4.287   6.205   6.372  0.9711  2.2203  2.2732
   7123SM   C6F 9314   4.307   6.381   6.260  0.0338 -0.1329 -0.0854
   7123SM   H6F 9315   4.370   6.439   6.330  2.0114 -0.0452 -1.8466
   7123SM   H6G 9316   4.249   6.455   6.202 -0.1186 -0.0850  0.1257
   7123SM   C7F 9317   4.389   6.310   6.162 -0.3530  0.3513  0.0575
   7123SM   H7F 9318   4.450   6.229   6.208 -0.4757 -0.3441 -0.9633
   7123SM   H7G 9319   4.469   6.379   6.126  0.8243 -1.1149 -0.2522
   7123SM   C8F 9320   4.325   6.257   6.028  0.0754  0.4217  0.1622
   7123SM   H8F 9321   4.258   6.329   5.977  1.1568 -0.6388 -3.0781
   7123SM   H8G 9322   4.274   6.162   6.053 -0.6469  0.9655  0.8057
   7123SM   C9F 9323   4.435   6.220   5.920  0.2474 -0.4703 -0.5198
   7123SM   H9F 9324   4.518   6.165   5.970 -0.1650  0.0324  0.7784
   7123SM   H9G 9325   4.468   6.321   5.887 -0.4739  1.3672  3.7079
   7123SM  C10F 9326   4.379   6.155   5.791 -0.1515  0.2856 -0.0559
   7123SM  H10F 9327   4.309   6.229   5.747  1.3403  2.4181  1.0203
   7123SM  H10G 9328   4.323   6.063   5.820 -1.0312  1.1488  1.0810
   7123SM  C11F 9329   4.486   6.118   5.684 -0.0241  0.1667 -0.1880
   7123SM  H11F 9330   4.573   6.100   5.750 -0.0179  0.7465 -0.0233
   7123SM  H11G 9331   4.514   6.210   5.628  3.4565 -0.7940 -0.2227
   7123SM  C12F 9332   4.451   6.002   5.594 -0.1954 -0.9679  1.0133
   7123SM  H12F 9333   4.431   5.908   5.650 -0.9284 -1.1858  0.4119
   7123SM  H12G 9334   4.533   5.982   5.522  1.1755 -0.4079  2.3790
   7123SM  C13F 9335   4.330   6.041   5.507 -0.0196  0.2799 -0.1477
   7123SM  H13F 9336   4.341   6.142   5.462 -1.4698  0.5557  0.0773
   7123SM  H13G 9337   4.239   6.047   5.570 -1.6736  1.3557 -2.5060
   7123SM  C14F 9338   4.309   5.958   5.383  0.3017  0.0727  0.4877
   7123SM  H14F 9339   4.407   5.959   5.331  0.2952 -1.9497  0.3482
   7123SM  H14G 9340   4.229   6.012   5.329  1.9812  1.3007 -0.8848
   7123SM  C15F 9341   4.278   5.808   5.406 -0.0761  0.0149  0.3957
   7123SM  H15F 9342   4.213   5.783   5.493  0.4601 -2.3049  0.1798
   7123SM  H15G 9343   4.376   5.771   5.442 -0.2787 -0.1618  0.7675
   7123SM  C16F 9344   4.232   5.736   5.277  0.3725 -0.4627  0.0497
   7123SM  H16F 9345   4.303   5.759   5.195 -0.7931  1.2955 -0.5290
   7123SM  H16G 9346   4.125   5.754   5.251  0.4558 -1.4642 -1.0918
   7123SM  C17F 9347   4.250   5.585   5.298  0.4580 -0.0220 -0.4772
   7123SM  H17F 9348   4.202   5.538   5.386 -0.3620  1.4147 -0.1338
   7123SM  H17G 9349   4.359   5.571   5.312 -0.0703 -1.4241  3.1672
   7123SM  C18F 9350   4.194   5.488   5.184  0.2757  0.4367  0.0215
   7123SM  H18F 9351   4.083   5.496   5.194  0.2839  2.8822 -1.0044
   7123SM  H18G 9352   4.224   5.385   5.211  1.7855  0.9904  0.5778
   7123SM  C19F 9353   4.238   5.530   5.042  0.4925  0.0573  0.4206
   7123SM  H19F 9354   4.348   5.545   5.044  0.2365  3.0574 -1.7562
   7123SM  H19G 9355   4.195   5.628   5.011 -1.5594 -0.6968  0.6947
   7123SM  C20F 9356   4.203   5.439   4.926  0.0817  0.0764 -0.0952
   7123SM  H20F 9357   4.223   5.501   4.835 -2.0449  2.3729  0.8904
   7123SM  H20G 9358   4.096   5.408   4.923 -0.1170  0.7207  0.0899
   7123SM  C21F 9359   4.286   5.307   4.922 -1.0306 -0.0877 -0.1893
   7123SM  H21F 9360   4.266   5.257   5.019  1.0436  0.2081  0.4424
   7123SM  H21G 9361   4.394   5.333   4.922 -0.7728 -1.0139  1.4837
   7123SM  C22F 9362   4.255   5.212   4.807 -0.7132  0.5441  0.0645
   7123SM  H22F 9363   4.144   5.205   4.809 -0.7948  1.6086 -0.4121
   7123SM  H22G 9364   4.290   5.109   4.830  0.3777  0.6901 -0.9040
   7123SM  C23F 9365   4.313   5.266   4.676  0.2608  0.1472 -0.0409
   7123SM  H23F 9366   4.319   5.180   4.605  1.3184 -0.2982  0.5613
   7123SM  H23G 9367   4.417   5.305   4.686 -0.2938  1.7055  0.0093
   7123SM  H23H 9368   4.247   5.338   4.623 -0.6323 -2.2711 -2.4477
   7223SM     N 9369   6.618   1.337   6.806  0.5704  0.2254 -0.2122
   7223SM   C15 9370   6.679   1.213   6.864  0.3440  0.2326 -1.0793
   7223SM  H15A 9371   6.603   1.149   6.906 -0.3467  1.6659 -0.0506
   7223SM  H15B 9372   6.742   1.236   6.949 -0.0467 -0.5245 -0.5750
   7223SM  H15C 9373   6.731   1.152   6.792  0.8556 -0.9557  0.2599
   7223SM   C14 9374   6.729   1.408   6.733  0.1914 -0.2951 -0.1771
   7223SM  H14A 9375   6.758   1.352   6.646 -1.7058 -0.7230 -0.5946
   7223SM  H14B 9376   6.822   1.426   6.786 -0.4182 -0.1057  0.8691
   7223SM  H14C 9377   6.693   1.505   6.702 -1.5516 -0.2805  1.6599
   7223SM   C13 9378   6.509   1.303   6.715 -0.0747 -0.3129  0.2748
   7223SM  H13A 9379   6.421   1.266   6.765  2.6375 -3.9963  2.8965
   7223SM  H13B 9380   6.531   1.229   6.640 -3.5074 -1.2141 -0.0181
   7223SM  H13C 9381   6.475   1.388   6.658 -0.5357 -0.4641  0.3208
   7223SM   C12 9382   6.579   1.433   6.915 -0.3918  0.1551  0.2064
   7223SM  H12A 9383   6.663   1.443   6.982  0.9374 -1.0522 -1.2097
   7223SM  H12B 9384   6.502   1.381   6.970  0.2401 -1.8151 -0.6793
   7223SM   C11 9385   6.529   1.570   6.873 -0.1938  0.0413 -0.5238
   7223SM  H11A 9386   6.611   1.629   6.824 -0.0073 -0.6478 -1.0519
   7223SM  H11B 9387   6.510   1.627   6.966 -1.9812 -0.6171 -0.4542
   7223SM     P 9388   6.375   1.704   6.718  0.3126 -0.0486 -0.2541
   7223SM   O13 9389   6.223   1.717   6.738 -0.5211 -0.2323 -0.6545
   7223SM   O14 9390   6.459   1.821   6.756  0.0700  0.7029  0.4354
   7223SM   O11 9391   6.404   1.675   6.566 -0.2205 -0.0641  0.0693
   7223SM   O12 9392   6.415   1.570   6.790  0.0155 -0.3336  0.3845
   7223SM   C1S 9393   6.298   1.673   6.467  0.3429 -0.5048  0.7144
   7223SM   H1S 9394   6.239   1.767   6.467 -2.1509 -2.0022  1.0806
   7223SM   H1T 9395   6.226   1.590   6.485  0.2778 -0.6062  0.0097
   7223SM    NF 9396   6.213   1.664   6.235  0.3729  0.3191 -0.1050
   7223SM   HNF 9397   6.177   1.577   6.202  0.2323  0.3154  0.0600
   7223SM   C2S 9398   6.332   1.645   6.322  0.1038  0.1008  0.6017
   7223SM   H2S 9399   6.406   1.721   6.289 -1.4166  1.3780  0.0307
   7223SM   C3S 9400   6.406   1.507   6.309  1.0891 -0.7864  0.2130
   7223SM   H3S 9401   6.335   1.425   6.332 -2.5435  1.0587 -3.3340
   7223SM    O3 9402   6.505   1.495   6.407  0.0675 -0.2667 -0.6877
   7223SM   HO3 9403   6.482   1.561   6.472  1.0014  0.7819 -1.3877
   7223SM   C4S 9404   6.461   1.499   6.176  0.4187  0.2526  0.1371
   7223SM   H4S 9405   6.385   1.451   6.112 -0.2077  2.6600 -1.0265
   7223SM   C5S 9406   6.581   1.543   6.116  0.1404 -0.0188  0.7761
   7223SM   H5S 9407   6.659   1.592   6.176  0.3495  1.6710 -0.7837
   7223SM   C6S 9408   6.607   1.521   5.967 -0.1128 -0.8381  0.2582
   7223SM   H6S 9409   6.616   1.616   5.911  0.2391 -0.2196  1.3336
   7223SM   H6T 9410   6.531   1.455   5.920  0.0215 -2.0076  1.6003
   7223SM   C7S 9411   6.747   1.461   5.937  0.3568 -0.5448 -0.5054
   7223SM   H7S 9412   6.741   1.353   5.961  0.4010 -0.1361  1.5657
   7223SM   H7T 9413   6.828   1.501   6.001  1.2474 -0.6805 -1.5305
   7223SM   C8S 9414   6.793   1.481   5.791  0.1663  1.3982  0.0208
   7223SM   H8S 9415   6.889   1.429   5.767  1.2232  1.7244  3.0802
   7223SM   H8T 9416   6.820   1.589   5.788 -0.3923  1.5370 -0.0166
   7223SM   C9S 9417   6.698   1.432   5.674 -0.3376  0.0183 -0.7265
   7223SM   H9S 9418   6.602   1.486   5.681  0.5580  1.4159  2.2752
   7223SM   H9T 9419   6.692   1.323   5.692  0.3592  0.3462  1.8280
   7223SM  C10S 9420   6.767   1.452   5.534 -0.4057  0.3098  0.1669
   7223SM  H10S 9421   6.737   1.365   5.471 -0.2757 -1.0380  1.8884
   7223SM  H10T 9422   6.875   1.433   5.554 -0.8362 -1.9624  0.6724
   7223SM  C11S 9423   6.743   1.589   5.476 -0.8180  0.1063 -0.5158
   7223SM  H11S 9424   6.791   1.666   5.541  1.7103 -2.5120  0.9978
   7223SM  H11T 9425   6.636   1.617   5.483 -0.1925  2.9348 -1.0106
   7223SM  C12S 9426   6.784   1.606   5.331 -0.0516  0.0730  0.2576
   7223SM  H12S 9427   6.758   1.707   5.294  0.1784  0.0383 -0.0072
   7223SM  H12T 9428   6.736   1.536   5.259  1.5485  0.2780 -1.0850
   7223SM  C13S 9429   6.933   1.580   5.315  0.5627  0.5610  0.1467
   7223SM  H13S 9430   6.956   1.475   5.341 -1.4390  0.0507  0.0048
   7223SM  H13T 9431   6.998   1.640   5.382 -1.5283  2.1624  0.8706
   7223SM  C14S 9432   6.985   1.609   5.171  0.0114 -0.5940 -0.2917
   7223SM  H14S 9433   6.985   1.720   5.159  0.9002 -0.7291 -1.8880
   7223SM  H14T 9434   6.909   1.569   5.100 -1.0755 -0.5349  0.8109
   7223SM  C15S 9435   7.127   1.568   5.144  0.1295  0.1661 -0.2400
   7223SM  H15S 9436   7.140   1.467   5.188 -0.8678  0.4167  0.6390
   7223SM  H15T 9437   7.206   1.627   5.196  1.4997 -1.7319 -0.0611
   7223SM  C16S 9438   7.152   1.577   4.997  0.2577 -0.4110 -0.3844
   7223SM  H16S 9439   7.170   1.685   4.977  1.2138 -0.1007  1.8756
   7223SM  H16T 9440   7.074   1.523   4.939  1.1982 -0.9522 -1.1614
   7223SM  C17S 9441   7.279   1.501   4.948  0.5461  0.2776 -0.0939
   7223SM  H17S 9442   7.281   1.510   4.837 -0.2478  1.9001 -0.0150
   7223SM  H17T 9443   7.268   1.395   4.977  0.6465  0.5436  0.9576
   7223SM  C18S 9444   7.419   1.537   5.005 -0.8116 -0.4607  0.7520
   7223SM  H18S 9445   7.488   1.500   4.926  1.5344  0.9203  2.0663
   7223SM  H18T 9446   7.435   1.496   5.107 -1.5937  0.1510  1.1401
   7223SM  H18U 9447   7.434   1.646   4.991 -0.1543 -0.8263 -2.0610
   7223SM   C1F 9448   6.139   1.774   6.211  0.9514  0.5843  0.0925
   7223SM    OF 9449   6.143   1.866   6.282 -0.0971 -0.3493  0.2939
   7223SM   C2F 9450   6.037   1.776   6.101  0.1307 -0.1829 -0.1370
   7223SM   H2F 9451   5.933   1.789   6.140 -0.2509 -1.4804 -0.6777
   7223SM   H2G 9452   6.043   1.682   6.043 -0.3159  1.4271 -2.9425
   7223SM   C3F 9453   6.072   1.888   6.003  0.0945 -0.4898  0.4328
   7223SM   H3F 9454   6.042   1.978   6.061  2.2448  0.3121  0.3897
   7223SM   H3G 9455   6.010   1.876   5.912  0.0523  0.6133  0.3019
   7223SM   C4F 9456   6.223   1.891   5.962  0.0197  0.0055  0.4039
   7223SM   H4F 9457   6.256   1.798   5.912  2.1312 -0.4607  2.4995
   7223SM   H4G 9458   6.293   1.911   6.046  0.0528  1.7733 -0.0053
   7223SM   C5F 9459   6.250   2.013   5.867 -0.8210 -0.3636 -0.1931
   7223SM   H5F 9460   6.360   2.018   5.859 -0.8375  2.4318  0.3196
   7223SM   H5G 9461   6.218   2.105   5.922  0.3348 -0.2170  0.2541
   7223SM   C6F 9462   6.189   2.021   5.722  0.0939 -0.3644  0.2039
   7223SM   H6F 9463   6.079   2.010   5.710 -0.1678  1.6283  0.4811
   7223SM   H6G 9464   6.246   1.952   5.656 -2.1452 -0.1236 -2.1443
   7223SM   C7F 9465   6.208   2.164   5.665  0.4132 -0.1722 -0.2897
   7223SM   H7F 9466   6.213   2.132   5.558  0.5846  2.4481 -1.1368
   7223SM   H7G 9467   6.306   2.202   5.703  0.0849 -0.7453  1.1980
   7223SM   C8F 9468   6.095   2.263   5.691  0.4180  0.3346 -0.2594
   7223SM   H8F 9469   6.059   2.269   5.795 -1.2829 -0.2407 -0.7804
   7223SM   H8G 9470   6.011   2.223   5.630  0.6327 -1.2132  0.4281
   7223SM   C9F 9471   6.128   2.403   5.640  0.0295 -0.6665  0.4095
   7223SM   H9F 9472   6.168   2.381   5.539 -2.3735  1.7078 -1.1752
   7223SM   H9G 9473   6.205   2.459   5.698 -2.0250  1.4126  1.2790
   7223SM  C10F 9474   6.002   2.489   5.622 -0.1264  0.9930 -0.5342
   7223SM  H10F 9475   5.939   2.514   5.710  0.9523  1.0454  0.2489
   7223SM  H10G 9476   5.946   2.429   5.547  2.2185  0.2016 -1.7622
   7223SM  C11F 9477   6.048   2.622   5.544 -0.4216  0.1414  0.3446
   7223SM  H11F 9478   6.094   2.588   5.448  1.4874  0.5608  1.0627
   7223SM  H11G 9479   6.123   2.677   5.605  0.0555 -0.1421  0.0206
   7223SM  C12F 9480   5.937   2.719   5.504 -0.0850 -0.1119 -0.2261
   7223SM  H12F 9481   5.998   2.802   5.461  0.7037 -0.3429  0.4220
   7223SM  H12G 9482   5.892   2.759   5.598  1.0816 -1.1977  0.8305
   7223SM  C13F 9483   5.832   2.669   5.402 -0.3614 -0.2053 -0.0085
   7223SM  H13F 9484   5.756   2.747   5.381  0.7834  0.9469 -0.0035
   7223SM  H13G 9485   5.789   2.580   5.453 -0.2723  0.6641  1.6426
   7223SM  C14F 9486   5.888   2.614   5.266  0.1551 -0.1908  0.0033
   7223SM  H14F 9487   5.968   2.539   5.284  1.4349  1.1833  0.3162
   7223SM  H14G 9488   5.940   2.702   5.222 -2.0642  0.1529 -2.1159
   7223SM  C15F 9489   5.777   2.569   5.176  0.0391 -0.0271  0.6635
   7223SM  H15F 9490   5.703   2.652   5.176  1.6265  1.4756 -1.0603
   7223SM  H15G 9491   5.731   2.478   5.222  0.8580 -0.4482  0.6548
   7223SM  C16F 9492   5.826   2.533   5.038 -0.6669  0.5704  0.1268
   7223SM  H16F 9493   5.896   2.447   5.048  1.0183  1.8363 -0.3018
   7223SM  H16G 9494   5.885   2.622   5.007 -1.6230  0.6963 -1.3969
   7223SM  C17F 9495   5.712   2.502   4.943 -0.1783  0.4405  0.5534
   7223SM  H17F 9496   5.630   2.576   4.950 -0.2791  0.6301 -1.9350
   7223SM  H17G 9497   5.671   2.400   4.964 -0.1972  0.3440  0.0671
   7223SM  C18F 9498   5.754   2.494   4.795 -0.2023 -0.2894 -0.0004
   7223SM  H18F 9499   5.832   2.417   4.779  0.1951  0.0470  0.3348
   7223SM  H18G 9500   5.792   2.592   4.759  1.6145 -1.1691 -0.6236
   7223SM  C19F 9501   5.628   2.465   4.707 -0.6753 -0.1499 -0.0609
   7223SM  H19F 9502   5.666   2.488   4.606  0.4856 -1.9421 -0.0689
   7223SM  H19G 9503   5.545   2.533   4.736 -0.8061  0.6429 -2.1696
   7223SM  C20F 9504   5.585   2.319   4.713 -0.2283 -0.1985 -0.3026
   7223SM  H20F 9505   5.482   2.293   4.678  0.3348 -1.8203 -0.8130
   7223SM  H20G 9506   5.574   2.280   4.816  0.1841 -1.7277 -0.8183
   7223SM  C21F 9507   5.677   2.228   4.628  0.7411 -0.1691 -0.0641
   7223SM  H21F 9508   5.735   2.284   4.552 -1.3387  2.3683  0.0759
   7223SM  H21G 9509   5.614   2.156   4.571 -0.8030  1.0070  0.0654
   7223SM  C22F 9510   5.776   2.141   4.703  0.3976  0.5471  0.0290
   7223SM  H22F 9511   5.723   2.064   4.762 -0.6465 -0.2398 -1.8599
   7223SM  H22G 9512   5.838   2.200   4.774 -0.2402  1.3633 -0.0736
   7223SM  C23F 9513   5.858   2.074   4.589  0.0104  0.2979 -0.1082
   7223SM  H23F 9514   5.796   2.022   4.513  1.8261 -2.1267 -0.0115
   7223SM  H23G 9515   5.939   2.009   4.628  1.8690  0.9732 -2.5599
   7223SM  H23H 9516   5.907   2.161   4.539 -0.5094  0.8196  0.2641
   7323SM     N 9517   4.711   0.332   7.527 -0.4916  0.7533  0.2256
   7323SM   C15 9518   4.816   0.428   7.483  0.2375 -0.1736  0.0180
   7323SM  H15A 9519   4.815   0.521   7.539  1.7901 -1.1872  1.8382
   7323SM  H15B 9520   4.794   0.452   7.380  2.0610 -0.6356 -0.5116
   7323SM  H15C 9521   4.916   0.389   7.491  0.3939  0.0433 -0.8361
   7323SM   C14 9522   4.741   0.210   7.450  0.5276  0.5190 -0.2877
   7323SM  H14A 9523   4.665   0.134   7.465 -1.3025  1.6442 -3.0176
   7323SM  H14B 9524   4.845   0.187   7.465  0.5653 -0.9307 -2.3794
   7323SM  H14C 9525   4.735   0.250   7.350  0.3852  2.1895  0.3498
   7323SM   C13 9526   4.722   0.298   7.675  0.1399  0.1240 -0.5892
   7323SM  H13A 9527   4.805   0.235   7.707 -1.5909 -1.6874  0.5860
   7323SM  H13B 9528   4.635   0.237   7.696  0.4464 -0.0098  0.3854
   7323SM  H13C 9529   4.726   0.387   7.737  0.8390 -1.0009  1.0717
   7323SM   C12 9530   4.565   0.387   7.495  0.4466 -0.0564  0.3560
   7323SM  H12A 9531   4.549   0.475   7.555 -1.6488  0.7976 -1.3102
   7323SM  H12B 9532   4.502   0.311   7.539  0.3427  1.0919  2.3006
   7323SM   C11 9533   4.524   0.414   7.350  0.6332 -0.2214  0.3192
   7323SM  H11A 9534   4.596   0.497   7.335  1.0554 -0.1270  2.5440
   7323SM  H11B 9535   4.423   0.460   7.340  1.2698  1.5235  1.4918
   7323SM     P 9536   4.448   0.216   7.194 -0.3447 -0.1288 -0.8811
   7323SM   O13 9537   4.526   0.116   7.121 -0.1558  0.1142  0.3299
   7323SM   O14 9538   4.354   0.167   7.302 -0.2777 -0.3758  0.5858
   7323SM   O11 9539   4.372   0.300   7.089 -0.2772 -0.1695  0.3270
   7323SM   O12 9540   4.553   0.307   7.258  0.6166 -0.4214 -0.3203
   7323SM   C1S 9541   4.451   0.339   6.970 -0.0353  0.3571  0.3081
   7323SM   H1S 9542   4.493   0.257   6.909 -2.0234  0.5328 -1.4118
   7323SM   H1T 9543   4.533   0.408   7.000  0.1500 -0.2743  1.3021
   7323SM    NF 9544   4.447   0.466   6.752  0.5219  0.7030 -0.3414
   7323SM   HNF 9545   4.484   0.558   6.748  1.5994  0.3332  0.3796
   7323SM   C2S 9546   4.368   0.424   6.866 -0.1022  0.4210 -0.2721
   7323SM   H2S 9547   4.294   0.353   6.825 -0.0475  0.5124 -0.5273
   7323SM   C3S 9548   4.303   0.542   6.938 -0.2566 -0.7437  0.2505
   7323SM   H3S 9549   4.381   0.615   6.965  0.0360 -1.0830  0.3299
   7323SM    O3 9550   4.233   0.509   7.056 -0.2749  0.0493 -0.2533
   7323SM   HO3 9551   4.267   0.421   7.071  3.3477  0.8673 -2.3930
   7323SM   C4S 9552   4.211   0.635   6.852 -0.1251 -0.5112 -0.2254
   7323SM   H4S 9553   4.136   0.579   6.794 -3.0935 -2.1689  4.6143
   7323SM   C5S 9554   4.224   0.769   6.832 -0.0530  0.2492 -0.6474
   7323SM   H5S 9555   4.307   0.820   6.884  0.6516 -2.0139  0.6189
   7323SM   C6S 9556   4.144   0.854   6.735 -0.0273  0.0124 -0.2997
   7323SM   H6S 9557   4.214   0.918   6.678  0.7193  0.9549  1.5997
   7323SM   H6T 9558   4.070   0.911   6.795 -0.6394 -0.0467 -0.9949
   7323SM   C7S 9559   4.066   0.770   6.634  0.1609 -0.0394 -0.7810
   7323SM   H7S 9560   3.997   0.708   6.695 -1.4851 -0.4353 -2.9159
   7323SM   H7T 9561   4.126   0.693   6.581 -1.0772 -1.3353 -0.3574
   7323SM   C8S 9562   3.980   0.848   6.529 -0.3687  0.1388  0.1679
   7323SM   H8S 9563   4.047   0.927   6.486  1.2775 -0.5414  1.3818
   7323SM   H8T 9564   3.897   0.896   6.585  0.5705  2.5355 -0.3439
   7323SM   C9S 9565   3.922   0.757   6.416 -0.0990  0.2835  0.0337
   7323SM   H9S 9566   3.835   0.795   6.358 -0.2782 -2.5369 -1.7962
   7323SM   H9T 9567   3.889   0.661   6.462 -0.1419 -0.6557 -1.8216
   7323SM  C10S 9568   4.020   0.722   6.299  0.0542  0.1507 -0.1924
   7323SM  H10S 9569   4.117   0.712   6.351  0.7674  0.7951 -1.3525
   7323SM  H10T 9570   4.029   0.810   6.232  3.1431 -0.9806 -1.4256
   7323SM  C11S 9571   3.981   0.596   6.230 -0.1074  0.1572 -0.2661
   7323SM  H11S 9572   3.883   0.603   6.177  0.8096  0.2900 -2.0147
   7323SM  H11T 9573   3.971   0.517   6.308  0.7797 -1.6006 -1.8488
   7323SM  C12S 9574   4.076   0.547   6.117 -0.3649  0.2848  0.3247
   7323SM  H12S 9575   4.176   0.527   6.161 -0.8909  1.2552  2.0455
   7323SM  H12T 9576   4.085   0.620   6.034 -3.3729  1.9635  1.3187
   7323SM  C13S 9577   4.038   0.414   6.048 -0.5191  0.0480  0.0433
   7323SM  H13S 9578   4.107   0.391   5.964 -3.1536 -0.3904 -2.1516
   7323SM  H13T 9579   3.933   0.424   6.012 -0.2867  2.1275 -0.1645
   7323SM  C14S 9580   4.046   0.292   6.141  0.2139  0.2974  0.4896
   7323SM  H14S 9581   3.993   0.314   6.237  1.0836  0.7078  0.8847
   7323SM  H14T 9582   4.149   0.270   6.174 -0.0437 -0.7584  0.6282
   7323SM  C15S 9583   3.987   0.161   6.080 -0.7198 -0.4909 -0.0999
   7323SM  H15S 9584   4.028   0.151   5.978 -1.7003  1.4898 -0.7400
   7323SM  H15T 9585   3.876   0.175   6.074 -0.7335  0.7040  1.8931
   7323SM  C16S 9586   4.035   0.037   6.164 -0.1066 -0.3453 -0.1265
   7323SM  H16S 9587   4.016   0.051   6.272  0.1055  2.3664 -0.3788
   7323SM  H16T 9588   4.144   0.023   6.149  0.0290 -0.0474  0.5401
   7323SM  C17S 9589   3.981  -0.096   6.108  0.0026 -0.4519  0.1444
   7323SM  H17S 9590   4.015  -0.102   6.003  2.5167  2.8331  0.6075
   7323SM  H17T 9591   3.871  -0.081   6.106 -0.2689 -2.3131 -1.4065
   7323SM  C18S 9592   4.039  -0.217   6.189 -0.8578 -0.1717 -0.5138
   7323SM  H18S 9593   4.140  -0.237   6.146 -0.4820 -1.2744  0.8236
   7323SM  H18T 9594   3.975  -0.307   6.184 -0.0606 -0.6891 -2.1643
   7323SM  H18U 9595   4.063  -0.193   6.295 -0.4499 -0.7572 -0.4717
   7323SM   C1F 9596   4.483   0.373   6.658  0.9978  0.3780 -0.3982
   7323SM    OF 9597   4.431   0.262   6.657 -0.3243 -0.3652  0.3125
   7323SM   C2F 9598   4.597   0.420   6.570  0.0862 -0.0303 -0.1994
   7323SM   H2F 9599   4.690   0.424   6.631 -0.0373  1.0198 -0.0694
   7323SM   H2G 9600   4.576   0.528   6.553  1.3578  0.4042  0.7743
   7323SM   C3F 9601   4.625   0.327   6.455 -0.3395  0.1952  0.4016
   7323SM   H3F 9602   4.531   0.305   6.400  0.2101  2.4733 -1.5917
   7323SM   H3G 9603   4.678   0.232   6.476 -0.7641  0.2153  1.6126
   7323SM   C4F 9604   4.716   0.409   6.355  0.2683 -0.0352 -0.3377
   7323SM   H4F 9605   4.818   0.428   6.395 -0.3888  1.4958  0.7095
   7323SM   H4G 9606   4.669   0.510   6.352  2.4984  1.0411 -0.4119
   7323SM   C5F 9607   4.705   0.361   6.211 -0.0918  0.1093 -0.1979
   7323SM   H5F 9608   4.748   0.259   6.203  0.6262  0.2952  1.0005
   7323SM   H5G 9609   4.778   0.422   6.153  2.9469 -3.2959 -0.2910
   7323SM   C6F 9610   4.570   0.394   6.147 -0.2758 -0.0161  0.5138
   7323SM   H6F 9611   4.532   0.496   6.168  0.2504  0.1997  0.4417
   7323SM   H6G 9612   4.495   0.330   6.197  2.0565 -2.6293  0.8666
   7323SM   C7F 9613   4.568   0.358   5.999  0.9014 -0.3751  0.8037
   7323SM   H7F 9614   4.599   0.252   5.985  2.8604  0.2405  0.0100
   7323SM   H7G 9615   4.652   0.416   5.954  0.4396  1.1909  1.8760
   7323SM   C8F 9616   4.444   0.382   5.929  0.4427  0.0405 -0.0026
   7323SM   H8F 9617   4.411   0.486   5.948  1.4965  0.1131  1.7083
   7323SM   H8G 9618   4.370   0.313   5.975 -0.5810  0.4487 -1.0189
   7323SM   C9F 9619   4.452   0.350   5.778 -0.6118 -0.3346  0.0940
   7323SM   H9F 9620   4.488   0.252   5.740  0.0181 -0.5208  1.1458
   7323SM   H9G 9621   4.516   0.430   5.734 -1.1296  0.3537  0.5723
   7323SM  C10F 9622   4.314   0.377   5.720  0.1786  0.4084  0.3165
   7323SM  H10F 9623   4.277   0.478   5.746  1.8657  0.4210  3.0989
   7323SM  H10G 9624   4.233   0.308   5.753  1.4572 -1.6276 -0.5886
   7323SM  C11F 9625   4.306   0.373   5.564 -0.4513 -0.6851  0.0274
   7323SM  H11F 9626   4.357   0.280   5.531 -0.2448 -0.7224  0.4455
   7323SM  H11G 9627   4.358   0.466   5.530  0.0806 -1.1294 -0.4004
   7323SM  C12F 9628   4.163   0.373   5.520  0.4498  0.1235 -0.8974
   7323SM  H12F 9629   4.119   0.468   5.557 -2.0923 -1.1828 -0.2729
   7323SM  H12G 9630   4.111   0.287   5.569  1.5511 -0.1939 -0.2563
   7323SM  C13F 9631   4.146   0.362   5.371  0.6220  0.1148 -0.3270
   7323SM  H13F 9632   4.043   0.331   5.343  0.1387  0.8154  0.6322
   7323SM  H13G 9633   4.207   0.276   5.335 -1.1411 -2.6940  2.8163
   7323SM  C14F 9634   4.164   0.500   5.298 -0.5296 -0.0553 -0.4027
   7323SM  H14F 9635   4.239   0.559   5.355 -0.7040 -1.2531  1.1393
   7323SM  H14G 9636   4.069   0.556   5.285 -0.6375  0.0846  0.8552
   7323SM  C15F 9637   4.220   0.489   5.155 -0.5534  0.2183 -0.0505
   7323SM  H15F 9638   4.325   0.463   5.182 -0.4875  2.2983  2.0175
   7323SM  H15G 9639   4.224   0.592   5.113  1.0138  0.5596  0.8255
   7323SM  C16F 9640   4.157   0.390   5.060  0.2336 -0.0426  0.7385
   7323SM  H16F 9641   4.047   0.399   5.072 -0.0640 -0.3553 -1.3409
   7323SM  H16G 9642   4.173   0.283   5.088  0.6617  0.0434  0.8235
   7323SM  C17F 9643   4.199   0.417   4.919  0.0749 -0.6987  0.2840
   7323SM  H17F 9644   4.310   0.418   4.921  0.2534  2.2278 -2.3671
   7323SM  H17G 9645   4.171   0.522   4.895 -0.1292 -0.7294  0.3854
   7323SM  C18F 9646   4.161   0.324   4.804 -0.6277 -1.1138 -0.0131
   7323SM  H18F 9647   4.058   0.325   4.765  0.6062  1.6574 -3.6880
   7323SM  H18G 9648   4.175   0.217   4.834 -0.0422 -1.4543 -1.4064
   7323SM  C19F 9649   4.237   0.356   4.674  0.9249 -0.5317  0.4272
   7323SM  H19F 9650   4.347   0.345   4.683  0.8678 -1.1882  0.3418
   7323SM  H19G 9651   4.214   0.461   4.644  0.7000 -0.2569  1.5167
   7323SM  C20F 9652   4.194   0.262   4.557 -0.4345  0.3230  0.3563
   7323SM  H20F 9653   4.223   0.163   4.598  3.0413  1.4131  0.8408
   7323SM  H20G 9654   4.260   0.270   4.468 -1.4119 -0.6835 -0.4800
   7323SM  C21F 9655   4.048   0.250   4.508  0.1804  0.5027  0.6266
   7323SM  H21F 9656   4.012   0.355   4.511 -0.0907  0.4743 -0.8121
   7323SM  H21G 9657   3.992   0.186   4.579  1.8033 -2.1301 -0.3112
   7323SM  C22F 9658   4.034   0.203   4.362 -0.1674 -0.4892 -0.3586
   7323SM  H22F 9659   4.068   0.099   4.341 -0.5095 -0.2533 -2.3322
   7323SM  H22G 9660   4.099   0.267   4.297 -1.2021  0.5882 -0.3622
   7323SM  C23F 9661   3.891   0.225   4.314 -0.1643 -0.1409 -0.1690
   7323SM  H23F 9662   3.871   0.333   4.301  1.2018  0.3030  1.1392
   7323SM  H23G 9663   3.817   0.176   4.381 -1.8820  1.9230 -0.4591
   7323SM  H23H 9664   3.877   0.188   4.210  2.8952 -1.7950 -0.1100
   7423SM     N 9665   4.829   3.969   6.992  0.3725 -0.2123  0.6417
   7423SM   C15 9666   4.726   4.066   7.030 -0.1923  0.1788  0.1218
   7423SM  H15A 9667   4.656   4.030   7.103  0.4390 -0.0690  0.6136
   7423SM  H15B 9668   4.687   4.111   6.940  1.8366  1.7752 -0.0481
   7423SM  H15C 9669   4.769   4.151   7.081 -2.0721  1.5073 -0.4020
   7423SM   C14 9670   4.918   4.036   6.890 -0.1240  0.6928  0.4443
   7423SM  H14A 9671   4.860   4.076   6.808  0.2064 -2.1304 -1.3113
   7423SM  H14B 9672   4.988   3.968   6.843  0.0793  2.2284 -1.6431
   7423SM  H14C 9673   4.975   4.120   6.926  0.6346  0.5288 -0.3346
   7423SM   C13 9674   4.907   3.922   7.110  0.5905 -0.3107  0.6771
   7423SM  H13A 9675   4.842   3.864   7.173 -0.9463 -0.8048 -1.2601
   7423SM  H13B 9676   4.943   4.010   7.160  0.6648 -0.6961  1.3105
   7423SM  H13C 9677   4.992   3.868   7.069  0.1719  0.2591 -1.0116
   7423SM   C12 9678   4.764   3.852   6.921 -0.1390  0.3383 -0.8873
   7423SM  H12A 9679   4.715   3.885   6.831  0.1307  1.6267 -0.5832
   7423SM  H12B 9680   4.684   3.811   6.981  1.9218 -0.2558  1.6221
   7423SM   C11 9681   4.859   3.733   6.882  0.0908 -0.4486 -0.3001
   7423SM  H11A 9682   4.955   3.783   6.860 -0.6368  1.2392  0.2187
   7423SM  H11B 9683   4.822   3.682   6.791  0.4687 -0.9350 -0.1851
   7423SM     P 9684   5.015   3.575   7.011  0.1709 -0.0340  0.2013
   7423SM   O13 9685   5.113   3.683   7.038  0.7603 -0.4727 -0.8630
   7423SM   O14 9686   5.003   3.469   7.116 -0.0035  0.1431  0.3071
   7423SM   O11 9687   5.050   3.525   6.872  0.2355  0.1992  0.9477
   7423SM   O12 9688   4.872   3.647   6.998  0.2640  0.3156  0.1798
   7423SM   C1S 9689   4.960   3.439   6.793  0.3769 -0.0137 -0.5861
   7423SM   H1S 9690   4.857   3.480   6.780 -0.0332 -0.5850  0.6390
   7423SM   H1T 9691   4.955   3.336   6.834  1.0396  0.5396  0.9709
   7423SM    NF 9692   4.891   3.351   6.570 -0.6409 -0.3157  0.1175
   7423SM   HNF 9693   4.917   3.261   6.537 -0.9746 -0.6688  0.7990
   7423SM   C2S 9694   4.999   3.424   6.641  0.1500  0.4007  0.1024
   7423SM   H2S 9695   4.999   3.526   6.598 -1.8887  1.2608  1.9490
   7423SM   C3S 9696   5.144   3.366   6.633  0.0906  0.1662 -0.0333
   7423SM   H3S 9697   5.141   3.266   6.680  0.8448 -0.0204 -0.3593
   7423SM    O3 9698   5.239   3.413   6.732 -0.3804  0.0265  0.3107
   7423SM   HO3 9699   5.187   3.471   6.788 -0.6893 -0.1451  0.2083
   7423SM   C4S 9700   5.200   3.363   6.497  0.0507 -0.2553 -0.3881
   7423SM   H4S 9701   5.191   3.460   6.446  2.1878  0.4140  0.3660
   7423SM   C5S 9702   5.225   3.250   6.428  0.9444 -0.4884  0.7081
   7423SM   H5S 9703   5.181   3.155   6.461 -0.8364 -0.2000 -0.6432
   7423SM   C6S 9704   5.243   3.257   6.273  0.6164 -0.0039 -0.7040
   7423SM   H6S 9705   5.242   3.363   6.240 -1.6994  0.6931  1.2867
   7423SM   H6T 9706   5.161   3.213   6.213 -0.5644 -0.6269  1.2637
   7423SM   C7S 9707   5.367   3.188   6.229 -0.9935  0.1379 -0.2833
   7423SM   H7S 9708   5.353   3.078   6.231 -2.1917  0.2541 -1.1551
   7423SM   H7T 9709   5.450   3.214   6.297  0.6671 -0.2116 -2.0815
   7423SM   C8S 9710   5.430   3.232   6.097 -0.7902 -0.5362 -0.3929
   7423SM   H8S 9711   5.459   3.340   6.104 -0.6037 -0.3073 -3.3706
   7423SM   H8T 9712   5.360   3.230   6.010 -1.0935  0.8623 -0.2098
   7423SM   C9S 9713   5.556   3.160   6.050 -0.1352 -0.1245 -0.3679
   7423SM   H9S 9714   5.590   3.193   5.950 -2.5140  0.2558 -1.1023
   7423SM   H9T 9715   5.527   3.054   6.038 -1.0327  0.0149  0.4374
   7423SM  C10S 9716   5.664   3.152   6.156  0.4748  0.1180  0.2146
   7423SM  H10S 9717   5.619   3.093   6.240  0.7329 -0.0413  0.2438
   7423SM  H10T 9718   5.683   3.254   6.195  3.2278 -0.3355  0.2273
   7423SM  C11S 9719   5.791   3.091   6.112 -0.7104  0.5016  1.0761
   7423SM  H11S 9720   5.861   3.099   6.198 -0.0134 -0.7706  0.6525
   7423SM  H11T 9721   5.839   3.142   6.026  0.1494 -0.3515  1.0357
   7423SM  C12S 9722   5.788   2.939   6.081 -0.5498  0.2698  0.0372
   7423SM  H12S 9723   5.733   2.922   5.986  0.5375 -0.4272 -0.4827
   7423SM  H12T 9724   5.727   2.904   6.166  2.0172 -1.3734  1.3297
   7423SM  C13S 9725   5.916   2.855   6.089 -0.1085  0.0061  0.9557
   7423SM  H13S 9726   5.960   2.846   6.190  1.4475 -0.1349  0.2959
   7423SM  H13T 9727   5.987   2.900   6.016 -0.2652  2.1648  2.0551
   7423SM  C14S 9728   5.894   2.708   6.045 -0.2118 -0.0568  0.3017
   7423SM  H14S 9729   5.875   2.705   5.936  1.7930  0.3970 -0.1009
   7423SM  H14T 9730   5.807   2.674   6.105 -0.6263 -1.3902 -0.9836
   7423SM  C15S 9731   6.015   2.625   6.075 -0.2653  0.5690  0.3375
   7423SM  H15S 9732   6.040   2.644   6.181  2.9477 -3.2260  0.4947
   7423SM  H15T 9733   6.106   2.654   6.019  0.0873 -0.0302  0.5940
   7423SM  C16S 9734   5.997   2.472   6.041 -0.5588  0.1384 -0.8342
   7423SM  H16S 9735   5.982   2.477   5.931 -0.6828  2.0012 -0.7575
   7423SM  H16T 9736   5.907   2.447   6.102  0.2433  1.5613  1.0530
   7423SM  C17S 9737   6.108   2.373   6.095 -0.0055 -0.0967 -0.4471
   7423SM  H17S 9738   6.089   2.266   6.073  3.2100 -1.0264  0.7394
   7423SM  H17T 9739   6.117   2.387   6.204  1.3462  1.6901 -0.7450
   7423SM  C18S 9740   6.238   2.397   6.014  0.4855  0.6447 -0.3743
   7423SM  H18S 9741   6.273   2.502   6.015  1.3565  0.3731 -0.8826
   7423SM  H18T 9742   6.230   2.364   5.909  2.1654  1.2880 -0.7413
   7423SM  H18U 9743   6.314   2.335   6.067  0.5973  0.6637 -0.5120
   7423SM   C1F 9744   4.762   3.392   6.545 -0.1231  0.7901  0.5891
   7423SM    OF 9745   4.724   3.506   6.544 -0.5802 -0.2958 -0.2309
   7423SM   C2F 9746   4.657   3.280   6.527  0.3826 -0.6967 -1.2385
   7423SM   H2F 9747   4.578   3.305   6.601  0.8485  0.7089 -1.1886
   7423SM   H2G 9748   4.700   3.182   6.554  1.6203  0.2219  0.3061
   7423SM   C3F 9749   4.583   3.295   6.387  0.5947  0.3864 -0.5963
   7423SM   H3F 9750   4.554   3.402   6.388  1.3205  0.6158 -1.7350
   7423SM   H3G 9751   4.494   3.230   6.383  0.4082  0.6600 -0.9699
   7423SM   C4F 9752   4.678   3.252   6.285  0.0384  0.5598  0.2082
   7423SM   H4F 9753   4.686   3.144   6.263  2.1232  0.9975 -1.5516
   7423SM   H4G 9754   4.782   3.274   6.320  0.4671 -0.4013 -0.4322
   7423SM   C5F 9755   4.638   3.317   6.153 -0.0570  0.3446 -0.5621
   7423SM   H5F 9756   4.658   3.425   6.168  0.6299 -0.0494  1.6070
   7423SM   H5G 9757   4.531   3.288   6.143  0.2537 -1.4210  0.8399
   7423SM   C6F 9758   4.712   3.268   6.028 -0.1592  0.5440 -0.2403
   7423SM   H6F 9759   4.680   3.164   6.006  1.4369  0.2621 -1.4301
   7423SM   H6G 9760   4.822   3.283   6.028  0.0877 -0.7102  2.0553
   7423SM   C7F 9761   4.670   3.346   5.895  0.3340 -0.1690 -1.0463
   7423SM   H7F 9762   4.691   3.455   5.903  0.6186 -0.3706  1.7206
   7423SM   H7G 9763   4.559   3.342   5.894  0.1633  2.2503  0.2791
   7423SM   C8F 9764   4.727   3.287   5.764 -1.1484 -0.5376  0.8311
   7423SM   H8F 9765   4.690   3.183   5.753 -0.9172 -0.5528  0.2169
   7423SM   H8G 9766   4.837   3.282   5.781 -0.9600 -1.2190 -0.4890
   7423SM   C9F 9767   4.684   3.375   5.653  0.1408  0.2675  0.2073
   7423SM   H9F 9768   4.727   3.477   5.668  2.1631 -0.3533 -0.9700
   7423SM   H9G 9769   4.573   3.374   5.657  0.1241  0.9826  0.0910
   7423SM  C10F 9770   4.742   3.325   5.518  0.3433 -0.2051  0.3836
   7423SM  H10F 9771   4.712   3.398   5.439 -0.5610  0.2910  1.1660
   7423SM  H10G 9772   4.707   3.228   5.477  0.7088 -1.4909  2.8964
   7423SM  C11F 9773   4.893   3.317   5.507  0.0923  0.2482  0.2599
   7423SM  H11F 9774   4.921   3.227   5.566  1.0269 -0.7843 -1.6713
   7423SM  H11G 9775   4.942   3.410   5.544 -1.0991  1.5036 -1.1756
   7423SM  C12F 9776   4.933   3.296   5.363 -0.1265  0.4215  0.0721
   7423SM  H12F 9777   4.878   3.208   5.323 -0.3786 -0.4701  2.2184
   7423SM  H12G 9778   5.035   3.257   5.380 -1.2589 -1.4371  3.8456
   7423SM  C13F 9779   4.935   3.419   5.281 -0.3780 -0.2572 -0.4237
   7423SM  H13F 9780   5.008   3.494   5.317 -1.7522  0.8262  0.1705
   7423SM  H13G 9781   4.838   3.471   5.266  0.5755  2.0694  0.8970
   7423SM  C14F 9782   4.983   3.383   5.140  0.6784  0.3206  0.2058
   7423SM  H14F 9783   4.897   3.343   5.082 -0.0615  3.1050 -0.8000
   7423SM  H14G 9784   5.065   3.309   5.143  0.3673 -0.0046  0.8517
   7423SM  C15F 9785   5.025   3.508   5.057  0.8276 -0.1512  0.4600
   7423SM  H15F 9786   5.027   3.595   5.125 -0.2508  0.3085 -0.0864
   7423SM  H15G 9787   4.953   3.521   4.973  0.8732  0.8272  0.5671
   7423SM  C16F 9788   5.154   3.472   4.978 -0.4125 -0.4475 -0.0650
   7423SM  H16F 9789   5.143   3.377   4.922  0.1779 -0.3284 -0.3891
   7423SM  H16G 9790   5.229   3.449   5.058 -0.5271  0.1759  0.2277
   7423SM  C17F 9791   5.203   3.592   4.892 -0.5733  1.1039  0.3694
   7423SM  H17F 9792   5.313   3.584   4.879 -0.4025  2.9069  0.5365
   7423SM  H17G 9793   5.199   3.686   4.950  0.7831 -0.2423  2.8469
   7423SM  C18F 9794   5.131   3.587   4.753 -0.7605 -0.5405  0.1465
   7423SM  H18F 9795   5.143   3.693   4.720  2.4602 -0.1230  2.1414
   7423SM  H18G 9796   5.021   3.571   4.755 -1.4587  3.3820  0.8752
   7423SM  C19F 9797   5.204   3.514   4.642 -0.2416 -0.0063  1.0588
   7423SM  H19F 9798   5.243   3.417   4.682 -1.7199 -0.8411  0.5646
   7423SM  H19G 9799   5.289   3.580   4.615 -1.6171  0.5746 -2.2488
   7423SM  C20F 9800   5.116   3.492   4.519 -0.8024 -0.5501  0.2953
   7423SM  H20F 9801   5.047   3.578   4.512 -0.5275 -0.4163 -1.1832
   7423SM  H20G 9802   5.057   3.401   4.544  0.8035 -1.5589  0.5841
   7423SM  C21F 9803   5.192   3.475   4.388  0.3967 -0.2953  0.4385
   7423SM  H21F 9804   5.272   3.398   4.400  2.8378  1.8830 -0.8261
   7423SM  H21G 9805   5.251   3.569   4.376  1.1396 -0.4332  2.6476
   7423SM  C22F 9806   5.100   3.447   4.258 -0.6422  0.0981 -0.4050
   7423SM  H22F 9807   5.167   3.461   4.170 -2.0189  0.8132 -1.3684
   7423SM  H22G 9808   5.028   3.531   4.251 -0.7020  0.0834  0.0043
   7423SM  C23F 9809   5.029   3.317   4.258 -0.3179  0.2479 -0.0154
   7423SM  H23F 9810   4.951   3.307   4.337  2.0113 -0.9117  2.2841
   7423SM  H23G 9811   5.108   3.247   4.290 -0.2811  1.3023  2.4315
   7423SM  H23H 9812   4.976   3.298   4.162  0.9621 -2.6366 -0.2424
   7523SM     N 9813   5.500   5.257   6.672 -0.4773  0.1647  0.0527
   7523SM   C15 9814   5.400   5.248   6.782 -0.1071 -0.2381  0.3806
   7523SM  H15A 9815   5.375   5.142   6.785 -1.4522  0.0862  1.4411
   7523SM  H15B 9816   5.324   5.321   6.761  1.5180  1.6523  0.8352
   7523SM  H15C 9817   5.429   5.250   6.886 -0.9615 -1.1370  0.6577
   7523SM   C14 9818   5.427   5.261   6.545  0.4749 -0.4206 -0.6682
   7523SM  H14A 9819   5.377   5.356   6.536 -0.4753 -0.8002  0.3671
   7523SM  H14B 9820   5.347   5.189   6.552 -0.6394  0.5950 -2.3295
   7523SM  H14C 9821   5.488   5.251   6.457  0.6117 -2.6684 -0.3751
   7523SM   C13 9822   5.587   5.373   6.691  0.3259 -0.0026 -0.2899
   7523SM  H13A 9823   5.655   5.364   6.774 -1.0404  0.0422  0.8818
   7523SM  H13B 9824   5.531   5.466   6.700  2.7539  1.4065  1.5250
   7523SM  H13C 9825   5.658   5.380   6.610  0.5621  1.7697  0.0299
   7523SM   C12 9826   5.589   5.135   6.680 -0.0166 -0.0387 -0.3616
   7523SM  H12A 9827   5.641   5.125   6.775  1.5344 -0.4501 -1.2077
   7523SM  H12B 9828   5.672   5.135   6.611  0.6910 -0.8511  0.4615
   7523SM   C11 9829   5.527   4.988   6.669  0.3473 -0.5660 -0.0936
   7523SM  H11A 9830   5.608   4.914   6.651  2.3995  1.3147  0.8899
   7523SM  H11B 9831   5.464   4.997   6.577 -0.3135  2.5762  0.5453
   7523SM     P 9832   5.405   4.823   6.829 -0.0384 -0.6169 -0.2908
   7523SM   O13 9833   5.515   4.772   6.919 -0.0848 -0.9696 -0.0565
   7523SM   O14 9834   5.266   4.826   6.883  0.6844  0.7872  0.8817
   7523SM   O11 9835   5.414   4.740   6.699  0.4990  0.1694 -0.2959
   7523SM   O12 9836   5.441   4.966   6.779  0.1490 -0.2738  0.3893
   7523SM   C1S 9837   5.315   4.649   6.654 -0.4538 -0.2451 -0.0190
   7523SM   H1S 9838   5.216   4.658   6.704  0.8492  1.0386  2.5543
   7523SM   H1T 9839   5.347   4.543   6.662 -1.9157 -0.6226  1.2392
   7523SM    NF 9840   5.165   4.609   6.457 -0.5451  0.3916 -0.2644
   7523SM   HNF 9841   5.166   4.521   6.412  0.1026 -0.6465  1.6847
   7523SM   C2S 9842   5.295   4.671   6.500  0.4376 -0.0951 -0.0611
   7523SM   H2S 9843   5.294   4.775   6.462  0.6178 -0.9553 -2.6859
   7523SM   C3S 9844   5.413   4.605   6.424  0.0445 -0.0714  0.2309
   7523SM   H3S 9845   5.417   4.499   6.456  0.8489 -0.0575  0.2031
   7523SM    O3 9846   5.542   4.665   6.448 -0.0633  0.4797  0.3388
   7523SM   HO3 9847   5.536   4.694   6.539 -0.9502 -0.2099  0.5081
   7523SM   C4S 9848   5.387   4.609   6.274  0.4023 -0.7362  0.2076
   7523SM   H4S 9849   5.346   4.700   6.228  0.9478 -1.2769 -1.4086
   7523SM   C5S 9850   5.407   4.502   6.195  0.2194 -0.1693  0.0538
   7523SM   H5S 9851   5.455   4.414   6.240  0.6819 -0.7864 -1.5645
   7523SM   C6S 9852   5.401   4.476   6.044  0.5900  0.7304 -0.5059
   7523SM   H6S 9853   5.350   4.381   6.019  2.6216  0.2541 -3.4013
   7523SM   H6T 9854   5.508   4.480   6.013  0.6204  2.6017 -0.2861
   7523SM   C7S 9855   5.331   4.594   5.967 -0.1239 -0.0410  0.7174
   7523SM   H7S 9856   5.376   4.693   5.991  1.2326 -0.7286  1.0514
   7523SM   H7T 9857   5.229   4.611   6.009  0.1469  2.0723  0.6579
   7523SM   C8S 9858   5.334   4.575   5.815  0.2929 -0.0190 -0.2233
   7523SM   H8S 9859   5.309   4.674   5.771 -3.2502 -1.0786 -0.9172
   7523SM   H8T 9860   5.256   4.499   5.791 -1.0626  1.1746  0.2637
   7523SM   C9S 9861   5.469   4.529   5.753  0.2412  0.1919 -1.0384
   7523SM   H9S 9862   5.502   4.428   5.784 -0.6458 -0.4887 -2.2232
   7523SM   H9T 9863   5.538   4.614   5.772  1.3458 -0.6565 -1.1276
   7523SM  C10S 9864   5.442   4.517   5.597  0.4881 -0.2236  0.1145
   7523SM  H10S 9865   5.393   4.613   5.572 -1.4947 -1.0232  0.7580
   7523SM  H10T 9866   5.371   4.436   5.572  0.3495  0.2428 -1.0587
   7523SM  C11S 9867   5.563   4.495   5.510 -0.0526 -0.0512 -0.1402
   7523SM  H11S 9868   5.621   4.586   5.536 -2.0535  1.7637 -1.7344
   7523SM  H11T 9869   5.533   4.488   5.403  0.9531 -1.8396 -0.3541
   7523SM  C12S 9870   5.639   4.367   5.549  0.8676  0.0354  0.0192
   7523SM  H12S 9871   5.689   4.376   5.648  0.7522  2.7055 -0.0882
   7523SM  H12T 9872   5.717   4.362   5.469  0.9526  0.6176  0.0592
   7523SM  C13S 9873   5.560   4.234   5.539  0.1049 -0.5215  0.4429
   7523SM  H13S 9874   5.468   4.249   5.599  0.4422  0.6998  0.6811
   7523SM  H13T 9875   5.622   4.149   5.576 -0.1178 -0.7523  0.2854
   7523SM  C14S 9876   5.524   4.206   5.392  0.1415 -0.2405  0.1076
   7523SM  H14S 9877   5.609   4.216   5.322 -0.2790  3.1448 -0.0943
   7523SM  H14T 9878   5.450   4.281   5.357 -1.5562 -1.5152  0.8577
   7523SM  C15S 9879   5.468   4.064   5.372 -0.0532 -0.0458 -0.2016
   7523SM  H15S 9880   5.371   4.054   5.424 -0.5278 -0.7984 -1.1955
   7523SM  H15T 9881   5.524   3.982   5.422  0.1748  0.9568  1.2495
   7523SM  C16S 9882   5.448   4.038   5.224  0.5210  0.8670  0.7798
   7523SM  H16S 9883   5.540   4.007   5.170 -0.3825 -0.5964  0.0225
   7523SM  H16T 9884   5.419   4.133   5.175 -0.3480 -1.2274 -3.1140
   7523SM  C17S 9885   5.320   3.951   5.188 -0.6757  0.0022 -0.0469
   7523SM  H17S 9886   5.235   4.015   5.220 -0.9871  0.1554 -1.1549
   7523SM  H17T 9887   5.319   3.853   5.240 -0.5377 -0.1162 -0.2708
   7523SM  C18S 9888   5.315   3.944   5.036 -0.1965  0.2243  0.6134
   7523SM  H18S 9889   5.224   3.896   4.996 -0.3708  1.2262 -0.2156
   7523SM  H18T 9890   5.408   3.909   4.986 -1.1197  1.4126 -2.0691
   7523SM  H18U 9891   5.311   4.050   5.004  1.5716  1.1278  3.0386
   7523SM   C1F 9892   5.045   4.662   6.486  0.6030  0.0166 -0.0514
   7523SM    OF 9893   5.039   4.780   6.524 -0.0378 -0.3357 -0.1230
   7523SM   C2F 9894   4.923   4.579   6.475 -0.1828  0.1921 -0.2185
   7523SM   H2F 9895   4.849   4.631   6.540 -2.2717 -0.1631 -2.2008
   7523SM   H2G 9896   4.947   4.477   6.511 -0.6453 -0.8777 -2.7037
   7523SM   C3F 9897   4.854   4.579   6.337 -0.1024  0.4302 -0.3511
   7523SM   H3F 9898   4.759   4.524   6.358  0.6558 -0.8206 -0.1076
   7523SM   H3G 9899   4.908   4.520   6.260 -1.3065 -0.2930 -0.6780
   7523SM   C4F 9900   4.811   4.722   6.299  0.3544  0.1734  0.3416
   7523SM   H4F 9901   4.897   4.791   6.285 -0.2798  0.6885 -1.2986
   7523SM   H4G 9902   4.747   4.766   6.378 -2.0879 -0.6063 -1.0834
   7523SM   C5F 9903   4.728   4.725   6.169 -0.1116  0.3692  0.3820
   7523SM   H5F 9904   4.800   4.695   6.090 -0.0797 -1.5149  1.0571
   7523SM   H5G 9905   4.697   4.831   6.158  2.6834  1.0286 -2.9487
   7523SM   C6F 9906   4.609   4.622   6.163 -0.0588  0.4778 -0.0097
   7523SM   H6F 9907   4.554   4.612   6.259  1.4496 -1.1299  0.7554
   7523SM   H6G 9908   4.649   4.519   6.151 -1.4791 -0.1154  0.2524
   7523SM   C7F 9909   4.529   4.657   6.040 -0.3468  0.4332  0.0828
   7523SM   H7F 9910   4.599   4.687   5.959 -0.9150  1.7922  0.0687
   7523SM   H7G 9911   4.460   4.741   6.059 -0.8600  0.2084 -0.7140
   7523SM   C8F 9912   4.447   4.538   5.991 -0.3874  0.0087 -0.3305
   7523SM   H8F 9913   4.399   4.494   6.081 -0.4277 -0.1476 -0.4288
   7523SM   H8G 9914   4.523   4.466   5.954  0.4694  0.8953 -0.3492
   7523SM   C9F 9915   4.351   4.581   5.884 -0.1860 -0.1048  0.0280
   7523SM   H9F 9916   4.404   4.618   5.794 -0.1313 -1.0327 -0.3323
   7523SM   H9G 9917   4.288   4.661   5.927 -0.9607 -0.6091 -0.1504
   7523SM  C10F 9918   4.258   4.467   5.832 -0.4449  0.0631 -0.6379
   7523SM  H10F 9919   4.194   4.414   5.906  0.1287 -2.7842 -2.0323
   7523SM  H10G 9920   4.322   4.393   5.778 -0.0649  0.7295 -1.1223
   7523SM  C11F 9921   4.151   4.524   5.744  0.0620 -0.0654  0.2569
   7523SM  H11F 9922   4.201   4.590   5.671  0.2187  1.4603  1.6754
   7523SM  H11G 9923   4.077   4.583   5.803 -0.5193 -1.4474  0.9558
   7523SM  C12F 9924   4.084   4.409   5.666  0.2327  0.0013  0.5202
   7523SM  H12F 9925   4.053   4.338   5.746  1.2975 -0.3881  0.5967
   7523SM  H12G 9926   4.155   4.358   5.598 -0.7884 -1.9033  0.8174
   7523SM  C13F 9927   3.967   4.457   5.578 -0.0877  0.6458  0.4285
   7523SM  H13F 9928   4.000   4.537   5.508 -0.0531  0.7990  0.6196
   7523SM  H13G 9929   3.893   4.501   5.648  0.5832 -0.5055  1.9089
   7523SM  C14F 9930   3.905   4.335   5.502 -0.6108  0.0172 -0.5325
   7523SM  H14F 9931   3.886   4.256   5.578  0.6333  0.4715  0.2727
   7523SM  H14G 9932   3.969   4.291   5.423 -1.6284 -1.8478 -0.3807
   7523SM  C15F 9933   3.770   4.373   5.447  1.0374 -0.2860 -0.3813
   7523SM  H15F 9934   3.785   4.434   5.355  2.2317 -1.0391 -0.7133
   7523SM  H15G 9935   3.723   4.436   5.525 -1.0934 -1.1805 -0.8763
   7523SM  C16F 9936   3.675   4.256   5.413  0.2523 -0.2166  0.1458
   7523SM  H16F 9937   3.639   4.207   5.506  0.0833  0.8026  0.6406
   7523SM  H16G 9938   3.731   4.190   5.343  1.1874 -0.2099  0.8667
   7523SM  C17F 9939   3.550   4.312   5.346 -0.0902  0.0151 -0.2123
   7523SM  H17F 9940   3.581   4.378   5.263 -0.4302 -3.4029 -3.2910
   7523SM  H17G 9941   3.494   4.378   5.416  0.2853 -0.7783  0.8605
   7523SM  C18F 9942   3.457   4.208   5.279  0.4988 -0.2572 -0.1001
   7523SM  H18F 9943   3.522   4.131   5.231  1.5956  0.5848 -0.0015
   7523SM  H18G 9944   3.392   4.259   5.204  0.8735 -1.5665 -1.3566
   7523SM  C19F 9945   3.366   4.136   5.372 -0.1032  0.2245 -0.6923
   7523SM  H19F 9946   3.426   4.096   5.457  0.7387  2.2024 -0.2950
   7523SM  H19G 9947   3.336   4.039   5.328 -0.3719 -0.0907  0.1613
   7523SM  C20F 9948   3.256   4.234   5.420  0.0383 -0.2981 -0.1552
   7523SM  H20F 9949   3.218   4.280   5.327 -0.3579 -0.2838  0.0087
   7523SM  H20G 9950   3.300   4.310   5.488 -1.8217  1.4320 -0.7720
   7523SM  C21F 9951   3.138   4.164   5.480 -0.0412 -0.4122 -0.1341
   7523SM  H21F 9952   3.164   4.120   5.578 -0.1146  0.8834  0.4809
   7523SM  H21G 9953   3.118   4.084   5.405  4.0165 -0.4595 -1.4180
   7523SM  C22F 9954   3.014   4.255   5.493 -0.3332  0.3544 -0.0530
   7523SM  H22F 9955   2.972   4.275   5.392 -0.0984  1.3296  0.0227
   7523SM  H22G 9956   3.045   4.353   5.536  2.1717 -1.3256  2.3561
   7523SM  C23F 9957   2.912   4.197   5.582  0.6489  0.2450 -0.2361
   7523SM  H23F 9958   2.863   4.122   5.517  1.9760 -0.7936 -0.0811
   7523SM  H23G 9959   2.841   4.280   5.603  0.8179  0.2402  0.3834
   7523SM  H23H 9960   2.953   4.151   5.674  0.6645 -1.5620 -1.1004
   7623SM     N 9961   7.137   4.132   7.035  0.3147  0.4933 -0.1364
   7623SM   C15 9962   7.008   4.159   7.096  0.0097  0.3610  0.3044
   7623SM  H15A 9963   6.929   4.157   7.023 -0.6900 -1.7749  1.0368
   7623SM  H15B 9964   7.008   4.252   7.151  3.1599 -0.7156  2.4699
   7623SM  H15C 9965   6.989   4.083   7.171  2.1203  0.6195  1.1887
   7623SM   C14 9966   7.152   4.203   6.906  0.4222 -0.1748  0.4015
   7623SM  H14A 9967   7.075   4.178   6.835 -2.1024 -0.8907  3.1705
   7623SM  H14B 9968   7.251   4.184   6.866 -0.1006 -2.5597  0.0617
   7623SM  H14C 9969   7.142   4.308   6.928  0.4012 -0.3205  1.1112
   7623SM   C13 9970   7.232   4.186   7.143  0.4319  0.0344 -0.1012
   7623SM  H13A 9971   7.331   4.197   7.101  0.3866 -0.9867 -0.5154
   7623SM  H13B 9972   7.229   4.123   7.231  0.2740  1.9754  1.3666
   7623SM  H13C 9973   7.206   4.288   7.167  1.8706 -0.0910  2.4286
   7623SM   C12 9974   7.163   3.985   7.015 -0.2420  0.4238  0.6657
   7623SM  H12A 9975   7.263   3.974   6.976  0.1895  2.2198  1.2037
   7623SM  H12B 9976   7.099   3.936   6.942  1.4422 -1.0668  0.1068
   7623SM   C11 9977   7.168   3.896   7.148 -0.6656  0.3875  0.3685
   7623SM  H11A 9978   7.230   3.943   7.227  0.5510 -0.9077  0.2408
   7623SM  H11B 9979   7.227   3.804   7.127 -1.6813 -0.2473  0.1946
   7623SM     P 9980   6.956   3.732   7.121 -0.1382 -0.3372  0.1647
   7623SM   O13 9981   6.984   3.613   7.200  0.4011 -0.1606  0.3654
   7623SM   O14 9982   6.814   3.772   7.105 -0.3728 -0.3832  0.1748
   7623SM   O11 9983   7.023   3.721   6.980  0.0696 -0.1502 -0.5709
   7623SM   O12 9984   7.035   3.852   7.190 -0.2558 -0.1038 -0.0753
   7623SM   C1S 9985   6.942   3.712   6.863 -0.6145  0.4193  0.2053
   7623SM   H1S 9986   6.914   3.811   6.819 -0.0181  1.4054  1.9453
   7623SM   H1T 9987   6.844   3.660   6.869 -0.7631  0.3189 -2.0482
   7623SM    NF 9988   6.920   3.623   6.634  0.0757  0.0254  0.5292
   7623SM   HNF 9989   6.859   3.545   6.629  0.2150 -0.1183  1.0111
   7623SM   C2S 9990   7.012   3.626   6.753 -0.4645 -0.4570  0.0729
   7623SM   H2S 9991   7.107   3.678   6.729 -1.0757  1.7489  2.1117
   7623SM   C3S 9992   7.051   3.477   6.806 -0.4679 -0.2908  0.3669
   7623SM   H3S 9993   6.954   3.425   6.814  0.0059 -1.1358  0.7901
   7623SM    O3 9994   7.109   3.479   6.937  0.0044  0.6020  0.0935
   7623SM   HO3 9995   7.088   3.572   6.950 -0.2383  0.6386 -0.5199
   7623SM   C4S 9996   7.131   3.416   6.692  0.0387  0.2302  0.0081
   7623SM   H4S 9997   7.083   3.335   6.635  0.6671 -0.0094 -0.2033
   7623SM   C5S 9998   7.256   3.447   6.658 -0.1862 -0.3217  0.1438
   7623SM   H5S 9999   7.306   3.523   6.719 -0.5319  0.7165 -0.8259
   7623SM   C6S10000   7.340   3.380   6.549  0.2692 -0.1964  0.1547
   7623SM   H6S10001   7.418   3.318   6.597 -0.8388 -1.0404  0.9094
   7623SM   H6T10002   7.392   3.460   6.492 -1.4208  0.6142 -0.3392
   7623SM   C7S10003   7.266   3.294   6.447 -0.0535 -0.0603  0.5575
   7623SM   H7S10004   7.195   3.221   6.493  1.8998 -1.7288  1.0555
   7623SM   H7T10005   7.335   3.223   6.397 -0.4186  0.2152 -0.3455
   7623SM   C8S10006   7.191   3.367   6.337  0.3734 -0.4319  0.4234
   7623SM   H8S10007   7.112   3.430   6.383 -0.5234 -2.3331  1.5984
   7623SM   H8T10008   7.148   3.307   6.254  1.5994  1.4293 -1.6787
   7623SM   C9S10009   7.293   3.455   6.255 -0.1604 -0.0735  0.2654
   7623SM   H9S10010   7.374   3.391   6.214 -0.2679 -0.7527  1.0925
   7623SM   H9T10011   7.338   3.537   6.315  1.7948  0.3335 -1.6010
   7623SM  C10S10012   7.214   3.521   6.144 -0.4264  0.2600 -0.1687
   7623SM  H10S10013   7.136   3.583   6.194  0.5259 -0.5433  2.4561
   7623SM  H10T10014   7.166   3.448   6.075 -2.0316  0.8542  0.2722
   7623SM  C11S10015   7.300   3.618   6.063  0.9462  0.4669 -0.2631
   7623SM  H11S10016   7.375   3.570   5.996  0.2567  0.7754 -1.2845
   7623SM  H11T10017   7.346   3.685   6.138 -2.7651  2.3293  0.5625
   7623SM  C12S10018   7.206   3.699   5.966  0.5980  0.3876 -0.1988
   7623SM  H12S10019   7.128   3.737   6.035  2.7335  0.7937  2.1299
   7623SM  H12T10020   7.158   3.629   5.895 -2.6705  0.5355  1.6600
   7623SM  C13S10021   7.257   3.829   5.910 -0.0527  0.5507  0.5725
   7623SM  H13S10022   7.344   3.805   5.846  0.6289  2.9167  0.5142
   7623SM  H13T10023   7.272   3.902   5.992  0.1405 -0.0160  1.0492
   7623SM  C14S10024   7.163   3.891   5.802  0.3789  0.3577  0.0842
   7623SM  H14S10025   7.077   3.936   5.857 -0.1237 -1.0484  0.4917
   7623SM  H14T10026   7.125   3.811   5.735  0.6341  0.6556 -0.4176
   7623SM  C15S10027   7.242   3.990   5.711  0.0525  0.3414 -0.1201
   7623SM  H15S10028   7.283   3.933   5.626 -1.2190  0.3560 -0.7789
   7623SM  H15T10029   7.322   4.039   5.771  0.1775  0.6861 -0.5581
   7623SM  C16S10030   7.161   4.096   5.639  0.1630 -0.7213 -0.2210
   7623SM  H16S10031   7.125   4.175   5.708  1.2458 -1.9874  1.8763
   7623SM  H16T10032   7.069   4.042   5.605 -0.9868  1.1295 -0.2039
   7623SM  C17S10033   7.228   4.166   5.513 -0.7139  0.2941  0.3066
   7623SM  H17S10034   7.155   4.225   5.454 -0.4637  2.7094  2.2556
   7623SM  H17T10035   7.279   4.089   5.451 -0.8110  0.4441  0.0399
   7623SM  C18S10036   7.333   4.267   5.553  0.2905 -0.4262  0.6864
   7623SM  H18S10037   7.422   4.219   5.600 -0.7469 -1.6091  1.5430
   7623SM  H18T10038   7.290   4.339   5.625  0.7733  0.0101  0.5402
   7623SM  H18U10039   7.363   4.337   5.472 -2.5305  0.4594  0.3299
   7623SM   C1F10040   6.916   3.731   6.552  0.0562 -0.1533 -0.4631
   7623SM    OF10041   6.999   3.825   6.560  0.0119  0.0894  0.5134
   7623SM   C2F10042   6.798   3.728   6.451 -0.2831 -0.3029 -0.5575
   7623SM   H2F10043   6.714   3.780   6.502 -2.2757 -0.5785 -3.3378
   7623SM   H2G10044   6.751   3.629   6.431  0.1498 -0.4066 -1.0652
   7623SM   C3F10045   6.836   3.782   6.311  0.9483  0.1015  0.8307
   7623SM   H3F10046   6.927   3.736   6.267  0.3154  0.4522 -0.9322
   7623SM   H3G10047   6.854   3.891   6.330 -0.6806  0.6352 -0.4969
   7623SM   C4F10048   6.716   3.785   6.218  0.1328 -0.4524  1.1028
   7623SM   H4F10049   6.621   3.820   6.263 -0.4602 -1.2120  0.4712
   7623SM   H4G10050   6.698   3.680   6.188 -1.8506 -0.1033  0.9612
   7623SM   C5F10051   6.745   3.867   6.093 -0.3807  0.7524 -0.4640
   7623SM   H5F10052   6.824   3.826   6.026 -0.5188  1.0895 -0.8379
   7623SM   H5G10053   6.780   3.969   6.119 -2.2187  1.0066  1.2270
   7623SM   C6F10054   6.627   3.865   5.998 -0.4671  0.0235  0.1032
   7623SM   H6F10055   6.543   3.920   6.046 -0.4082  1.4896 -1.3765
   7623SM   H6G10056   6.583   3.764   5.985 -2.4143  0.8630 -0.1889
   7623SM   C7F10057   6.650   3.913   5.851 -0.1660 -0.4158 -0.2184
   7623SM   H7F10058   6.547   3.925   5.812 -0.8766 -1.2032  1.3389
   7623SM   H7G10059   6.692   3.830   5.791  0.8680 -1.1822  1.4623
   7623SM   C8F10060   6.735   4.046   5.843  0.9426  0.4740 -0.2317
   7623SM   H8F10061   6.842   4.033   5.872  0.9273 -0.9807 -0.7343
   7623SM   H8G10062   6.688   4.114   5.917  0.3199 -0.2280  0.0200
   7623SM   C9F10063   6.742   4.124   5.709 -0.3482 -0.0015  0.0181
   7623SM   H9F10064   6.843   4.170   5.708 -0.6204  0.8270  2.6843
   7623SM   H9G10065   6.669   4.207   5.695  1.4579  1.5299 -0.7606
   7623SM  C10F10066   6.734   4.030   5.586  0.3202 -0.1672 -0.9717
   7623SM  H10F10067   6.625   4.009   5.574  0.2107  0.3001 -0.8192
   7623SM  H10G10068   6.791   3.939   5.616  2.0274  1.7882  2.1886
   7623SM  C11F10069   6.785   4.084   5.449 -0.6600  0.0821 -0.7287
   7623SM  H11F10070   6.768   4.004   5.375  0.1054 -0.9237  0.1438
   7623SM  H11G10071   6.896   4.095   5.453 -0.5748 -0.7626 -0.5277
   7623SM  C12F10072   6.736   4.216   5.394  0.1413 -0.1799  0.4565
   7623SM  H12F10073   6.743   4.291   5.475 -2.3651 -0.1382  0.7074
   7623SM  H12G10074   6.625   4.208   5.384  0.0989 -0.9358  1.3565
   7623SM  C13F10075   6.797   4.256   5.260  0.7982  0.8577  0.9242
   7623SM  H13F10076   6.790   4.171   5.188  0.9519  1.3681  0.3037
   7623SM  H13G10077   6.901   4.283   5.291  1.0289 -0.3124  1.2306
   7623SM  C14F10078   6.731   4.387   5.211  0.0346  0.7196  0.0276
   7623SM  H14F10079   6.716   4.453   5.298 -1.0302 -0.3579  0.6947
   7623SM  H14G10080   6.631   4.365   5.168 -0.4940  0.3291  1.4209
   7623SM  C15F10081   6.822   4.475   5.124 -0.0579 -0.1849 -0.7424
   7623SM  H15F10082   6.848   4.420   5.032 -0.5659 -0.2442 -0.8545
   7623SM  H15G10083   6.920   4.501   5.170  0.5143 -1.2282 -1.3310
   7623SM  C16F10084   6.755   4.602   5.091  0.1872  0.4221  0.1041
   7623SM  H16F10085   6.715   4.639   5.188  1.5031  1.4308  0.2901
   7623SM  H16G10086   6.674   4.585   5.017  0.9886  1.7584 -1.1157
   7623SM  C17F10087   6.851   4.712   5.036  0.2716  0.1739 -0.2091
   7623SM  H17F10088   6.885   4.675   4.937  0.2669 -0.4987  0.0393
   7623SM  H17G10089   6.939   4.726   5.102 -0.6108  0.2472  0.9859
   7623SM  C18F10090   6.776   4.845   5.029  0.0552 -0.1342  0.9019
   7623SM  H18F10091   6.845   4.931   5.019  0.2972 -0.6316 -3.1318
   7623SM  H18G10092   6.717   4.864   5.121  0.6186  1.8857  0.8870
   7623SM  C19F10093   6.690   4.861   4.911  0.3363  0.2879 -0.6033
   7623SM  H19F10094   6.602   4.794   4.914  0.0636  0.6854  0.7835
   7623SM  H19G10095   6.742   4.854   4.812 -0.0679  0.1212 -0.8036
   7623SM  C20F10096   6.633   5.008   4.912 -0.0142 -0.7068 -0.9256
   7623SM  H20F10097   6.714   5.081   4.889 -1.3084  0.2735 -2.5736
   7623SM  H20G10098   6.595   5.028   5.014 -1.4248  1.5232 -1.8082
   7623SM  C21F10099   6.521   5.040   4.818  0.9352  0.3312 -0.7323
   7623SM  H21F10100   6.441   4.963   4.827  1.8068 -0.5111  0.0474
   7623SM  H21G10101   6.566   5.043   4.716  0.9241  0.7890 -0.7249
   7623SM  C22F10102   6.454   5.176   4.849 -0.3155  0.2449 -0.0183
   7623SM  H22F10103   6.428   5.191   4.956  2.9118  3.3282  0.5211
   7623SM  H22G10104   6.360   5.173   4.790  0.2503 -3.3173 -1.0160
   7623SM  C23F10105   6.542   5.293   4.812  0.1134  0.1500  0.2055
   7623SM  H23F10106   6.502   5.384   4.861  0.1320 -0.6633  1.7850
   7623SM  H23G10107   6.558   5.305   4.702 -1.1541  1.3654  0.1157
   7623SM  H23H10108   6.641   5.281   4.859 -1.0916 -1.4391  2.5047
   7723SM     N10109   0.483   1.825   6.640  0.1291  0.1539  0.1982
   7723SM   C1510110   0.569   1.947   6.611 -0.3823 -0.1591  0.6081
   7723SM  H15A10111   0.538   1.994   6.519  2.5483 -1.0463 -0.9724
   7723SM  H15B10112   0.676   1.934   6.599 -0.3972  0.5646 -0.3645
   7723SM  H15C10113   0.560   2.019   6.691 -2.7325  0.4041 -0.1092
   7723SM   C1410114   0.347   1.882   6.664  0.4985  0.4582 -0.8105
   7723SM  H14A10115   0.296   1.897   6.570  0.7445  1.3857 -0.8042
   7723SM  H14B10116   0.344   1.973   6.722  0.7520  0.3644 -0.6490
   7723SM  H14C10117   0.284   1.813   6.718  1.0885  1.6695  1.5308
   7723SM   C1310118   0.472   1.731   6.528 -0.1414  0.1384  0.6739
   7723SM  H13A10119   0.570   1.698   6.497 -0.3635  2.0364 -2.5207
   7723SM  H13B10120   0.418   1.777   6.447  0.5856 -0.0171  0.0827
   7723SM  H13C10121   0.401   1.654   6.554  1.6884 -1.3950  1.3454
   7723SM   C1210122   0.540   1.751   6.758 -0.1234  0.3563 -0.3416
   7723SM  H12A10123   0.539   1.815   6.844 -0.7773  0.2386 -0.2580
   7723SM  H12B10124   0.645   1.749   6.730  0.1878 -0.0970  0.7978
   7723SM   C1110125   0.493   1.605   6.792  0.5392 -0.8935 -0.0248
   7723SM  H11A10126   0.530   1.581   6.894 -0.6647 -0.0030  0.6444
   7723SM  H11B10127   0.538   1.526   6.728  0.8784 -0.6485 -0.0968
   7723SM     P10128   0.254   1.510   6.708 -0.1425 -0.0219  0.0883
   7723SM   O1310129   0.243   1.386   6.792  0.4193 -0.5366  0.3383
   7723SM   O1410130   0.133   1.587   6.681  0.2897 -0.0059  0.1095
   7723SM   O1110131   0.332   1.481   6.577 -0.3561 -0.0198  0.6483
   7723SM   O1210132   0.353   1.599   6.787  0.3204 -0.3896  0.1562
   7723SM   C1S10133   0.318   1.341   6.518 -0.1535 -0.4228 -0.6142
   7723SM   H1S10134   0.301   1.263   6.596 -0.2498  0.6304  0.4561
   7723SM   H1T10135   0.415   1.305   6.478 -0.3815 -0.1308 -1.4412
   7723SM    NF10136   0.203   1.177   6.365 -0.0875 -0.3268 -0.8209
   7723SM   HNF10137   0.254   1.157   6.282  2.6263 -3.0159  1.2706
   7723SM   C2S10138   0.214   1.319   6.404 -0.0549 -0.0305 -0.3147
   7723SM   H2S10139   0.115   1.354   6.441 -0.1238 -0.0545 -0.4774
   7723SM   C3S10140   0.245   1.413   6.283 -0.1318 -0.9376  0.1791
   7723SM   H3S10141   0.343   1.380   6.242  0.2681  1.4456 -0.9574
   7723SM    O310142   0.270   1.551   6.318  0.1618 -0.4092  0.2045
   7723SM   HO310143   0.289   1.540   6.412  2.7000 -0.0140 -0.1762
   7723SM   C4S10144   0.149   1.398   6.163 -0.2909  1.0690 -0.2105
   7723SM   H4S10145   0.198   1.365   6.070 -1.7416  1.0351 -0.9886
   7723SM   C5S10146   0.036   1.465   6.156 -0.2397  0.3789  0.9580
   7723SM   H5S10147  -0.005   1.525   6.238 -0.2463 -0.0876  1.2938
   7723SM   C6S10148  -0.041   1.477   6.029 -0.0001 -0.6717 -0.1793
   7723SM   H6S10149  -0.059   1.582   5.999  0.8572 -0.4349  0.1103
   7723SM   H6T10150  -0.135   1.417   6.034 -0.2640 -0.4309 -1.8449
   7723SM   C7S10151   0.036   1.433   5.901  0.1464  0.0835 -0.6137
   7723SM   H7S10152   0.073   1.329   5.911 -0.8874 -0.2006  0.6048
   7723SM   H7T10153   0.123   1.501   5.899  0.8647 -0.7663  0.5771
   7723SM   C8S10154  -0.049   1.446   5.774 -0.5162  0.0357 -0.6410
   7723SM   H8S10155  -0.084   1.552   5.771  0.3191  0.3425 -0.0238
   7723SM   H8T10156  -0.136   1.379   5.788  0.2860 -1.1406 -1.1054
   7723SM   C9S10157   0.026   1.402   5.650  0.5019 -0.4208  1.1950
   7723SM   H9S10158   0.018   1.291   5.642  2.7442 -0.6237  1.2617
   7723SM   H9T10159   0.132   1.427   5.669  1.2801 -3.3935  1.3910
   7723SM  C10S10160  -0.026   1.473   5.522 -0.4372 -0.4149 -0.4168
   7723SM  H10S10161  -0.044   1.582   5.535 -3.0151 -0.6051 -1.7156
   7723SM  H10T10162  -0.126   1.431   5.497 -1.0428 -0.6592  2.1003
   7723SM  C11S10163   0.066   1.451   5.391  0.7072  0.4606 -0.0560
   7723SM  H11S10164   0.045   1.345   5.370 -1.6892  1.0506 -0.8720
   7723SM  H11T10165   0.173   1.469   5.417  0.3751  0.1397  1.6777
   7723SM  C12S10166   0.023   1.533   5.273 -0.4797 -0.0761 -0.4254
   7723SM  H12S10167   0.026   1.640   5.304 -0.6069 -0.2147  0.0812
   7723SM  H12T10168  -0.079   1.499   5.244 -0.9132  1.3234 -0.6420
   7723SM  C13S10169   0.126   1.527   5.154 -0.0583 -0.0478  0.2300
   7723SM  H13S10170   0.225   1.569   5.181  0.1415 -0.1232 -0.3767
   7723SM  H13T10171   0.083   1.589   5.073  1.6363  0.1541 -0.5540
   7723SM  C14S10172   0.139   1.382   5.095  0.2482  0.1465  0.4010
   7723SM  H14S10173   0.045   1.358   5.040  2.6114 -2.3184 -3.0215
   7723SM  H14T10174   0.159   1.305   5.172  3.3329  0.8666  0.4558
   7723SM  C15S10175   0.249   1.377   4.987 -0.0654 -0.3036  0.1080
   7723SM  H15S10176   0.266   1.274   4.950  1.2543 -0.5208  1.2371
   7723SM  H15T10177   0.343   1.413   5.036  1.6695 -1.1216 -2.4310
   7723SM  C16S10178   0.228   1.462   4.865 -1.1440 -0.5314 -0.0545
   7723SM  H16S10179   0.214   1.569   4.894  0.6335 -0.3887  0.3467
   7723SM  H16T10180   0.142   1.416   4.811 -0.5660 -1.4569 -0.1993
   7723SM  C17S10181   0.347   1.458   4.768 -0.2054 -0.4106 -0.5401
   7723SM  H17S10182   0.373   1.353   4.744 -1.8653 -0.5108 -2.1345
   7723SM  H17T10183   0.438   1.500   4.816 -1.7368  2.0024  0.4451
   7723SM  C18S10184   0.327   1.560   4.651  0.0002  0.4880 -0.0934
   7723SM  H18S10185   0.263   1.511   4.574 -3.1504  0.4251  2.3855
   7723SM  H18T10186   0.426   1.586   4.608  0.3178  1.3941  1.1412
   7723SM  H18U10187   0.265   1.646   4.681 -0.1575 -0.3171  2.0856
   7723SM   C1F10188   0.143   1.085   6.435  0.3915  0.2501  0.3205
   7723SM    OF10189   0.071   1.107   6.531 -0.2127  0.3850 -0.3049
   7723SM   C2F10190   0.156   0.951   6.385 -0.2638  0.5462 -0.6398
   7723SM   H2F10191   0.221   0.901   6.460 -0.9560  2.4503  1.3423
   7723SM   H2G10192   0.213   0.957   6.290  1.4356  1.6241  0.3999
   7723SM   C3F10193   0.015   0.877   6.378 -0.2962  0.1854 -0.5829
   7723SM   H3F10194  -0.037   0.901   6.473 -1.8007  0.3307 -1.4088
   7723SM   H3G10195   0.027   0.767   6.379  0.1555  0.2322  0.6991
   7723SM   C4F10196  -0.061   0.921   6.251 -0.0705 -0.1827  0.4277
   7723SM   H4F10197  -0.067   1.032   6.248 -3.5925 -0.2079  2.0989
   7723SM   H4G10198  -0.166   0.889   6.263 -0.6298  1.0824 -0.8300
   7723SM   C5F10199   0.008   0.867   6.128 -0.7190 -0.0379  0.1818
   7723SM   H5F10200  -0.059   0.781   6.106 -0.6963 -0.4629  1.6392
   7723SM   H5G10201   0.115   0.843   6.145  0.1587  2.2220 -1.7230
   7723SM   C6F10202   0.031   0.966   6.011 -0.6763 -0.0714  0.0576
   7723SM   H6F10203   0.088   1.056   6.045  0.2365 -0.3352 -0.7460
   7723SM   H6G10204  -0.064   1.009   5.972 -0.1806 -0.7502 -2.0223
   7723SM   C7F10205   0.106   0.896   5.897 -0.3640 -0.2218  0.3509
   7723SM   H7F10206   0.034   0.836   5.837 -1.3677 -1.9218  3.0563
   7723SM   H7G10207   0.185   0.833   5.942  1.5247  0.3406 -1.9602
   7723SM   C8F10208   0.183   0.994   5.815  0.1205 -0.0436 -0.4187
   7723SM   H8F10209   0.260   1.054   5.869 -1.9781  0.4541  2.2018
   7723SM   H8G10210   0.112   1.071   5.777  0.8790  2.1584  2.2887
   7723SM   C9F10211   0.269   0.919   5.712 -0.0514  0.9953  0.5762
   7723SM   H9F10212   0.329   0.841   5.763 -3.9809 -2.3136  0.6653
   7723SM   H9G10213   0.333   0.995   5.662 -0.8123  2.6622  2.0568
   7723SM  C10F10214   0.195   0.844   5.600 -0.4522 -0.0092 -0.5188
   7723SM  H10F10215   0.137   0.915   5.537  0.4800  1.1214 -0.1454
   7723SM  H10G10216   0.119   0.770   5.633  0.4885 -0.5753  0.4411
   7723SM  C11F10217   0.287   0.771   5.493  1.2388 -0.2039 -0.2331
   7723SM  H11F10218   0.333   0.687   5.549 -0.6955 -0.4472  1.0792
   7723SM  H11G10219   0.369   0.842   5.469  1.3122 -0.9098 -2.2391
   7723SM  C12F10220   0.225   0.725   5.361 -0.0790  0.4426  0.0028
   7723SM  H12F10221   0.164   0.814   5.337 -0.9977  0.5166  2.3780
   7723SM  H12G10222   0.147   0.646   5.368  1.5641 -1.2640 -0.1566
   7723SM  C13F10223   0.329   0.683   5.258 -0.0975  0.1126 -0.3737
   7723SM  H13F10224   0.380   0.601   5.314 -0.1733 -0.0449 -0.5329
   7723SM  H13G10225   0.398   0.769   5.251  0.3241 -0.2290 -0.4240
   7723SM  C14F10226   0.294   0.640   5.120  0.8669  0.6364  0.3135
   7723SM  H14F10227   0.381   0.625   5.054  1.3730  0.1106  1.0826
   7723SM  H14G10228   0.222   0.713   5.077 -2.3609 -1.6561  1.3726
   7723SM  C15F10229   0.214   0.505   5.112  0.1618  0.3841  0.3887
   7723SM  H15F10230   0.106   0.521   5.136  0.2336 -0.7153  1.5827
   7723SM  H15G10231   0.251   0.442   5.195 -2.1210  0.2333  1.3552
   7723SM  C16F10232   0.223   0.442   4.971 -0.4072  0.6431  0.0080
   7723SM  H16F10233   0.188   0.337   4.978 -0.7760  0.7400 -0.3570
   7723SM  H16G10234   0.333   0.434   4.952 -0.4556 -1.2752  0.3504
   7723SM  C17F10235   0.160   0.511   4.850  0.5627  0.4363 -0.3517
   7723SM  H17F10236   0.198   0.616   4.855  1.1863  0.2436 -0.8148
   7723SM  H17G10237   0.050   0.521   4.863  0.4964 -0.1494 -0.4430
   7723SM  C18F10238   0.190   0.463   4.708  0.2860  0.6492  0.2982
   7723SM  H18F10239   0.148   0.361   4.694  1.2194  0.0628  1.5169
   7723SM  H18G10240   0.301   0.452   4.705  0.2437 -0.0752  1.0815
   7723SM  C19F10241   0.142   0.562   4.602 -0.0794 -0.0871 -0.1103
   7723SM  H19F10242   0.160   0.667   4.632  2.4600 -0.5812  0.3306
   7723SM  H19G10243   0.034   0.539   4.593 -0.7453  1.9737  1.7595
   7723SM  C20F10244   0.221   0.547   4.473 -0.9722  0.0693 -0.2244
   7723SM  H20F10245   0.223   0.444   4.433 -2.1755  0.3250 -0.9998
   7723SM  H20G10246   0.327   0.574   4.488 -0.2290 -1.7415 -1.8540
   7723SM  C21F10247   0.162   0.628   4.355  0.1688 -0.5995 -0.6715
   7723SM  H21F10248   0.134   0.732   4.381 -0.4862 -0.7541 -0.7534
   7723SM  H21G10249   0.067   0.573   4.341 -0.1230 -0.7264  1.4786
   7723SM  C22F10250   0.252   0.625   4.231 -0.0730  0.3344  0.5023
   7723SM  H22F10251   0.354   0.650   4.267 -0.4036 -0.5874  2.2052
   7723SM  H22G10252   0.227   0.716   4.173  0.3811  0.8194  1.0588
   7723SM  C23F10253   0.244   0.504   4.136 -0.2392  0.2019  0.2628
   7723SM  H23F10254   0.142   0.484   4.098  0.1894  0.6092 -1.1673
   7723SM  H23G10255   0.274   0.412   4.192  1.0755  0.4641  0.0185
   7723SM  H23H10256   0.308   0.523   4.047  0.1571  1.4698  0.8069
   7823SM     N10257   1.785   6.187   6.656  0.6482  0.4322 -0.1662
   7823SM   C1510258   1.670   6.106   6.599  0.0920  0.0778 -0.2104
   7823SM  H15A10259   1.695   6.001   6.590 -0.7668 -0.0432 -1.6042
   7823SM  H15B10260   1.648   6.134   6.497 -1.3590 -0.2799 -0.0221
   7823SM  H15C10261   1.580   6.108   6.659  0.8635 -1.5444  1.0719
   7823SM   C1410262   1.902   6.179   6.556  0.5074  0.3862  0.5686
   7823SM  H14A10263   1.971   6.254   6.590 -0.3941  0.4095  2.4694
   7823SM  H14B10264   1.877   6.213   6.456  1.6174 -0.3341  0.0322
   7823SM  H14C10265   1.927   6.074   6.554 -1.4723 -0.1474  1.0282
   7823SM   C1310266   1.747   6.328   6.675  0.0010 -0.2549  0.2905
   7823SM  H13A10267   1.830   6.382   6.719 -0.2420  0.4667 -0.1198
   7823SM  H13B10268   1.660   6.338   6.738  0.1370  2.2915  0.1785
   7823SM  H13C10269   1.717   6.359   6.576 -0.6911 -1.9911 -0.0832
   7823SM   C1210270   1.841   6.138   6.792  0.0008  0.3594 -0.4128
   7823SM  H12A10271   1.912   6.206   6.837 -1.0657  0.5310  1.0647
   7823SM  H12B10272   1.897   6.047   6.776 -0.2984  0.3441 -1.4198
   7823SM   C1110273   1.741   6.109   6.906 -0.3819  1.1280 -0.1936
   7823SM  H11A10274   1.802   6.057   6.983 -0.2375  3.5708  1.4477
   7823SM  H11B10275   1.657   6.042   6.879  1.0695 -1.4114  1.2495
   7823SM     P10276   1.543   6.257   6.993 -0.3949 -0.2854 -0.3059
   7823SM   O1310277   1.484   6.132   7.050  0.0998  0.1039  1.3349
   7823SM   O1410278   1.514   6.383   7.067 -0.5407  0.6444  0.3381
   7823SM   O1110279   1.488   6.266   6.848  0.4455 -0.2041 -0.1408
   7823SM   O1210280   1.694   6.225   6.969  0.0644 -0.1492 -0.9576
   7823SM   C1S10281   1.428   6.379   6.785  0.2852  0.8385 -0.0052
   7823SM   H1S10282   1.501   6.461   6.768 -0.3224  1.3358 -0.2707
   7823SM   H1T10283   1.351   6.425   6.851  0.1314  2.7080 -1.4043
   7823SM    NF10284   1.303   6.456   6.593 -0.0711 -0.4422 -0.0060
   7823SM   HNF10285   1.205   6.444   6.581 -0.2814  0.0625  1.0735
   7823SM   C2S10286   1.364   6.336   6.653 -0.5369  0.3359  0.8095
   7823SM   H2S10287   1.441   6.297   6.582  0.5114  1.3058  1.3707
   7823SM   C3S10288   1.264   6.230   6.671  0.5755 -0.5897  0.6282
   7823SM   H3S10289   1.185   6.280   6.731  2.7105  0.2470  2.8957
   7823SM    O310290   1.309   6.120   6.744  0.6476  0.4791  0.5786
   7823SM   HO310291   1.387   6.154   6.787  2.0224  0.6234 -1.8575
   7823SM   C4S10292   1.207   6.177   6.542 -0.3170 -0.0739 -0.1666
   7823SM   H4S10293   1.288   6.155   6.470  2.3042 -0.9307  2.8000
   7823SM   C5S10294   1.082   6.159   6.506 -0.5854  0.8820  0.1416
   7823SM   H5S10295   0.996   6.188   6.568 -2.0616 -0.9961 -0.9205
   7823SM   C6S10296   1.041   6.125   6.363 -0.2934  0.0165  0.1871
   7823SM   H6S10297   0.959   6.052   6.381 -0.6649  0.5446  0.6765
   7823SM   H6T10298   1.128   6.084   6.306  1.3099  2.5720  0.6293
   7823SM   C7S10299   0.997   6.248   6.283 -0.5138  0.2220 -0.1323
   7823SM   H7S10300   0.938   6.318   6.346 -0.8791 -0.1500 -0.0565
   7823SM   H7T10301   0.933   6.212   6.199 -0.9275  0.9167 -0.1234
   7823SM   C8S10302   1.118   6.327   6.227  0.2074 -0.2269 -0.7938
   7823SM   H8S10303   1.194   6.262   6.179 -0.2346  0.2013 -2.1199
   7823SM   H8T10304   1.175   6.362   6.315  0.1542 -2.4581  0.2062
   7823SM   C9S10305   1.087   6.436   6.120 -0.7756  0.7024  0.7401
   7823SM   H9S10306   1.047   6.530   6.165  0.0148  0.7739  1.3242
   7823SM   H9T10307   1.011   6.403   6.046  0.8424  1.0407 -1.1770
   7823SM  C10S10308   1.211   6.472   6.040 -0.3443  0.3309 -0.3489
   7823SM  H10S10309   1.254   6.379   5.996  0.4156 -0.0796  1.1966
   7823SM  H10T10310   1.282   6.509   6.117 -1.6881  1.2657  0.4688
   7823SM  C11S10311   1.187   6.584   5.947  0.6388  0.0291  0.1652
   7823SM  H11S10312   1.140   6.669   6.002 -1.9686 -0.0264 -1.7684
   7823SM  H11T10313   1.104   6.545   5.885 -0.6505 -0.2654  1.9712
   7823SM  C12S10314   1.311   6.628   5.866 -0.2609  0.3720 -0.0119
   7823SM  H12S10315   1.342   6.530   5.824 -0.3033 -0.4042  1.6621
   7823SM  H12T10316   1.392   6.672   5.929 -1.1219  0.3214  1.1637
   7823SM  C13S10317   1.291   6.718   5.739  0.5049  0.5249  0.4844
   7823SM  H13S10318   1.382   6.709   5.676  0.2294  1.6875 -0.1235
   7823SM  H13T10319   1.290   6.821   5.782  2.3939  0.4436  0.8221
   7823SM  C14S10320   1.155   6.682   5.666 -0.5429  0.2623  0.0252
   7823SM  H14S10321   1.132   6.760   5.591  1.6585 -0.5940 -1.6363
   7823SM  H14T10322   1.071   6.683   5.740  0.7657  1.3181  1.5558
   7823SM  C15S10323   1.148   6.541   5.601 -0.7898 -0.4452 -0.0159
   7823SM  H15S10324   1.139   6.468   5.684 -0.2571  2.7159  3.0790
   7823SM  H15T10325   1.244   6.530   5.546  0.6483  1.0039  2.0195
   7823SM  C16S10326   1.021   6.519   5.524  0.1321 -0.0427 -0.4288
   7823SM  H16S10327   0.930   6.563   5.569  0.2812  2.1251 -2.0783
   7823SM  H16T10328   1.005   6.409   5.515  1.8519 -0.2123 -1.9050
   7823SM  C17S10329   1.026   6.578   5.378  0.6364 -0.1257 -0.3065
   7823SM  H17S10330   1.107   6.536   5.315 -1.3062  0.2480 -3.2568
   7823SM  H17T10331   1.041   6.688   5.386  0.0501  0.0430 -1.4269
   7823SM  C18S10332   0.897   6.553   5.297 -0.2526  0.2533 -0.8702
   7823SM  H18S10333   0.823   6.619   5.347  0.2709 -1.0107  1.7655
   7823SM  H18T10334   0.855   6.450   5.297  0.9588 -0.2770  0.0496
   7823SM  H18U10335   0.898   6.599   5.196  1.5011  0.2714 -0.8756
   7823SM   C1F10336   1.367   6.563   6.541 -0.9812 -0.7542 -0.2742
   7823SM    OF10337   1.488   6.563   6.531 -0.0279 -0.4411 -0.0207
   7823SM   C2F10338   1.279   6.679   6.492 -0.0221 -0.4750  0.3069
   7823SM   H2F10339   1.236   6.722   6.585 -1.0638 -1.7892  0.4697
   7823SM   H2G10340   1.194   6.625   6.444 -0.1185  0.5113 -0.6535
   7823SM   C3F10341   1.360   6.777   6.404 -0.6398  0.0976 -0.8307
   7823SM   H3F10342   1.402   6.722   6.317  0.1004  0.2196 -0.5500
   7823SM   H3G10343   1.434   6.831   6.466 -1.0344 -0.5034  0.1761
   7823SM   C4F10344   1.277   6.895   6.355 -0.1856 -0.3751  0.0485
   7823SM   H4F10345   1.342   6.957   6.289  0.4904  0.8494  1.7816
   7823SM   H4G10346   1.258   6.958   6.444  1.4005  0.1272  0.0591
   7823SM   C5F10347   1.163   6.858   6.265  0.2094  0.7452  0.4865
   7823SM   H5F10348   1.087   6.793   6.314  0.3859  0.9602  1.0481
   7823SM   H5G10349   1.206   6.808   6.175 -0.0264 -0.1673  0.8636
   7823SM   C6F10350   1.097   6.992   6.231  0.0705 -0.3254  0.1279
   7823SM   H6F10351   1.185   7.054   6.204  0.0029 -0.1713  0.2597
   7823SM   H6G10352   1.046   7.027   6.323 -0.3825 -1.1059  0.1808
   7823SM   C7F10353   1.000   6.977   6.119  0.4453  0.2950 -0.4983
   7823SM   H7F10354   0.916   6.906   6.136 -0.0350  1.2385  1.2545
   7823SM   H7G10355   1.062   6.936   6.036  1.9933  1.6170 -0.0462
   7823SM   C8F10356   0.931   7.106   6.066 -0.1472  0.3204 -0.2812
   7823SM   H8F10357   1.007   7.180   6.034 -0.3973 -0.1805 -2.1675
   7823SM   H8G10358   0.881   7.152   6.154  0.4730 -3.2979  2.1434
   7823SM   C9F10359   0.831   7.082   5.950  0.4740  0.3601  0.0430
   7823SM   H9F10360   0.797   7.185   5.926  1.2070  1.0931  1.9587
   7823SM   H9G10361   0.739   7.022   5.966  0.8231 -0.6458 -1.5336
   7823SM  C10F10362   0.900   7.025   5.831 -0.2680  0.6646 -0.3144
   7823SM  H10F10363   0.947   6.927   5.853  0.2827  0.8909 -0.4840
   7823SM  H10G10364   0.979   7.089   5.788  1.1081  0.3004  1.5476
   7823SM  C11F10365   0.801   7.005   5.709 -0.5582 -0.2225 -0.4996
   7823SM  H11F10366   0.759   7.105   5.686 -0.1849 -0.0255 -0.3461
   7823SM  H11G10367   0.720   6.940   5.747 -0.3299 -0.4806 -0.4490
   7823SM  C12F10368   0.860   6.956   5.580 -0.2236 -0.5662 -0.5934
   7823SM  H12F10369   0.908   6.857   5.591  0.7260  0.1560  3.5854
   7823SM  H12G10370   0.940   7.030   5.560 -0.8797  0.4656  0.4262
   7823SM  C13F10371   0.760   6.960   5.463  0.1377  0.0032  0.2238
   7823SM  H13F10372   0.717   7.061   5.447 -0.7498 -0.1094  1.7477
   7823SM  H13G10373   0.680   6.884   5.474  0.7702 -0.8069 -0.5740
   7823SM  C14F10374   0.824   6.927   5.325 -0.0251 -0.2972  0.5594
   7823SM  H14F10375   0.863   6.823   5.330  0.7891 -0.1347 -1.5019
   7823SM  H14G10376   0.910   6.994   5.308 -0.6530  0.4149  0.1074
   7823SM  C15F10377   0.718   6.947   5.219  0.3977 -0.0409 -0.0249
   7823SM  H15F10378   0.710   7.057   5.205  0.2425  0.0183  0.4860
   7823SM  H15G10379   0.619   6.907   5.250 -0.2433  2.5088  1.5499
   7823SM  C16F10380   0.738   6.883   5.082  0.0477 -0.5811 -0.3183
   7823SM  H16F10381   0.767   6.775   5.083 -0.0778 -0.6499 -1.5983
   7823SM  H16G10382   0.826   6.937   5.041  0.2325  0.7743  1.7328
   7823SM  C17F10383   0.611   6.899   4.989 -0.0525 -0.0752 -0.3088
   7823SM  H17F10384   0.603   7.010   4.984 -0.1701 -0.1389 -3.0452
   7823SM  H17G10385   0.529   6.855   5.049  1.3856 -2.7499 -0.1527
   7823SM  C18F10386   0.607   6.839   4.849  0.0968 -0.4658 -0.2864
   7823SM  H18F10387   0.520   6.886   4.800 -1.7864 -2.0073  1.4058
   7823SM  H18G10388   0.577   6.733   4.867 -2.4778  0.2319 -0.0702
   7823SM  C19F10389   0.723   6.849   4.754  0.3788  0.3284 -0.5015
   7823SM  H19F10390   0.812   6.801   4.799 -0.6285  0.2247  1.5016
   7823SM  H19G10391   0.759   6.954   4.749  0.7435  0.2618  0.4736
   7823SM  C20F10392   0.709   6.787   4.615  0.2146  0.6676  0.5560
   7823SM  H20F10393   0.798   6.803   4.551 -0.2735 -0.4762 -0.4522
   7823SM  H20G10394   0.624   6.842   4.571  0.7955  0.6928 -0.5807
   7823SM  C21F10395   0.669   6.629   4.609 -0.3003 -0.5682  0.0194
   7823SM  H21F10396   0.569   6.601   4.648  0.1029 -0.5005  1.1609
   7823SM  H21G10397   0.743   6.575   4.673  2.3751  2.7311  0.0018
   7823SM  C22F10398   0.694   6.583   4.464  0.2674 -0.0671  0.0330
   7823SM  H22F10399   0.701   6.472   4.459 -2.0242 -0.3399  1.5913
   7823SM  H22G10400   0.786   6.626   4.417 -1.9022  3.0883 -1.6883
   7823SM  C23F10401   0.575   6.624   4.377  0.4858 -0.0143 -0.7525
   7823SM  H23F10402   0.473   6.601   4.414  0.6416  0.2117 -0.1764
   7823SM  H23G10403   0.578   6.565   4.283 -1.7031 -1.0196 -0.2590
   7823SM  H23H10404   0.576   6.733   4.356 -1.0863  0.0926 -0.3796
   7923SM     N10405   6.532   6.796   7.063  0.4360 -0.1265  0.0278
   7923SM   C1510406   6.575   6.892   7.171  0.2539 -0.6590 -0.2435
   7923SM  H15A10407   6.653   6.845   7.229  0.3474  2.2479  2.2428
   7923SM  H15B10408   6.492   6.914   7.236  1.3512  1.7395  0.4605
   7923SM  H15C10409   6.627   6.983   7.145 -2.3754  0.8395 -0.5727
   7923SM   C1410410   6.469   6.683   7.130 -0.4869  0.0572  0.2676
   7923SM  H14A10411   6.398   6.726   7.199  0.9183  2.5572  0.2701
   7923SM  H14B10412   6.542   6.621   7.181  1.9250  1.3456 -1.4095
   7923SM  H14C10413   6.407   6.638   7.054 -1.9144  1.0632  0.7993
   7923SM   C1310414   6.434   6.877   6.983  0.7077 -0.2836 -0.7192
   7923SM  H13A10415   6.489   6.944   6.920 -1.2741  3.5125  1.2433
   7923SM  H13B10416   6.362   6.929   7.046 -0.2053 -2.0219 -0.2579
   7923SM  H13C10417   6.374   6.809   6.924  0.3170  1.3164 -2.2407
   7923SM   C1210418   6.642   6.749   6.971  0.4177  0.3152  0.2845
   7923SM  H12A10419   6.713   6.696   7.033 -0.8083  0.0378  1.4955
   7923SM  H12B10420   6.697   6.835   6.936  1.1166 -0.6689 -1.1661
   7923SM   C1110421   6.614   6.651   6.854  0.2042  0.5135  0.3964
   7923SM  H11A10422   6.703   6.649   6.788 -1.0701 -0.3693 -1.3841
   7923SM  H11B10423   6.529   6.693   6.795 -0.5407 -1.8914 -0.3532
   7923SM     P10424   6.708   6.427   6.954  0.1796 -0.1084  0.3286
   7923SM   O1310425   6.798   6.491   7.046  0.3400  0.2303 -0.0229
   7923SM   O1410426   6.638   6.310   7.009  0.6097  0.3363 -0.4829
   7923SM   O1110427   6.788   6.396   6.821  0.2165 -0.2399 -0.7482
   7923SM   O1210428   6.591   6.521   6.906 -0.1875  0.5979  0.2776
   7923SM   C1S10429   6.725   6.346   6.706  0.2391 -0.0934  0.5525
   7923SM   H1S10430   6.615   6.362   6.707  0.2860  0.4711 -0.7306
   7923SM   H1T10431   6.750   6.238   6.698 -0.8709 -0.5952  2.9770
   7923SM    NF10432   6.735   6.369   6.463 -0.0783 -0.6663 -0.8890
   7923SM   HNF10433   6.811   6.320   6.420 -1.3472  0.1218 -4.3410
   7923SM   C2S10434   6.779   6.434   6.588  0.6469  0.5509 -0.2795
   7923SM   H2S10435   6.722   6.529   6.595  0.9270  0.6948  0.0932
   7923SM   C3S10436   6.930   6.480   6.599 -0.1968  0.2905 -0.2968
   7923SM   H3S10437   6.998   6.391   6.604  0.9898  1.1913 -0.0174
   7923SM    O310438   6.965   6.557   6.717 -0.3656 -0.1424  0.5952
   7923SM   HO310439   6.908   6.540   6.793 -2.2003  0.9069 -0.4866
   7923SM   C4S10440   6.988   6.547   6.469 -0.5532 -0.1679  0.1893
   7923SM   H4S10441   7.042   6.479   6.401 -1.1798 -0.1009 -0.3844
   7923SM   C5S10442   6.982   6.680   6.441  0.3664 -0.2041 -0.1522
   7923SM   H5S10443   6.928   6.748   6.509 -1.9122 -0.4974 -1.5689
   7923SM   C6S10444   7.029   6.763   6.325 -0.2582 -0.3724  0.1561
   7923SM   H6S10445   7.074   6.855   6.368 -1.4421  0.9200 -1.2572
   7923SM   H6T10446   6.948   6.789   6.254 -0.0938  1.2485  0.5192
   7923SM   C7S10447   7.140   6.704   6.240 -0.0355  0.6988  0.8263
   7923SM   H7S10448   7.116   6.610   6.186  1.1365  0.7760  0.1308
   7923SM   H7T10449   7.226   6.671   6.302  0.8603  3.0134  0.9309
   7923SM   C8S10450   7.172   6.803   6.134 -0.2097  0.1735 -0.0556
   7923SM   H8S10451   7.194   6.900   6.184  2.8881 -0.2307 -0.4480
   7923SM   H8T10452   7.087   6.821   6.064 -1.8632  0.1542  1.8657
   7923SM   C9S10453   7.300   6.758   6.043 -0.3094  0.1799  0.2648
   7923SM   H9S10454   7.281   6.657   6.001  2.2832 -0.8854  1.4470
   7923SM   H9T10455   7.391   6.759   6.107 -2.1277 -0.4893  3.0442
   7923SM  C10S10456   7.328   6.846   5.931 -0.3749  0.7457 -0.0576
   7923SM  H10S10457   7.419   6.811   5.877  1.2084  3.7620  0.4796
   7923SM  H10T10458   7.361   6.947   5.964  1.0641 -0.0754  1.1378
   7923SM  C11S10459   7.211   6.850   5.837  0.9516 -0.4689  0.6429
   7923SM  H11S10460   7.123   6.905   5.878  2.0171  1.7518  0.0892
   7923SM  H11T10461   7.182   6.746   5.812 -0.8415  0.5525 -1.9118
   7923SM  C12S10462   7.247   6.920   5.711 -0.0846 -0.1707 -0.5687
   7923SM  H12S10463   7.323   6.862   5.654  1.1281  1.4467 -0.6918
   7923SM  H12T10464   7.286   7.020   5.741 -0.1638  0.3481 -2.0637
   7923SM  C13S10465   7.130   6.948   5.612 -0.0164  0.3340  0.0512
   7923SM  H13S10466   7.047   6.999   5.666 -1.5419  0.0510 -1.9208
   7923SM  H13T10467   7.108   6.844   5.579  1.1498 -1.1204  3.4528
   7923SM  C14S10468   7.164   7.030   5.488 -0.3244 -0.1030 -0.0263
   7923SM  H14S10469   7.186   7.138   5.506  0.1272 -0.2361  0.2548
   7923SM  H14T10470   7.080   7.041   5.417  0.6146  2.0317 -0.9048
   7923SM  C15S10471   7.286   6.979   5.413 -0.1687 -0.0594  0.0843
   7923SM  H15S10472   7.266   6.872   5.389 -0.9922  0.1579 -0.2458
   7923SM  H15T10473   7.377   6.995   5.475 -0.0246 -0.1389 -0.1061
   7923SM  C16S10474   7.310   7.056   5.287  0.6254  0.6071  0.6575
   7923SM  H16S10475   7.315   7.165   5.310  2.2490  1.0602 -1.5518
   7923SM  H16T10476   7.226   7.025   5.221  0.3252 -1.0796  1.7815
   7923SM  C17S10477   7.439   7.012   5.220  0.4125 -0.0273  0.9741
   7923SM  H17S10478   7.432   6.902   5.203 -1.9417  0.1719  0.2155
   7923SM  H17T10479   7.528   7.026   5.284  2.5933 -1.2017 -1.5760
   7923SM  C18S10480   7.463   7.089   5.086  0.7769  0.7719  0.2987
   7923SM  H18S10481   7.406   7.045   5.001 -0.8063  0.1538  1.6218
   7923SM  H18T10482   7.569   7.091   5.052  0.8022  2.3611  0.4144
   7923SM  H18U10483   7.427   7.193   5.102 -1.5448  0.5678 -2.6851
   7923SM   C1F10484   6.610   6.334   6.434  0.7060 -0.5341 -0.2845
   7923SM    OF10485   6.508   6.390   6.483 -0.1348 -0.1516  0.0053
   7923SM   C2F10486   6.603   6.229   6.330  0.0045  0.2997 -0.1188
   7923SM   H2F10487   6.672   6.147   6.359  0.6467 -0.0194 -2.3635
   7923SM   H2G10488   6.634   6.268   6.231 -2.3790  1.3626 -0.5196
   7923SM   C3F10489   6.468   6.157   6.332  0.2498 -0.2222  0.0425
   7923SM   H3F10490   6.385   6.227   6.309  0.2522 -0.0078  0.6526
   7923SM   H3G10491   6.443   6.109   6.430  1.3636  0.4425  0.6703
   7923SM   C4F10492   6.456   6.048   6.220  0.5375 -0.1294  0.4635
   7923SM   H4F10493   6.355   6.001   6.228 -0.5909  2.0932 -0.0942
   7923SM   H4G10494   6.527   5.962   6.229  1.1695  0.2058 -1.0840
   7923SM   C5F10495   6.461   6.112   6.075 -0.0095 -0.0234 -0.2611
   7923SM   H5F10496   6.543   6.187   6.076 -0.2708  0.2667  0.9966
   7923SM   H5G10497   6.359   6.151   6.056 -0.1350 -0.9551 -1.6352
   7923SM   C6F10498   6.491   6.017   5.958  0.4184  0.0734  0.3889
   7923SM   H6F10499   6.407   5.945   5.941  0.2273  0.3056  0.3345
   7923SM   H6G10500   6.590   5.972   5.976  1.2113  1.8323  0.5898
   7923SM   C7F10501   6.528   6.096   5.834 -0.4233 -0.4549  0.2471
   7923SM   H7F10502   6.613   6.166   5.853 -0.3604 -0.4408 -0.0789
   7923SM   H7G10503   6.433   6.141   5.801  0.2473  1.7715  1.1340
   7923SM   C8F10504   6.586   6.000   5.728  0.7145 -0.2443  0.1596
   7923SM   H8F10505   6.525   5.907   5.726  0.5095 -0.1061 -0.6359
   7923SM   H8G10506   6.689   5.965   5.752  1.7719 -0.1619 -3.5559
   7923SM   C9F10507   6.589   6.081   5.596 -0.0831  0.0637  0.2345
   7923SM   H9F10508   6.670   6.156   5.610 -0.9949  1.1266 -0.0125
   7923SM   H9G10509   6.493   6.131   5.572 -0.8716 -1.3808  0.2549
   7923SM  C10F10510   6.645   6.006   5.474 -0.4373 -0.5179  0.4209
   7923SM  H10F10511   6.638   6.075   5.387 -0.7596 -1.7198 -0.5230
   7923SM  H10G10512   6.582   5.918   5.449  0.3691 -0.4461 -2.2053
   7923SM  C11F10513   6.795   5.957   5.491 -0.0247  0.6638  0.5331
   7923SM  H11F10514   6.808   5.871   5.560 -1.6542  0.2797  0.4136
   7923SM  H11G10515   6.859   6.039   5.531  3.2204 -1.1080 -0.6481
   7923SM  C12F10516   6.848   5.904   5.359  0.9190  0.4980  0.8426
   7923SM  H12F10517   6.846   5.981   5.278 -0.0292 -0.6782 -0.3060
   7923SM  H12G10518   6.777   5.831   5.315 -0.9543  2.0812  1.0840
   7923SM  C13F10519   6.985   5.840   5.365 -0.3151  0.3759 -0.1204
   7923SM  H13F10520   6.993   5.770   5.450  1.1694 -0.4175 -0.8738
   7923SM  H13G10521   7.067   5.914   5.382  0.6215 -0.7758  0.4498
   7923SM  C14F10522   7.015   5.759   5.239 -0.9672 -0.5874 -0.1101
   7923SM  H14F10523   6.994   5.816   5.145 -2.3258 -3.3874 -1.6357
   7923SM  H14G10524   6.954   5.667   5.231 -1.8760 -0.1753  1.6522
   7923SM  C15F10525   7.174   5.719   5.240 -0.3867 -0.2199  0.5869
   7923SM  H15F10526   7.216   5.689   5.338  2.7309 -0.7119 -0.7899
   7923SM  H15G10527   7.229   5.812   5.213 -0.6791 -0.1528  0.2143
   7923SM  C16F10528   7.208   5.598   5.152 -0.6467  1.1393  0.1845
   7923SM  H16F10529   7.159   5.617   5.054  0.8456  2.5568 -0.3324
   7923SM  H16G10530   7.155   5.511   5.197  0.8053  0.4789  0.6600
   7923SM  C17F10531   7.358   5.561   5.128 -0.3803 -0.2358 -0.3043
   7923SM  H17F10532   7.409   5.545   5.226 -0.3166  2.2312  0.1348
   7923SM  H17G10533   7.415   5.644   5.082  1.9514 -1.1041  0.8279
   7923SM  C18F10534   7.376   5.428   5.055 -0.3179 -0.3133 -0.2171
   7923SM  H18F10535   7.334   5.441   4.953  1.0859  1.0636 -0.6617
   7923SM  H18G10536   7.331   5.345   5.115  1.6309 -0.3185  1.3752
   7923SM  C19F10537   7.524   5.392   5.040 -0.6452 -0.1943  0.2359
   7923SM  H19F10538   7.573   5.361   5.135  0.8400 -1.9225 -1.0162
   7923SM  H19G10539   7.580   5.481   5.003  0.3954 -0.2005  1.7302
   7923SM  C20F10540   7.546   5.270   4.952 -0.3137  0.6413  0.2451
   7923SM  H20F10541   7.653   5.275   4.922 -0.9337 -0.2045 -2.3328
   7923SM  H20G10542   7.487   5.277   4.858 -1.6577 -2.1125  0.7977
   7923SM  C21F10543   7.521   5.138   5.015  0.6829 -0.0609 -0.3563
   7923SM  H21F10544   7.415   5.142   5.048  1.2194  1.2992  1.3446
   7923SM  H21G10545   7.596   5.129   5.097  1.6978 -2.1078 -1.4273
   7923SM  C22F10546   7.542   5.023   4.918 -0.2690  0.1317 -0.2311
   7923SM  H22F10547   7.549   4.927   4.973  0.1340 -0.4868 -1.3263
   7923SM  H22G10548   7.642   5.048   4.877 -0.1360 -1.8067 -1.2418
   7923SM  C23F10549   7.453   5.002   4.797 -0.1060 -0.1130 -1.0451
   7923SM  H23F10550   7.462   4.895   4.766 -2.0508 -0.8541  0.7193
   7923SM  H23G10551   7.488   5.075   4.721  0.8624  0.2212 -0.3059
   7923SM  H23H10552   7.349   5.022   4.830 -0.3956 -0.5143 -1.7031
   8023SM     N10553   1.812   0.274   7.309 -0.4947 -0.2518 -0.2736
   8023SM   C1510554   1.794   0.405   7.239 -0.7095  0.2683 -0.0568
   8023SM  H15A10555   1.894   0.432   7.209  0.9644 -3.2255  1.6631
   8023SM  H15B10556   1.761   0.477   7.312  1.6889  2.5298 -1.0483
   8023SM  H15C10557   1.725   0.395   7.156  0.4176 -0.4165 -0.9549
   8023SM   C1410558   1.929   0.295   7.405 -0.3350 -0.7307 -0.3189
   8023SM  H14A10559   1.902   0.374   7.474 -0.9772 -2.3114  1.3035
   8023SM  H14B10560   2.017   0.338   7.359  0.2786 -0.2563  1.2347
   8023SM  H14C10561   1.966   0.212   7.463 -0.7151  0.1967  1.3086
   8023SM   C1310562   1.688   0.246   7.384  0.0114  0.0648  0.4928
   8023SM  H13A10563   1.613   0.222   7.309 -0.0656  0.7766  0.3373
   8023SM  H13B10564   1.653   0.327   7.447  1.2822  0.5232  0.6326
   8023SM  H13C10565   1.699   0.164   7.453 -0.8928  0.2686  0.8973
   8023SM   C1210566   1.848   0.164   7.208 -0.7019 -0.7853 -0.5878
   8023SM  H12A10567   1.868   0.074   7.263 -3.9403 -0.9030  0.6030
   8023SM  H12B10568   1.943   0.196   7.167 -1.0913  1.4355  0.0732
   8023SM   C1110569   1.749   0.124   7.090  0.4979 -0.1329 -0.0492
   8023SM  H11A10570   1.803   0.059   7.019 -1.9262 -0.0906 -2.0325
   8023SM  H11B10571   1.717   0.212   7.030  0.2767  0.5991  1.0948
   8023SM     P10572   1.638  -0.082   7.194  0.1266 -0.0888  0.0197
   8023SM   O1310573   1.775  -0.120   7.229 -0.2719 -0.1889  0.7815
   8023SM   O1410574   1.535  -0.103   7.297  0.0708  0.0848 -0.6089
   8023SM   O1110575   1.598  -0.168   7.072  0.1640  0.0085  0.4705
   8023SM   O1210576   1.635   0.065   7.140  0.1718  0.2883  0.4921
   8023SM   C1S10577   1.466  -0.173   7.013  0.6644  0.6423 -0.0300
   8023SM   H1S10578   1.388  -0.123   7.075 -0.9640  0.5143 -1.8936
   8023SM   H1T10579   1.441  -0.279   6.993  0.2967  0.1324  2.7148
   8023SM    NF10580   1.322  -0.097   6.836 -0.3301 -0.5760 -0.6421
   8023SM   HNF10581   1.288  -0.155   6.762 -1.2229 -1.1741  0.2153
   8023SM   C2S10582   1.464  -0.112   6.871  0.1374 -0.5458 -0.4203
   8023SM   H2S10583   1.504  -0.009   6.889  0.9419 -1.3032  2.6986
   8023SM   C3S10584   1.560  -0.186   6.773  0.4007 -0.7872 -0.4311
   8023SM   H3S10585   1.525  -0.290   6.755  1.6397 -0.7953 -3.4532
   8023SM    O310586   1.693  -0.197   6.823 -0.3514 -0.1571  1.3526
   8023SM   HO310587   1.699  -0.175   6.916  0.4886 -2.7362  2.0012
   8023SM   C4S10588   1.566  -0.115   6.635  0.3678 -0.0600 -0.1310
   8023SM   H4S10589   1.474  -0.127   6.574  0.0273 -0.2346  0.4083
   8023SM   C5S10590   1.654  -0.029   6.590 -0.5552  0.4250  0.2645
   8023SM   H5S10591   1.737  -0.009   6.660 -1.7298 -2.5687  2.7467
   8023SM   C6S10592   1.639   0.051   6.461  0.3272  0.1228  0.2058
   8023SM   H6S10593   1.734   0.045   6.404 -0.3705  1.4057 -1.1558
   8023SM   H6T10594   1.617   0.158   6.484  0.1022 -0.7003  4.8827
   8023SM   C7S10595   1.523   0.010   6.366 -0.6484  0.1910  0.3363
   8023SM   H7S10596   1.423   0.020   6.415 -0.8445 -2.4043  0.5936
   8023SM   H7T10597   1.545  -0.090   6.323 -0.9264  0.7747 -1.2377
   8023SM   C8S10598   1.515   0.104   6.241 -0.4462  0.0828  0.2242
   8023SM   H8S10599   1.611   0.098   6.187 -0.3908 -0.1838  0.3492
   8023SM   H8T10600   1.495   0.202   6.289 -0.3934 -0.7364  2.0115
   8023SM   C9S10601   1.396   0.055   6.158 -0.1133 -0.5329 -0.2706
   8023SM   H9S10602   1.316   0.023   6.228 -0.6605  0.5759 -0.3741
   8023SM   H9T10603   1.419  -0.036   6.098 -3.1524 -1.1724 -0.6355
   8023SM  C10S10604   1.350   0.167   6.067  0.1088 -0.0731  0.1788
   8023SM  H10S10605   1.340   0.265   6.119 -2.6619 -0.4205  0.4864
   8023SM  H10T10606   1.243   0.157   6.037 -0.7743  3.2095  1.7849
   8023SM  C11S10607   1.425   0.187   5.929 -0.1059 -0.3152 -0.1053
   8023SM  H11S10608   1.450   0.083   5.900 -0.9849  0.2076 -3.0777
   8023SM  H11T10609   1.513   0.250   5.954  0.2855 -0.9826  0.2059
   8023SM  C12S10610   1.345   0.261   5.822 -0.3439 -0.0363  0.0420
   8023SM  H12S10611   1.313   0.353   5.876  1.2667 -1.1076  3.0924
   8023SM  H12T10612   1.256   0.202   5.791 -2.1502  2.3603  0.3377
   8023SM  C13S10613   1.425   0.287   5.694 -0.3671 -0.0481 -0.4149
   8023SM  H13S10614   1.450   0.198   5.634  1.3045 -1.8488  2.7095
   8023SM  H13T10615   1.520   0.340   5.718 -0.5940 -0.4584  1.5046
   8023SM  C14S10616   1.351   0.390   5.613  0.1896  0.1106  0.2417
   8023SM  H14S10617   1.341   0.474   5.685  1.0382 -0.6066  1.2150
   8023SM  H14T10618   1.245   0.358   5.603  0.8779 -1.9408 -1.0361
   8023SM  C15S10619   1.416   0.429   5.483  0.3455  0.2709 -0.9737
   8023SM  H15S10620   1.434   0.340   5.419 -0.9956 -0.8878  0.1852
   8023SM  H15T10621   1.510   0.484   5.506  0.8206 -0.0407 -2.0973
   8023SM  C16S10622   1.322   0.528   5.410 -0.0523 -0.4524 -0.8892
   8023SM  H16S10623   1.314   0.616   5.478  0.8798 -1.1435  0.1704
   8023SM  H16T10624   1.223   0.489   5.380 -0.9537 -1.2648  2.6529
   8023SM  C17S10625   1.375   0.589   5.282  0.1292  0.6313 -0.4637
   8023SM  H17S10626   1.465   0.652   5.297 -0.0448  0.3108  2.4381
   8023SM  H17T10627   1.290   0.653   5.250 -2.1523 -2.5475 -1.2942
   8023SM  C18S10628   1.394   0.492   5.164  0.6837  0.0951 -0.3842
   8023SM  H18S10629   1.497   0.455   5.182  0.0441 -0.0937  3.8776
   8023SM  H18T10630   1.390   0.548   5.068 -1.9941 -0.1553 -0.4751
   8023SM  H18U10631   1.320   0.409   5.158 -0.5144  0.9562  1.3864
   8023SM   C1F10632   1.235  -0.021   6.899  0.0036  0.1030  0.6299
   8023SM    OF10633   1.272   0.073   6.965  0.6408 -0.0624 -0.4635
   8023SM   C2F10634   1.083  -0.059   6.878  0.2223 -0.0134  0.1056
   8023SM   H2F10635   1.033  -0.043   6.976  0.3508  3.5820 -0.2699
   8023SM   H2G10636   1.076  -0.163   6.841  1.0474 -0.2580  0.6101
   8023SM   C3F10637   0.999   0.044   6.793  0.4317  0.4023  0.1666
   8023SM   H3F10638   1.004   0.148   6.832 -0.8785  1.0530 -1.2793
   8023SM   H3G10639   0.894   0.010   6.799  0.4353  0.0176 -1.5011
   8023SM   C4F10640   1.043   0.046   6.646  0.0557 -0.7419 -0.4275
   8023SM   H4F10641   1.057  -0.061   6.622  0.8198 -0.4146 -1.5408
   8023SM   H4G10642   1.138   0.104   6.643 -0.3420 -0.0420  0.1725
   8023SM   C5F10643   0.948   0.116   6.547  0.0913 -0.3135 -0.1122
   8023SM   H5F10644   0.929   0.224   6.565 -0.3235  0.2569 -3.4053
   8023SM   H5G10645   0.848   0.069   6.555 -1.3614  2.5072 -0.5205
   8023SM   C6F10646   1.004   0.119   6.401 -0.0803  0.2874 -0.3609
   8023SM   H6F10647   0.996   0.012   6.373  2.8234  0.1918 -1.0939
   8023SM   H6G10648   1.111   0.147   6.395  0.4895 -1.9164 -1.6787
   8023SM   C7F10649   0.918   0.208   6.309 -0.3972 -0.8138 -0.1524
   8023SM   H7F10650   0.945   0.314   6.330 -0.1796 -0.3061 -2.7253
   8023SM   H7G10651   0.814   0.187   6.340  0.0971 -0.1312  2.2078
   8023SM   C8F10652   0.950   0.201   6.163 -0.0319 -0.1742 -0.3431
   8023SM   H8F10653   0.943   0.094   6.135  1.3962 -0.0299 -1.3486
   8023SM   H8G10654   1.055   0.238   6.156  0.6032 -1.4461  1.4802
   8023SM   C9F10655   0.853   0.276   6.063  0.4178 -0.6691 -0.2754
   8023SM   H9F10656   0.853   0.376   6.113  4.1089 -2.3072  3.6760
   8023SM   H9G10657   0.756   0.224   6.071 -0.3671  0.9139  1.3118
   8023SM  C10F10658   0.909   0.282   5.917  0.2849 -0.3025  0.3583
   8023SM  H10F10659   0.988   0.206   5.897  0.5844  0.2234 -0.5111
   8023SM  H10G10660   0.946   0.385   5.902 -1.5532  0.1591 -1.4007
   8023SM  C11F10661   0.800   0.259   5.810  0.5087  0.5016  0.3966
   8023SM  H11F10662   0.705   0.301   5.848 -0.3324  0.3410 -1.4664
   8023SM  H11G10663   0.795   0.149   5.791  1.7714  0.6018 -0.6229
   8023SM  C12F10664   0.834   0.313   5.671 -0.1015 -0.0110  0.0207
   8023SM  H12F10665   0.864   0.420   5.672 -1.3253  0.4059 -2.2928
   8023SM  H12G10666   0.739   0.314   5.613 -0.5336  0.2199  0.7145
   8023SM  C13F10667   0.931   0.227   5.591 -0.6119  1.0391 -0.3973
   8023SM  H13F10668   0.906   0.120   5.603  0.7285  0.8870  1.4875
   8023SM  H13G10669   1.032   0.253   5.630 -0.8440  1.1098  0.1707
   8023SM  C14F10670   0.931   0.264   5.439 -0.3616  0.2388  0.2136
   8023SM  H14F10671   0.982   0.361   5.422  2.7923 -1.3835 -0.3454
   8023SM  H14G10672   0.834   0.279   5.388  0.5546  0.4290 -1.5559
   8023SM  C15F10673   1.008   0.161   5.358 -0.1456  0.6616 -0.8338
   8023SM  H15F10674   0.957   0.062   5.359  0.9045  0.1095  0.9276
   8023SM  H15G10675   1.102   0.132   5.409 -0.2105  0.3935 -0.8661
   8023SM  C16F10676   1.038   0.197   5.213 -0.3839  0.0818 -1.0762
   8023SM  H16F10677   1.134   0.252   5.209  1.4137 -2.0518  3.9652
   8023SM  H16G10678   0.951   0.262   5.190 -1.5091 -0.6526  0.8606
   8023SM  C17F10679   1.029   0.079   5.129 -0.3154  0.3222  0.4365
   8023SM  H17F10680   0.932   0.026   5.136 -0.5008  0.3327 -1.4924
   8023SM  H17G10681   1.115   0.021   5.167 -1.7808 -0.6637  2.4104
   8023SM  C18F10682   1.051   0.101   4.981  0.2268 -0.2540  0.3085
   8023SM  H18F10683   1.157   0.128   4.961  0.3693 -1.2607 -0.3867
   8023SM  H18G10684   0.987   0.182   4.940 -0.7277 -2.1918 -2.3478
   8023SM  C19F10685   1.028  -0.019   4.881  0.3682 -0.5401 -0.6601
   8023SM  H19F10686   0.920  -0.034   4.860  0.5413 -1.1690 -1.1258
   8023SM  H19G10687   1.081  -0.115   4.897  0.2571 -0.5453 -0.2921
   8023SM  C20F10688   1.076   0.027   4.742  0.4752 -0.0319  1.1271
   8023SM  H20F10689   1.187   0.034   4.746  0.3648  2.4647  1.3009
   8023SM  H20G10690   1.028   0.126   4.728 -2.4627 -1.5889 -0.7718
   8023SM  C21F10691   1.026  -0.072   4.627  0.6275 -0.2220 -0.2312
   8023SM  H21F10692   0.934  -0.123   4.663  0.1839  0.3037 -0.5962
   8023SM  H21G10693   1.111  -0.142   4.614 -0.0222 -1.1025  0.2393
   8023SM  C22F10694   0.986   0.002   4.500  0.1320  0.2238 -0.4342
   8023SM  H22F10695   1.067   0.074   4.478 -1.7035  2.1401 -1.1970
   8023SM  H22G10696   0.896   0.063   4.521  1.8285  2.9539 -0.6924
   8023SM  C23F10697   0.955  -0.084   4.374  0.1956 -0.2910  0.5611
   8023SM  H23F10698   1.049  -0.140   4.355 -0.0471 -0.4546 -0.1993
   8023SM  H23G10699   0.931  -0.024   4.283  0.0670 -2.7151 -1.0821
   8023SM  H23H10700   0.872  -0.157   4.387  0.2698 -0.5099 -0.1681
   8123SM     N10701   3.282   3.186   2.549 -0.6876  0.4533  1.1412
   8123SM   C1510702   3.418   3.121   2.526 -0.0086 -0.0052  0.5364
   8123SM  H15A10703   3.488   3.141   2.606 -0.1805 -1.1635  0.9884
   8123SM  H15B10704   3.469   3.146   2.434 -0.4059 -0.7636  0.1028
   8123SM  H15C10705   3.423   3.014   2.523 -0.7130 -0.0422  0.4778
   8123SM   C1410706   3.314   3.342   2.561  0.7869  0.0599 -0.5405
   8123SM  H14A10707   3.217   3.389   2.571  0.7338 -0.0745 -0.4218
   8123SM  H14B10708   3.344   3.367   2.460 -3.2146 -0.3263 -2.0074
   8123SM  H14C10709   3.391   3.367   2.632  0.5402  2.2003 -0.9615
   8123SM   C1310710   3.210   3.159   2.422  0.1451  0.5304 -0.8252
   8123SM  H13A10711   3.278   3.174   2.340  0.8591  1.5623 -0.0729
   8123SM  H13B10712   3.124   3.224   2.423  0.5337  1.0864 -2.2255
   8123SM  H13C10713   3.162   3.063   2.426 -0.9681  1.0611  3.0302
   8123SM   C1210714   3.212   3.126   2.665 -0.1164  0.5927 -0.4029
   8123SM  H12A10715   3.210   3.018   2.656  3.6397  0.4829 -1.2094
   8123SM  H12B10716   3.109   3.156   2.651 -0.2455  0.2432 -0.2119
   8123SM   C1110717   3.259   3.163   2.812  0.6011 -0.5615  0.2015
   8123SM  H11A10718   3.362   3.124   2.827  0.3943 -1.3545 -0.3924
   8123SM  H11B10719   3.197   3.100   2.878  1.3270 -0.2932  1.1588
   8123SM     P10720   3.315   3.391   2.932  0.0731  0.4384 -0.3051
   8123SM   O1310721   3.438   3.328   2.977 -0.2126 -0.4838  0.4499
   8123SM   O1410722   3.335   3.524   2.865 -0.5200 -0.2979 -0.0233
   8123SM   O1110723   3.227   3.404   3.064 -0.4998  0.1445  0.6058
   8123SM   O1210724   3.230   3.302   2.838  0.7181  0.0190 -0.2305
   8123SM   C1S10725   3.152   3.301   3.120 -0.6321 -0.2598  0.0368
   8123SM   H1S10726   3.115   3.228   3.045 -1.8689  0.6968 -0.3197
   8123SM   H1T10727   3.064   3.336   3.178  0.2246  1.9831  0.0789
   8123SM    NF10728   3.140   3.110   3.260 -0.3303 -0.2450  0.4833
   8123SM   HNF10729   3.067   3.114   3.327 -2.5293 -2.6724 -1.5145
   8123SM   C2S10730   3.230   3.228   3.237  0.3483  0.7898  0.1559
   8123SM   H2S10731   3.323   3.189   3.191 -0.6473 -2.3054  0.5517
   8123SM   C3S10732   3.252   3.321   3.356  0.4502  0.4803 -0.3003
   8123SM   H3S10733   3.152   3.355   3.390  0.7143  2.7456 -1.6094
   8123SM    O310734   3.320   3.440   3.320 -0.4826 -0.0080 -0.0581
   8123SM   HO310735   3.320   3.441   3.224  0.9160  0.6112 -0.0847
   8123SM   C4S10736   3.315   3.241   3.464  0.6072 -0.3464  0.6456
   8123SM   H4S10737   3.244   3.212   3.543 -2.7667  1.3680 -1.4761
   8123SM   C5S10738   3.447   3.223   3.478 -0.2664  0.1731  0.2585
   8123SM   H5S10739   3.519   3.272   3.411  0.8820 -1.2146  0.4272
   8123SM   C6S10740   3.501   3.155   3.604  0.4063 -0.2482  0.9561
   8123SM   H6S10741   3.500   3.228   3.687 -0.6471  1.1928 -0.2722
   8123SM   H6T10742   3.609   3.135   3.590  1.0818  2.8523  1.0625
   8123SM   C7S10743   3.433   3.029   3.657  0.0457  0.2768 -0.0537
   8123SM   H7S10744   3.430   2.956   3.573 -0.2433  0.4515 -0.1979
   8123SM   H7T10745   3.333   3.063   3.692 -0.1388  1.6702 -1.8049
   8123SM   C8S10746   3.502   2.955   3.772 -0.0449  0.5020  0.4087
   8123SM   H8S10747   3.441   2.869   3.807  0.6626  0.5121  1.7207
   8123SM   H8T10748   3.504   3.023   3.859 -3.0238 -0.1024  1.0768
   8123SM   C9S10749   3.635   2.899   3.736  0.1315 -0.5281 -0.4292
   8123SM   H9S10750   3.712   2.978   3.728  1.7829 -2.1748 -1.7220
   8123SM   H9T10751   3.635   2.871   3.628  0.2015 -0.7736 -0.3680
   8123SM  C10S10752   3.684   2.769   3.809 -0.1502 -0.1466  0.2935
   8123SM  H10S10753   3.778   2.739   3.758 -0.5443  0.7045 -0.9880
   8123SM  H10T10754   3.603   2.695   3.790 -0.0204 -0.3737  0.6215
   8123SM  C11S10755   3.712   2.781   3.956  0.0726  0.6348  0.0659
   8123SM  H11S10756   3.625   2.831   4.004 -0.3468 -0.5382  0.5691
   8123SM  H11T10757   3.800   2.844   3.977  2.0292 -2.2966  1.3063
   8123SM  C12S10758   3.732   2.644   4.020  0.3230  0.8092 -0.4896
   8123SM  H12S10759   3.778   2.572   3.949 -0.4353 -0.8321  0.6438
   8123SM  H12T10760   3.628   2.608   4.030  0.5785  0.5559  1.8161
   8123SM  C13S10761   3.808   2.633   4.153 -0.1621 -0.1451  0.1651
   8123SM  H13S10762   3.908   2.679   4.138 -0.9780  1.2254 -1.3785
   8123SM  H13T10763   3.825   2.524   4.168 -2.1399 -0.3758  1.0287
   8123SM  C14S10764   3.734   2.705   4.269 -0.1864  0.4554  0.2944
   8123SM  H14S10765   3.653   2.638   4.306 -0.9393  2.0142  1.5881
   8123SM  H14T10766   3.682   2.795   4.231  0.5021 -0.5713 -3.4846
   8123SM  C15S10767   3.822   2.758   4.380  0.2759  0.1471 -0.8028
   8123SM  H15S10768   3.896   2.677   4.401 -0.1215 -0.3695 -1.3360
   8123SM  H15T10769   3.758   2.773   4.470 -0.3143 -1.4695 -0.9148
   8123SM  C16S10770   3.878   2.897   4.352  0.2980 -0.5077 -0.0645
   8123SM  H16S10771   3.797   2.973   4.349 -0.3133 -1.1754 -0.5559
   8123SM  H16T10772   3.917   2.906   4.248  2.8572  1.0562  0.9306
   8123SM  C17S10773   3.995   2.938   4.444 -0.3455 -0.3498 -0.8286
   8123SM  H17S10774   3.957   2.916   4.546 -1.2287  0.4259 -0.9765
   8123SM  H17T10775   4.021   3.046   4.444  0.3951 -0.4948 -2.4436
   8123SM  C18S10776   4.125   2.857   4.422 -0.4920 -0.6237  0.7676
   8123SM  H18S10777   4.160   2.885   4.320 -0.2012 -0.2929  0.9566
   8123SM  H18T10778   4.103   2.748   4.419 -1.6191 -0.4404  1.6093
   8123SM  H18U10779   4.207   2.875   4.495 -0.0295  0.0078  0.1024
   8123SM   C1F10780   3.137   3.000   3.181 -0.3398 -0.4679 -0.3394
   8123SM    OF10781   3.226   2.978   3.105  0.4184  0.5187  0.5130
   8123SM   C2F10782   3.013   2.910   3.195  0.2409 -0.4291 -0.1951
   8123SM   H2F10783   2.977   2.878   3.095  0.7722  0.5431 -0.7108
   8123SM   H2G10784   2.929   2.961   3.247  1.4612 -0.2305  1.6445
   8123SM   C3F10785   3.054   2.782   3.264 -0.3064 -0.1639  0.1947
   8123SM   H3F10786   3.135   2.723   3.216 -0.2527  0.2055 -0.1813
   8123SM   H3G10787   2.964   2.718   3.279 -1.3774  1.3640  0.4999
   8123SM   C4F10788   3.088   2.804   3.415 -0.0276 -0.3176 -0.1864
   8123SM   H4F10789   2.998   2.817   3.478 -0.3168 -1.7990 -0.2517
   8123SM   H4G10790   3.157   2.889   3.434 -0.7541  0.3125 -0.3342
   8123SM   C5F10791   3.155   2.683   3.473  0.5744 -0.3424  0.1582
   8123SM   H5F10792   3.256   2.660   3.432  0.3314  0.7124 -1.0805
   8123SM   H5G10793   3.092   2.593   3.455  0.7411 -0.6625  1.1116
   8123SM   C6F10794   3.169   2.679   3.625  0.6869 -0.5127  0.5835
   8123SM   H6F10795   3.071   2.702   3.673  0.2632  0.3753 -0.6549
   8123SM   H6G10796   3.233   2.767   3.649 -1.5776  0.8091  2.2248
   8123SM   C7F10797   3.232   2.556   3.688 -0.2272  0.8648 -0.0093
   8123SM   H7F10798   3.317   2.521   3.626 -0.2416  1.5029 -0.3941
   8123SM   H7G10799   3.165   2.468   3.675  1.2092 -0.2562 -0.1768
   8123SM   C8F10800   3.267   2.576   3.837 -0.4404 -0.1199 -0.2817
   8123SM   H8F10801   3.169   2.588   3.888  0.2477  1.0594  0.8256
   8123SM   H8G10802   3.320   2.672   3.852  0.1025 -0.2949 -1.0545
   8123SM   C9F10803   3.358   2.467   3.902  0.3772  0.4249  0.1686
   8123SM   H9F10804   3.460   2.490   3.865  0.4231  1.4961  0.9055
   8123SM   H9G10805   3.322   2.365   3.880  0.5676 -0.0558  1.9162
   8123SM  C10F10806   3.346   2.479   4.055 -0.3092 -0.2523  0.4307
   8123SM  H10F10807   3.236   2.483   4.070 -0.7400 -2.9720 -1.2339
   8123SM  H10G10808   3.394   2.573   4.090  0.0514 -0.3506  0.2088
   8123SM  C11F10809   3.374   2.349   4.131 -0.6104  0.6329 -0.1396
   8123SM  H11F10810   3.485   2.345   4.131 -0.6040  0.7664  0.6726
   8123SM  H11G10811   3.329   2.261   4.082  2.4193 -0.5232 -1.0970
   8123SM  C12F10812   3.326   2.358   4.273 -0.4335 -0.3895 -0.1949
   8123SM  H12F10813   3.331   2.252   4.304  3.0681 -0.0216  0.9864
   8123SM  H12G10814   3.220   2.388   4.281  0.3553  2.1787  3.1390
   8123SM  C13F10815   3.416   2.445   4.360 -0.6542  0.0631 -0.1447
   8123SM  H13F10816   3.392   2.552   4.344  0.2689  0.4023  0.6341
   8123SM  H13G10817   3.522   2.433   4.327  0.2465  2.9881  1.3434
   8123SM  C14F10818   3.397   2.413   4.511  0.3690 -0.6534 -0.7045
   8123SM  H14F10819   3.402   2.303   4.525 -0.3471 -0.6549 -0.3905
   8123SM  H14G10820   3.294   2.444   4.542  1.6657  0.9084  2.4451
   8123SM  C15F10821   3.502   2.486   4.596  0.1016 -0.3098  0.0593
   8123SM  H15F10822   3.481   2.591   4.626  1.3014 -0.7152  2.6835
   8123SM  H15G10823   3.592   2.482   4.530 -0.7642 -3.2596 -1.1344
   8123SM  C16F10824   3.540   2.419   4.734 -0.2053  0.1996  0.6517
   8123SM  H16F10825   3.526   2.309   4.728  0.7620  0.1602 -1.8434
   8123SM  H16G10826   3.460   2.444   4.807  1.9657  1.1262  2.8834
   8123SM  C17F10827   3.672   2.475   4.792  0.3242 -0.2079 -0.3660
   8123SM  H17F10828   3.675   2.443   4.899  0.4014  2.2719  0.4201
   8123SM  H17G10829   3.668   2.586   4.792 -1.6154 -0.2012 -2.3786
   8123SM  C18F10830   3.799   2.427   4.722 -0.4863  0.2167 -0.3103
   8123SM  H18F10831   3.788   2.454   4.615  1.8886  0.0004 -0.6613
   8123SM  H18G10832   3.798   2.316   4.720  0.4798  0.1954  0.1229
   8123SM  C19F10833   3.923   2.502   4.769  0.1154 -0.2322  0.7885
   8123SM  H19F10834   3.943   2.475   4.875  0.8015  1.6197  1.1642
   8123SM  H19G10835   3.906   2.611   4.763  2.5541  0.1484 -0.0782
   8123SM  C20F10836   4.050   2.482   4.684 -0.3899 -0.9933  0.0391
   8123SM  H20F10837   4.031   2.511   4.578 -4.0487 -2.3341  0.2100
   8123SM  H20G10838   4.081   2.376   4.685 -0.1784 -0.9343  0.6800
   8123SM  C21F10839   4.177   2.566   4.740 -0.1095  0.1480  0.7172
   8123SM  H21F10840   4.212   2.548   4.844  1.9776 -3.5906 -0.4781
   8123SM  H21G10841   4.151   2.674   4.732 -0.2018  0.2397  2.0459
   8123SM  C22F10842   4.298   2.535   4.650  0.8721 -0.1819 -0.3817
   8123SM  H22F10843   4.250   2.540   4.550 -2.5476 -0.9249  1.0609
   8123SM  H22G10844   4.331   2.430   4.661  1.3462 -0.1533 -1.4319
   8123SM  C23F10845   4.414   2.632   4.656 -0.5479  0.7593  0.7098
   8123SM  H23F10846   4.499   2.602   4.592 -0.6440 -0.7456  1.2486
   8123SM  H23G10847   4.454   2.621   4.759 -1.5581 -0.1020  1.0295
   8123SM  H23H10848   4.378   2.735   4.635 -4.4056 -0.4047  0.8721
   8223SM     N10849   4.475   3.406   2.950 -0.0517 -0.0590 -0.2913
   8223SM   C1510850   4.417   3.276   2.992  0.2711  0.0026  0.0258
   8223SM  H15A10851   4.449   3.246   3.091 -1.7338 -0.3991  0.5851
   8223SM  H15B10852   4.436   3.197   2.921 -0.4354 -0.5620  0.4612
   8223SM  H15C10853   4.310   3.291   2.993  0.2746  0.0258  0.4252
   8223SM   C1410854   4.613   3.375   2.896 -0.3807 -0.3276  0.4636
   8223SM  H14A10855   4.603   3.305   2.814  0.8669 -1.0025  0.8494
   8223SM  H14B10856   4.676   3.323   2.968  1.7598 -0.6894 -1.5332
   8223SM  H14C10857   4.666   3.462   2.860 -0.9535  0.4277  1.4064
   8223SM   C1310858   4.389   3.463   2.842  0.2504  0.1103 -0.3775
   8223SM  H13A10859   4.418   3.561   2.806 -0.9836  0.8386  0.5365
   8223SM  H13B10860   4.291   3.487   2.880  1.1709 -0.4674  2.6192
   8223SM  H13C10861   4.377   3.395   2.759 -2.2014 -0.3139  0.2431
   8223SM   C1210862   4.472   3.507   3.061  0.3393 -0.2326 -0.3106
   8223SM  H12A10863   4.473   3.608   3.022  0.7850  0.5659  1.6434
   8223SM  H12B10864   4.560   3.485   3.119 -0.4737  1.1205  1.5336
   8223SM   C1110865   4.338   3.513   3.146  0.0810 -0.0700  0.3910
   8223SM  H11A10866   4.360   3.567   3.241  3.6089 -1.1791  0.3534
   8223SM  H11B10867   4.305   3.409   3.164  1.0729 -0.7837 -1.6150
   8223SM     P10868   4.225   3.730   3.040  0.1131 -0.4218 -0.1092
   8223SM   O1310869   4.332   3.765   2.941 -0.6253 -0.3056  0.4864
   8223SM   O1410870   4.088   3.765   3.000  0.3587 -0.2446  0.0480
   8223SM   O1110871   4.250   3.796   3.179 -0.0313  0.2563  0.6364
   8223SM   O1210872   4.232   3.573   3.073  0.0861 -0.0207 -0.5397
   8223SM   C1S10873   4.139   3.786   3.273 -0.1471  0.0027  0.4870
   8223SM   H1S10874   4.095   3.684   3.267 -1.5432  0.6550 -1.0987
   8223SM   H1T10875   4.068   3.871   3.259  2.2263  2.0917  0.3658
   8223SM    NF10876   4.091   3.750   3.504 -0.0817 -0.3100 -0.2688
   8223SM   HNF10877   4.037   3.818   3.553 -0.6963 -0.2509 -1.0064
   8223SM   C2S10878   4.198   3.801   3.416  0.5844 -0.0868  0.0584
   8223SM   H2S10879   4.287   3.736   3.417 -0.4949 -1.6610 -1.1875
   8223SM   C3S10880   4.246   3.949   3.427  0.1528  0.2091 -0.9903
   8223SM   H3S10881   4.152   4.007   3.442 -0.2849 -0.8665  0.7300
   8223SM    O310882   4.311   4.002   3.318  0.1348 -0.7028 -0.0534
   8223SM   HO310883   4.295   3.933   3.253  2.4192 -2.5065  1.1238
   8223SM   C4S10884   4.313   3.973   3.560 -0.7674  0.0275  0.6000
   8223SM   H4S10885   4.243   4.010   3.636 -1.9242  1.9572 -1.2616
   8223SM   C5S10886   4.434   3.929   3.593 -0.3173 -0.1922  0.3219
   8223SM   H5S10887   4.498   3.882   3.516 -0.0569 -0.7933  0.8981
   8223SM   C6S10888   4.479   3.914   3.736 -0.8715  0.2883 -0.8673
   8223SM   H6S10889   4.589   3.897   3.734 -0.2481  3.5955 -1.7011
   8223SM   H6T10890   4.426   3.837   3.795 -1.7375  2.0472  0.7705
   8223SM   C7S10891   4.451   4.039   3.825 -0.0030  0.4808 -0.6657
   8223SM   H7S10892   4.343   4.060   3.835 -0.3470 -1.3495 -0.0008
   8223SM   H7T10893   4.508   4.123   3.780  2.3430  0.1456  1.4021
   8223SM   C8S10894   4.500   4.014   3.968 -0.1347 -0.1452 -0.4241
   8223SM   H8S10895   4.611   4.015   3.969  0.0199  3.3366  2.9507
   8223SM   H8T10896   4.457   3.916   3.998  0.0724  0.3182  1.5658
   8223SM   C9S10897   4.444   4.115   4.069  1.3346  0.0215 -0.7035
   8223SM   H9S10898   4.334   4.124   4.058  0.9625  0.4343  2.3066
   8223SM   H9T10899   4.484   4.218   4.061 -1.4807  1.8256  4.2037
   8223SM  C10S10900   4.470   4.071   4.211  0.1019  0.0763 -0.2981
   8223SM  H10S10901   4.580   4.055   4.219 -0.0320 -0.0067  1.8733
   8223SM  H10T10902   4.438   3.966   4.227  0.7559 -0.1275 -0.3156
   8223SM  C11S10903   4.414   4.177   4.311 -0.6714 -0.4776  0.1606
   8223SM  H11S10904   4.313   4.212   4.282 -1.0330 -0.9586  0.8101
   8223SM  H11T10905   4.473   4.270   4.294 -1.8677  0.2358 -0.1794
   8223SM  C12S10906   4.416   4.140   4.464  1.0143  0.2725  0.1446
   8223SM  H12S10907   4.519   4.113   4.494  1.0828  0.1715 -0.1709
   8223SM  H12T10908   4.342   4.058   4.476 -1.9575  2.4268 -1.8874
   8223SM  C13S10909   4.373   4.262   4.551 -0.2831  0.6926 -0.1704
   8223SM  H13S10910   4.270   4.297   4.524  0.4238  2.8580 -0.2978
   8223SM  H13T10911   4.450   4.337   4.523  0.3251 -0.6031 -2.0582
   8223SM  C14S10912   4.384   4.223   4.698  0.0772 -0.0866  0.8769
   8223SM  H14S10913   4.485   4.183   4.721 -0.1442 -0.4405  1.2356
   8223SM  H14T10914   4.305   4.145   4.708  0.3825 -0.5878 -0.4054
   8223SM  C15S10915   4.353   4.337   4.793 -0.2563 -0.7585 -0.3620
   8223SM  H15S10916   4.244   4.357   4.781 -0.8600 -3.1987  0.5221
   8223SM  H15T10917   4.404   4.432   4.767  1.0465 -1.4922 -0.5454
   8223SM  C16S10918   4.369   4.316   4.945 -0.2470 -0.7588  0.7424
   8223SM  H16S10919   4.326   4.400   5.003  0.1311  0.7059 -1.0083
   8223SM  H16T10920   4.478   4.304   4.960  0.3214  0.9603 -1.4938
   8223SM  C17S10921   4.299   4.188   4.998  0.7613 -0.2587  0.9801
   8223SM  H17S10922   4.319   4.180   5.107  1.0351  0.4555  0.9842
   8223SM  H17T10923   4.349   4.098   4.955 -0.0975  0.4461 -1.7177
   8223SM  C18S10924   4.150   4.189   4.976 -0.0526 -0.1708  0.5290
   8223SM  H18S10925   4.108   4.279   5.025  0.5081 -0.5898  1.7994
   8223SM  H18T10926   4.096   4.104   5.023  0.4798 -0.3330  0.8584
   8223SM  H18U10927   4.120   4.181   4.869  2.8643  1.0116 -0.4641
   8223SM   C1F10928   4.062   3.615   3.513  0.4018  0.5091 -0.4195
   8223SM    OF10929   4.144   3.529   3.480 -0.3907  0.3991 -0.2666
   8223SM   C2F10930   3.927   3.580   3.561 -0.0773  0.5655  0.6023
   8223SM   H2F10931   3.868   3.549   3.472 -0.5826 -0.2236  1.1962
   8223SM   H2G10932   3.885   3.672   3.608 -0.2375  0.6048  0.3819
   8223SM   C3F10933   3.932   3.467   3.672  0.6513  0.0957  0.0101
   8223SM   H3F10934   4.000   3.490   3.757  0.5647  0.0534  0.0911
   8223SM   H3G10935   3.983   3.377   3.630  1.0084  1.0193 -1.6017
   8223SM   C4F10936   3.795   3.443   3.739 -0.1105 -0.0015  0.2666
   8223SM   H4F10937   3.713   3.433   3.665 -1.9672  0.4928  2.1524
   8223SM   H4G10938   3.771   3.539   3.790 -0.3654  0.0658  0.0244
   8223SM   C5F10939   3.768   3.329   3.838  0.3926  0.3777 -0.3277
   8223SM   H5F10940   3.786   3.230   3.791  0.1668  0.7157 -1.1351
   8223SM   H5G10941   3.660   3.324   3.864 -0.1815  1.0875 -2.4244
   8223SM   C6F10942   3.861   3.339   3.962 -0.3546 -0.1295  0.1176
   8223SM   H6F10943   3.957   3.313   3.912 -0.8411 -2.4911  0.2700
   8223SM   H6G10944   3.831   3.259   4.033 -3.0430  0.8484  0.1867
   8223SM   C7F10945   3.887   3.472   4.030 -0.1424  0.2980  0.0361
   8223SM   H7F10946   3.786   3.513   4.047 -1.1587 -2.1359  0.2722
   8223SM   H7G10947   3.942   3.540   3.961 -0.3772  1.5315  1.0345
   8223SM   C8F10948   3.965   3.469   4.157 -0.3011  0.1220  0.0080
   8223SM   H8F10949   4.047   3.544   4.152  0.1849 -0.4751 -1.7222
   8223SM   H8G10950   4.019   3.373   4.168 -0.2802  0.0849 -0.4081
   8223SM   C9F10951   3.882   3.484   4.288 -0.0529  0.2561 -0.0492
   8223SM   H9F10952   3.817   3.395   4.302  1.2273 -0.8296 -0.7558
   8223SM   H9G10953   3.813   3.570   4.272 -0.7247 -0.2615  0.0490
   8223SM  C10F10954   3.973   3.498   4.412  0.9581 -0.0776  0.3829
   8223SM  H10F10955   3.902   3.518   4.495  1.4435 -1.5080  1.1679
   8223SM  H10G10956   4.058   3.568   4.402  1.5936 -1.1830 -3.4867
   8223SM  C11F10957   4.031   3.358   4.455 -0.2154  0.4694  0.8482
   8223SM  H11F10958   4.095   3.324   4.370  1.1727  2.1097  1.1756
   8223SM  H11G10959   3.941   3.294   4.452  2.2596 -3.3035 -0.0205
   8223SM  C12F10960   4.121   3.353   4.578 -0.8378 -0.0481  1.0022
   8223SM  H12F10961   4.069   3.397   4.666 -2.0955 -1.0775  0.8007
   8223SM  H12G10962   4.210   3.412   4.548 -1.4918  0.4285 -0.0731
   8223SM  C13F10963   4.164   3.212   4.621 -0.2366 -0.0650  0.5097
   8223SM  H13F10964   4.225   3.167   4.540 -1.1829  1.4989 -1.1314
   8223SM  H13G10965   4.069   3.157   4.631  0.7362 -1.4931  2.6062
   8223SM  C14F10966   4.238   3.194   4.755  0.6877  0.4037  0.4355
   8223SM  H14F10967   4.181   3.229   4.843  0.3601 -0.3170  0.5237
   8223SM  H14G10968   4.328   3.259   4.756 -0.3991  1.9441  1.4352
   8223SM  C15F10969   4.283   3.042   4.783 -0.1388  0.0494  0.5712
   8223SM  H15F10970   4.370   3.027   4.715 -0.9092 -0.8098 -0.2496
   8223SM  H15G10971   4.199   2.974   4.758 -0.4746 -0.0673  1.9214
   8223SM  C16F10972   4.323   3.029   4.926 -0.0229  0.4791  0.0281
   8223SM  H16F10973   4.234   3.052   4.988 -0.2728 -0.8050  0.1796
   8223SM  H16G10974   4.400   3.096   4.969  1.9679 -2.3066  1.0958
   8223SM  C17F10975   4.364   2.881   4.956 -0.2589 -0.4374 -0.6152
   8223SM  H17F10976   4.460   2.857   4.905  2.1776  0.0947  3.2915
   8223SM  H17G10977   4.287   2.817   4.908  0.5057 -0.0710 -2.4228
   8223SM  C18F10978   4.372   2.857   5.105 -0.6454  0.0300  0.5689
   8223SM  H18F10979   4.273   2.888   5.146 -0.6385  1.7125 -0.5919
   8223SM  H18G10980   4.446   2.917   5.161  1.2099  0.5277 -2.2300
   8223SM  C19F10981   4.376   2.711   5.155  0.3900 -0.4021  0.4210
   8223SM  H19F10982   4.467   2.662   5.115  0.2272  2.1277 -3.6139
   8223SM  H19G10983   4.298   2.656   5.097  0.6814 -0.0090 -0.3627
   8223SM  C20F10984   4.379   2.708   5.305  0.2014  0.1978  1.0157
   8223SM  H20F10985   4.277   2.721   5.348  0.4121 -0.2433  1.6630
   8223SM  H20G10986   4.465   2.771   5.336 -0.3725  2.3612 -1.5026
   8223SM  C21F10987   4.413   2.563   5.363  0.3295 -0.0437  0.0523
   8223SM  H21F10988   4.512   2.531   5.322 -0.4877 -0.4484 -1.7115
   8223SM  H21G10989   4.332   2.502   5.316  1.0597 -0.0146 -1.2974
   8223SM  C22F10990   4.393   2.535   5.513 -0.2357  0.5356  0.4693
   8223SM  H22F10991   4.287   2.533   5.547 -0.0113 -1.3960  1.1761
   8223SM  H22G10992   4.443   2.623   5.559 -2.8356  2.7903 -0.7141
   8223SM  C23F10993   4.453   2.398   5.551 -0.3697  1.0702  0.4776
   8223SM  H23F10994   4.434   2.390   5.660  0.3851 -2.2087  0.4812
   8223SM  H23G10995   4.561   2.393   5.524 -1.1939 -0.2521 -3.1386
   8223SM  H23H10996   4.409   2.309   5.500 -0.3482 -0.5512  3.1243
   8323SM     N10997   5.082   4.315   2.421 -0.2540  0.4722 -0.6415
   8323SM   C1510998   5.131   4.178   2.445 -1.2552 -0.0907  0.7455
   8323SM  H15A10999   5.231   4.178   2.488 -1.0789 -0.3070  0.3411
   8323SM  H15B11000   5.137   4.117   2.357  2.5590  2.4288 -1.0346
   8323SM  H15C11001   5.073   4.122   2.517  0.0207 -1.4196  0.7860
   8323SM   C1411002   5.178   4.386   2.332 -0.1323 -0.5996  0.6146
   8323SM  H14A11003   5.156   4.492   2.336  1.2390 -0.3197  1.7670
   8323SM  H14B11004   5.180   4.343   2.233  0.0775  1.0374 -0.1248
   8323SM  H14C11005   5.274   4.386   2.382 -0.0943  1.3003  0.6233
   8323SM   C1311006   4.948   4.298   2.348  0.1460  0.0945  0.6577
   8323SM  H13A11007   4.919   4.387   2.293 -1.1299 -2.0566 -2.4228
   8323SM  H13B11008   4.862   4.267   2.406 -0.5208 -0.0906 -0.4092
   8323SM  H13C11009   4.954   4.219   2.275  0.8540 -0.1795  0.9946
   8323SM   C1211010   5.067   4.393   2.549 -0.2426  0.4702  0.3520
   8323SM  H12A11011   5.071   4.497   2.521  1.6755  0.4764  0.5204
   8323SM  H12B11012   5.150   4.385   2.617  1.2499  1.0082 -1.3156
   8323SM   C1111013   4.945   4.359   2.632  0.5278  0.1424 -1.0788
   8323SM  H11A11014   4.848   4.364   2.578 -1.6126 -0.9546  2.3590
   8323SM  H11B11015   4.934   4.424   2.721 -0.1092 -0.9642 -0.3140
   8323SM     P11016   5.056   4.184   2.803 -0.2250  0.5336 -0.2291
   8323SM   O1311017   5.039   4.045   2.847 -0.3343 -0.1673  0.0581
   8323SM   O1411018   5.193   4.227   2.766 -0.6326 -0.1692 -0.1209
   8323SM   O1111019   5.016   4.287   2.911  0.3014  0.2174 -0.3991
   8323SM   O1211020   4.962   4.221   2.680  0.2478  0.0070  0.3745
   8323SM   C1S11021   4.901   4.261   2.997 -0.0605 -0.3735 -1.1251
   8323SM   H1S11022   4.904   4.155   3.030  0.1495  0.3495  1.4108
   8323SM   H1T11023   4.806   4.289   2.947 -0.4335  1.4476  0.4955
   8323SM    NF11024   4.806   4.302   3.228 -0.1536 -0.7669  0.0365
   8323SM   HNF11025   4.733   4.367   3.249  0.6399  0.6540 -1.3260
   8323SM   C2S11026   4.902   4.352   3.131  0.0062  0.7936  0.4546
   8323SM   H2S11027   5.005   4.328   3.167  0.7732 -1.7769 -2.8473
   8323SM   C3S11028   4.900   4.498   3.085 -0.0755 -0.0785  0.7089
   8323SM   H3S11029   4.796   4.515   3.048 -0.7986  3.5713  3.7864
   8323SM    O311030   4.979   4.542   2.979  0.1797  0.1108  0.0117
   8323SM   HO311031   5.018   4.459   2.948 -0.8683 -0.2995 -0.2664
   8323SM   C4S11032   4.907   4.593   3.204  0.3588  0.1961  0.6923
   8323SM   H4S11033   4.809   4.640   3.220  0.6112  0.8271  0.4218
   8323SM   C5S11034   5.019   4.659   3.253 -0.7858  0.1567 -0.6283
   8323SM   H5S11035   5.120   4.650   3.209 -0.4873  2.3386 -0.5084
   8323SM   C6S11036   4.999   4.767   3.358 -0.5512  0.2800 -0.1643
   8323SM   H6S11037   4.896   4.808   3.356 -1.2392 -1.3358  0.1284
   8323SM   H6T11038   5.082   4.841   3.351 -0.4509  0.1008 -0.9169
   8323SM   C7S11039   5.008   4.701   3.507 -0.2924  0.6544  0.1147
   8323SM   H7S11040   5.114   4.672   3.525 -0.7428 -0.0362  1.7705
   8323SM   H7T11041   4.959   4.602   3.504 -0.0991  0.5528  0.2808
   8323SM   C8S11042   4.966   4.789   3.624  0.5822 -0.0726  0.0639
   8323SM   H8S11043   4.855   4.781   3.623  0.6625 -1.7047 -1.2580
   8323SM   H8T11044   5.018   4.885   3.610  1.7058 -0.3995  1.6981
   8323SM   C9S11045   5.023   4.734   3.759 -0.1072 -0.3414  0.8002
   8323SM   H9S11046   5.132   4.714   3.757 -0.1463 -0.5188  0.2116
   8323SM   H9T11047   4.970   4.638   3.776  2.1344 -2.4082 -2.5912
   8323SM  C10S11048   5.001   4.832   3.870  0.6224 -0.4072  1.0414
   8323SM  H10S11049   4.899   4.874   3.883  1.7473  2.0952  2.3741
   8323SM  H10T11050   5.052   4.923   3.833 -1.1271  0.3438  0.3684
   8323SM  C11S11051   5.058   4.777   3.990  0.3960 -0.2118  0.2919
   8323SM  H11S11052   5.168   4.786   3.994  0.2510  2.4399 -0.2728
   8323SM  H11T11053   5.034   4.669   4.003 -0.0539 -0.0934  0.4588
   8323SM  C12S11054   5.008   4.855   4.110  0.7794  0.6590  0.1142
   8323SM  H12S11055   4.904   4.828   4.139  1.0309  2.1912  2.7260
   8323SM  H12T11056   5.004   4.963   4.086 -2.8273  0.1052 -2.6936
   8323SM  C13S11057   5.087   4.831   4.238 -0.3546  0.8034  0.6812
   8323SM  H13S11058   5.197   4.823   4.226 -0.3477 -0.2283  1.3258
   8323SM  H13T11059   5.057   4.737   4.288 -2.0043  0.2763 -1.1487
   8323SM  C14S11060   5.071   4.942   4.339 -0.2910  0.5281 -0.0964
   8323SM  H14S11061   4.963   4.966   4.327  0.4305  3.5361 -1.3166
   8323SM  H14T11062   5.116   5.035   4.299 -0.5640  2.0527  2.9348
   8323SM  C15S11063   5.124   4.911   4.477  0.8197 -0.3285 -0.0127
   8323SM  H15S11064   5.190   4.822   4.478  2.9594  1.1656  1.7946
   8323SM  H15T11065   5.036   4.889   4.541  0.9581  0.2334  0.3814
   8323SM  C16S11066   5.197   5.027   4.541  0.1418 -0.3806 -0.2654
   8323SM  H16S11067   5.127   5.112   4.543  0.3517 -0.1366  2.9131
   8323SM  H16T11068   5.285   5.055   4.478 -0.7134 -1.6775 -2.1276
   8323SM  C17S11069   5.243   4.990   4.689 -0.3166 -0.0541  0.0118
   8323SM  H17S11070   5.296   5.078   4.730 -1.3858  0.0162  1.2745
   8323SM  H17T11071   5.314   4.904   4.687 -1.5689 -1.1340  0.1570
   8323SM  C18S11072   5.141   4.949   4.792  0.4793  0.1299 -0.5425
   8323SM  H18S11073   5.109   5.036   4.854 -1.2101 -0.3605 -0.6682
   8323SM  H18T11074   5.199   4.879   4.855  0.6757 -0.4944 -1.4075
   8323SM  H18U11075   5.057   4.904   4.736  0.8451 -0.2288 -0.8062
   8323SM   C1F11076   4.807   4.184   3.291  0.3139 -0.4680 -0.6430
   8323SM    OF11077   4.894   4.106   3.268  0.1697  0.5606 -0.4042
   8323SM   C2F11078   4.698   4.163   3.395 -0.1750  0.3123  0.4583
   8323SM   H2F11079   4.682   4.053   3.400  0.8120  0.1508  0.3464
   8323SM   H2G11080   4.607   4.216   3.360 -0.0140  0.6330  0.5222
   8323SM   C3F11081   4.752   4.208   3.538 -0.1622 -0.1383  0.3190
   8323SM   H3F11082   4.851   4.164   3.563 -0.5036 -0.7168  0.6672
   8323SM   H3G11083   4.684   4.158   3.609  0.4438 -0.9418  0.3458
   8323SM   C4F11084   4.750   4.357   3.579  0.5497 -0.0468 -0.3622
   8323SM   H4F11085   4.650   4.401   3.600 -0.1405 -1.6977  0.0206
   8323SM   H4G11086   4.813   4.406   3.502  2.2434 -0.6204  0.6047
   8323SM   C5F11087   4.832   4.372   3.711  0.0779 -0.2477 -0.1430
   8323SM   H5F11088   4.851   4.481   3.706 -1.6578  0.0854 -0.0666
   8323SM   H5G11089   4.928   4.320   3.690 -0.4517 -1.0897 -0.5412
   8323SM   C6F11090   4.764   4.341   3.843  0.8842 -0.0408 -0.2063
   8323SM   H6F11091   4.768   4.233   3.867 -0.8823  0.3843  2.3551
   8323SM   H6G11092   4.659   4.378   3.840  0.8832  0.1436  1.3130
   8323SM   C7F11093   4.844   4.403   3.956 -0.3512 -1.5504 -0.4603
   8323SM   H7F11094   4.861   4.510   3.934  0.3823 -2.1327 -3.1648
   8323SM   H7G11095   4.945   4.358   3.971  1.0442  1.0661 -1.4761
   8323SM   C8F11096   4.761   4.393   4.089  0.4137 -0.0510  1.0623
   8323SM   H8F11097   4.727   4.290   4.109 -0.3860  0.4719  2.5794
   8323SM   H8G11098   4.663   4.441   4.069  0.0917 -1.3077 -0.5323
   8323SM   C9F11099   4.822   4.446   4.216  0.1401  0.0415 -0.4617
   8323SM   H9F11100   4.849   4.553   4.211 -0.7913  0.3148  0.1390
   8323SM   H9G11101   4.911   4.388   4.251 -0.8752  0.0056  2.3179
   8323SM  C10F11102   4.733   4.414   4.342  0.1534 -0.0133 -0.4936
   8323SM  H10F11103   4.724   4.304   4.349 -0.2846 -0.0174 -1.0206
   8323SM  H10G11104   4.634   4.465   4.339  0.2249  0.0789 -2.8759
   8323SM  C11F11105   4.804   4.470   4.471 -0.0896  0.1508  0.8193
   8323SM  H11F11106   4.820   4.579   4.462  0.1861  0.1939  1.7231
   8323SM  H11G11107   4.907   4.429   4.476 -0.0659 -0.2107 -1.4923
   8323SM  C12F11108   4.726   4.437   4.596 -0.4302 -0.0267 -0.1582
   8323SM  H12F11109   4.699   4.330   4.601 -0.6705  0.0855  1.4035
   8323SM  H12G11110   4.629   4.489   4.586  0.3286  1.6976  0.9048
   8323SM  C13F11111   4.803   4.490   4.720 -0.0063  0.1872 -0.6398
   8323SM  H13F11112   4.854   4.585   4.696  1.8454 -0.8456 -1.0171
   8323SM  H13G11113   4.887   4.420   4.742  0.2862  0.0015 -2.2249
   8323SM  C14F11114   4.725   4.512   4.849 -0.2559  0.1442 -0.2054
   8323SM  H14F11115   4.666   4.423   4.878 -0.7015  1.0314  1.8356
   8323SM  H14G11116   4.653   4.591   4.819 -1.1167 -0.3640  0.4711
   8323SM  C15F11117   4.818   4.560   4.960  0.0598 -0.3094 -0.2864
   8323SM  H15F11118   4.887   4.637   4.919  0.1833 -0.6986 -0.8150
   8323SM  H15G11119   4.877   4.476   5.001  0.2113 -0.2526 -0.3889
   8323SM  C16F11120   4.743   4.637   5.076  0.0891  0.4470  0.4059
   8323SM  H16F11121   4.663   4.572   5.118 -1.1947  1.5209 -0.2705
   8323SM  H16G11122   4.689   4.718   5.021  2.3183  1.1282 -0.9302
   8323SM  C17F11123   4.834   4.678   5.190 -0.3388 -0.0883 -0.4365
   8323SM  H17F11124   4.868   4.587   5.243 -0.2345  0.9423  1.3471
   8323SM  H17G11125   4.776   4.733   5.268  0.6084 -0.1821  0.3570
   8323SM  C18F11126   4.949   4.763   5.144  0.1819  0.0489  0.8263
   8323SM  H18F11127   4.924   4.854   5.086  2.0089  0.5272  0.7378
   8323SM  H18G11128   5.010   4.699   5.076  0.0235  1.0659 -0.3068
   8323SM  C19F11129   5.038   4.820   5.257  0.1476 -0.7261  0.0155
   8323SM  H19F11130   5.114   4.747   5.291  1.0087  0.2776  0.3033
   8323SM  H19G11131   4.981   4.855   5.345  1.1607  0.9957  0.0357
   8323SM  C20F11132   5.129   4.942   5.204  0.0845 -0.1866  0.3555
   8323SM  H20F11133   5.068   5.006   5.137  0.1241  2.3374  2.5423
   8323SM  H20G11134   5.212   4.913   5.136  0.5797  0.8739  0.4720
   8323SM  C21F11135   5.191   5.021   5.325  0.3855  0.1815  0.6132
   8323SM  H21F11136   5.105   5.070   5.376 -1.4966 -2.2803  0.0146
   8323SM  H21G11137   5.230   5.105   5.263 -4.3004 -0.3310 -3.6948
   8323SM  C22F11138   5.287   4.942   5.417 -0.7137  0.9781 -0.0020
   8323SM  H22F11139   5.351   4.869   5.363  1.4281  1.9442  1.1082
   8323SM  H22G11140   5.223   4.885   5.486 -0.8827 -0.4083 -1.2510
   8323SM  C23F11141   5.385   5.015   5.511 -0.1259  0.5224 -0.1206
   8323SM  H23F11142   5.437   4.934   5.566 -1.9276 -0.5962  0.0288
   8323SM  H23G11143   5.335   5.080   5.585 -0.9449 -0.7267  0.4474
   8323SM  H23H11144   5.454   5.083   5.457  0.1983  0.7696  0.6025
   8423SM     N11145   4.737   1.420   2.961 -0.0380  0.1582 -0.2736
   8423SM   C1511146   4.611   1.401   2.879 -0.0923  0.3622 -0.3367
   8423SM  H15A11147   4.609   1.465   2.792  0.9158  1.4293  0.3686
   8423SM  H15B11148   4.523   1.425   2.937  1.7963 -0.9444  3.4505
   8423SM  H15C11149   4.601   1.297   2.855 -0.4671  0.0307  1.1519
   8423SM   C1411150   4.740   1.321   3.077 -0.3522 -0.3595  0.1609
   8423SM  H14A11151   4.723   1.220   3.041 -1.3280  0.6119 -2.2824
   8423SM  H14B11152   4.661   1.348   3.146 -0.6073 -0.8495  0.0712
   8423SM  H14C11153   4.834   1.326   3.130 -0.1263  0.2144 -0.2930
   8423SM   C1311154   4.854   1.404   2.875 -0.2613  0.5730 -1.2425
   8423SM  H13A11155   4.849   1.476   2.794  0.9018  3.4876  1.1162
   8423SM  H13B11156   4.879   1.300   2.862 -0.3389  0.5589 -1.2785
   8423SM  H13C11157   4.937   1.441   2.933  0.4924  0.6119 -2.3129
   8423SM   C1211158   4.747   1.563   3.027 -0.3511  0.1820 -0.2887
   8423SM  H12A11159   4.741   1.638   2.949 -2.8094  0.1744 -0.1769
   8423SM  H12B11160   4.838   1.581   3.083 -0.2496  0.5450 -0.5659
   8423SM   C1111161   4.624   1.599   3.120  0.0886  0.4819  0.3066
   8423SM  H11A11162   4.663   1.690   3.170  1.2596  0.7355 -1.0150
   8423SM  H11B11163   4.611   1.522   3.199 -0.4716  0.8443  0.5726
   8423SM     P11164   4.462   1.726   2.948  0.1662  0.0912  0.4286
   8423SM   O1311165   4.589   1.783   2.887 -0.0345 -0.1697  0.6316
   8423SM   O1411166   4.361   1.678   2.843 -0.1268  0.1870 -0.0734
   8423SM   O1111167   4.385   1.836   3.039  0.4433 -0.9382  0.5139
   8423SM   O1211168   4.503   1.614   3.046 -0.3472  0.0747  0.2483
   8423SM   C1S11169   4.274   1.785   3.121  0.1895  0.1136 -0.1036
   8423SM   H1S11170   4.322   1.716   3.195 -0.2800  0.0125  0.1118
   8423SM   H1T11171   4.193   1.733   3.066 -0.7386  0.5584  0.8085
   8423SM    NF11172   4.112   1.833   3.309 -0.4509 -0.1288  0.3755
   8423SM   HNF11173   4.032   1.787   3.272  0.6141 -3.4807  1.8570
   8423SM   C2S11174   4.199   1.899   3.210 -0.1153  0.2523 -0.3128
   8423SM   H2S11175   4.275   1.956   3.268  0.8990  0.0738 -1.4339
   8423SM   C3S11176   4.123   2.001   3.120 -0.0432 -0.2673 -0.0829
   8423SM   H3S11177   4.051   1.945   3.057  0.6647 -0.7303 -0.4932
   8423SM    O311178   4.205   2.074   3.027  0.1078 -0.4473 -0.2085
   8423SM   HO311179   4.275   2.014   3.003 -0.6619 -1.9514  1.1629
   8423SM   C4S11180   4.044   2.092   3.216  0.2695  0.4492  0.0008
   8423SM   H4S11181   3.943   2.053   3.237  1.6361 -1.7935  3.2513
   8423SM   C5S11182   4.082   2.202   3.281  0.5959 -0.6690  0.4390
   8423SM   H5S11183   4.188   2.227   3.297  0.8519 -0.9156 -0.7666
   8423SM   C6S11184   4.000   2.291   3.370  0.0322  0.1599  0.0767
   8423SM   H6S11185   3.944   2.354   3.298  0.3930 -1.1573 -1.4119
   8423SM   H6T11186   4.063   2.359   3.432  2.2739  0.3533 -2.2527
   8423SM   C7S11187   3.905   2.204   3.468 -0.6536 -0.4995  0.3468
   8423SM   H7S11188   3.820   2.165   3.407 -2.8263  3.1616  0.7331
   8423SM   H7T11189   3.864   2.283   3.534  0.0934  0.7302 -0.6237
   8423SM   C8S11190   3.978   2.108   3.559  0.0733  0.8129 -0.6888
   8423SM   H8S11191   4.048   2.173   3.615 -0.4426 -0.6056  1.7656
   8423SM   H8T11192   4.030   2.025   3.507  2.0390  2.1225 -0.9358
   8423SM   C9S11193   3.883   2.056   3.675  0.4918  0.3171  0.0603
   8423SM   H9S11194   3.793   2.003   3.639 -0.7747  0.8187  2.3302
   8423SM   H9T11195   3.838   2.143   3.727 -1.4390 -0.5127 -0.1414
   8423SM  C10S11196   3.951   1.975   3.773 -0.0443  0.8171 -0.6787
   8423SM  H10S11197   4.026   2.038   3.825 -1.4957  1.2615  0.9785
   8423SM  H10T11198   3.995   1.879   3.740 -1.9516 -1.2450  2.3245
   8423SM  C11S11199   3.856   1.942   3.888 -0.2851  0.2649  0.1522
   8423SM  H11S11200   3.911   1.890   3.970  1.3464 -0.4712 -1.3300
   8423SM  H11T11201   3.775   1.871   3.861 -1.0926  1.3179 -0.2341
   8423SM  C12S11202   3.786   2.057   3.965  0.0876 -0.3859 -0.4524
   8423SM  H12S11203   3.694   2.089   3.913 -1.9874 -1.9743  2.0135
   8423SM  H12T11204   3.864   2.136   3.974  0.1442 -0.5033  0.1768
   8423SM  C13S11205   3.740   2.018   4.108  0.1374  0.4122 -0.3947
   8423SM  H13S11206   3.707   2.106   4.168  0.1469 -1.1722  2.0959
   8423SM  H13T11207   3.818   1.977   4.176  0.8780  0.8485 -0.9693
   8423SM  C14S11208   3.623   1.922   4.094 -0.0471  0.3833 -0.2482
   8423SM  H14S11209   3.661   1.829   4.045 -1.4499 -0.7969  0.8352
   8423SM  H14T11210   3.536   1.966   4.041 -1.6713 -0.3873  1.6772
   8423SM  C15S11211   3.565   1.888   4.235  0.2934 -0.1369  0.1590
   8423SM  H15S11212   3.557   1.983   4.293  1.2523 -0.3694  0.6922
   8423SM  H15T11213   3.643   1.827   4.285 -0.1061 -0.1376  0.8077
   8423SM  C16S11214   3.429   1.813   4.228 -0.1505  0.1567 -0.3405
   8423SM  H16S11215   3.406   1.760   4.322 -1.0631  1.2696  0.0895
   8423SM  H16T11216   3.434   1.732   4.152 -1.5846 -1.5702  1.3254
   8423SM  C17S11217   3.314   1.911   4.200 -0.7187  0.3297 -0.2090
   8423SM  H17S11218   3.241   1.856   4.137 -0.3513 -0.0272 -0.3282
   8423SM  H17T11219   3.352   2.002   4.149 -0.2739 -0.6797 -1.7452
   8423SM  C18S11220   3.234   1.955   4.322 -0.6834 -0.4127 -0.0995
   8423SM  H18S11221   3.307   1.977   4.404 -3.4069  0.0277  2.3725
   8423SM  H18T11222   3.176   1.866   4.354  3.1287 -3.0066  0.3201
   8423SM  H18U11223   3.166   2.040   4.300  1.6440  1.3269 -0.9996
   8423SM   C1F11224   4.169   1.774   3.417  0.1358  0.3480  0.4550
   8423SM    OF11225   4.289   1.796   3.447  0.4725 -0.3538 -0.9540
   8423SM   C2F11226   4.086   1.681   3.496  0.0200  0.0270  0.4211
   8423SM   H2F11227   4.029   1.603   3.441  0.7809 -0.9609  0.9839
   8423SM   H2G11228   4.019   1.740   3.562  0.2625 -0.4144  1.0746
   8423SM   C3F11229   4.180   1.612   3.592 -0.1096  0.3933 -0.6140
   8423SM   H3F11230   4.239   1.686   3.651  0.3159 -1.8360  1.9677
   8423SM   H3G11231   4.256   1.558   3.532 -0.9177 -1.8636  0.3126
   8423SM   C4F11232   4.122   1.513   3.693  0.9292 -0.2117  0.3815
   8423SM   H4F11233   4.202   1.437   3.707  0.3681 -0.9741 -0.4239
   8423SM   H4G11234   4.031   1.469   3.646 -0.4822 -0.4126  3.0770
   8423SM   C5F11235   4.079   1.575   3.830  0.2533  0.4367 -0.0252
   8423SM   H5F11236   4.011   1.658   3.803 -1.2041 -0.9138 -0.6620
   8423SM   H5G11237   4.171   1.618   3.876  1.0512  1.7316 -2.6418
   8423SM   C6F11238   4.012   1.482   3.929 -0.0731 -0.5336 -0.6481
   8423SM   H6F11239   4.097   1.420   3.967  0.0570  0.5349  0.8931
   8423SM   H6G11240   3.941   1.412   3.880  0.5292 -1.4593 -0.2514
   8423SM   C7F11241   3.971   1.544   4.060  0.6756  0.4736  0.0137
   8423SM   H7F11242   3.890   1.491   4.115 -0.8277  0.5481 -2.0116
   8423SM   H7G11243   3.921   1.640   4.036 -0.3975  0.1648  0.8954
   8423SM   C8F11244   4.078   1.573   4.170  0.4791 -0.1852  0.0522
   8423SM   H8F11245   4.157   1.641   4.130 -1.8021  3.0818  0.7025
   8423SM   H8G11246   4.127   1.476   4.196 -1.1677 -0.5594  2.0032
   8423SM   C9F11247   4.024   1.629   4.300 -0.2744  0.5339 -0.0374
   8423SM   H9F11248   3.964   1.548   4.346  2.0198 -0.9596  0.4756
   8423SM   H9G11249   3.964   1.719   4.274  0.3898  1.4670  1.5062
   8423SM  C10F11250   4.129   1.659   4.403  0.1426  0.8660 -0.0009
   8423SM  H10F11251   4.199   1.724   4.346 -0.7371  0.5173 -1.5230
   8423SM  H10G11252   4.171   1.560   4.430 -1.6672  0.0885  0.0815
   8423SM  C11F11253   4.064   1.731   4.514 -0.7561 -0.1104 -0.5707
   8423SM  H11F11254   3.958   1.700   4.529 -0.7613  0.7076  1.4007
   8423SM  H11G11255   4.065   1.838   4.486 -3.9180  0.0257 -0.5412
   8423SM  C12F11256   4.125   1.710   4.653  0.4815 -0.8201 -0.2228
   8423SM  H12F11257   4.126   1.601   4.672 -1.1322 -0.7539  0.3979
   8423SM  H12G11258   4.053   1.745   4.730  2.0907  0.5930  0.7073
   8423SM  C13F11259   4.266   1.777   4.685  0.4764  0.3528  0.6972
   8423SM  H13F11260   4.332   1.724   4.613 -1.2865  0.2111 -0.8767
   8423SM  H13G11261   4.299   1.756   4.789 -0.9638  2.7250  1.7219
   8423SM  C14F11262   4.274   1.931   4.660 -0.1358  0.5929 -0.4219
   8423SM  H14F11263   4.194   1.987   4.713  1.0470  1.5439  0.4185
   8423SM  H14G11264   4.275   1.947   4.550  0.2380 -0.5901 -0.6049
   8423SM  C15F11265   4.411   1.980   4.708  0.1000 -0.4620 -0.4400
   8423SM  H15F11266   4.486   1.927   4.645  1.2470 -0.3483  0.7882
   8423SM  H15G11267   4.422   1.954   4.815  0.5895  0.4350 -0.2629
   8423SM  C16F11268   4.428   2.142   4.675  0.4269 -0.6577  0.4207
   8423SM  H16F11269   4.348   2.194   4.732 -0.7631  0.0075 -1.7371
   8423SM  H16G11270   4.423   2.161   4.566  0.2583  1.6855  0.7788
   8423SM  C17F11271   4.555   2.200   4.726 -0.5723  0.0959  0.1236
   8423SM  H17F11272   4.575   2.300   4.684 -0.6063 -0.2563 -0.7611
   8423SM  H17G11273   4.639   2.134   4.695 -0.2556 -1.8054  4.3115
   8423SM  C18F11274   4.563   2.219   4.873  0.3947  0.2537 -0.3344
   8423SM  H18F11275   4.555   2.117   4.916  0.4047 -0.1190 -1.1885
   8423SM  H18G11276   4.474   2.282   4.895 -1.4008 -2.6933  1.4114
   8423SM  C19F11277   4.694   2.284   4.915  0.3120 -0.1374  0.5125
   8423SM  H19F11278   4.703   2.386   4.870 -1.0774 -0.3917 -0.4046
   8423SM  H19G11279   4.783   2.224   4.888 -0.5896 -2.4185  2.3065
   8423SM  C20F11280   4.702   2.318   5.068  0.7143  0.2900 -0.2762
   8423SM  H20F11281   4.709   2.239   5.146 -2.1039  1.3130  1.1476
   8423SM  H20G11282   4.611   2.376   5.093  0.7652 -0.4432  1.7984
   8423SM  C21F11283   4.827   2.406   5.092 -0.1950 -0.4230  0.8809
   8423SM  H21F11284   4.838   2.468   5.000  0.4087 -0.2901  1.0392
   8423SM  H21G11285   4.908   2.330   5.088 -1.3181 -1.6286  0.0808
   8423SM  C22F11286   4.816   2.485   5.216  0.9061 -0.0897  0.1550
   8423SM  H22F11287   4.721   2.544   5.212  0.9148 -0.0621  0.3874
   8423SM  H22G11288   4.898   2.560   5.221  0.8896 -0.1530  2.4237
   8423SM  C23F11289   4.817   2.405   5.343  0.8397  0.0890  0.2951
   8423SM  H23F11290   4.821   2.477   5.428  0.2850 -0.2766  0.6342
   8423SM  H23G11291   4.914   2.354   5.356  0.6099 -0.4261  0.0007
   8423SM  H23H11292   4.729   2.338   5.353  0.1352  0.6658 -1.5326
   8523SM     N11293   5.274   2.838   3.009  0.4599  0.2120  0.0835
   8523SM   C1511294   5.305   2.805   2.867  0.0510 -0.9893  0.1552
   8523SM  H15A11295   5.217   2.775   2.813  0.9098 -0.2789 -1.7467
   8523SM  H15B11296   5.389   2.738   2.857  0.7900  0.1694 -1.9636
   8523SM  H15C11297   5.327   2.901   2.821 -1.0678 -1.1147 -0.6858
   8523SM   C1411298   5.170   2.949   3.024  0.2375  0.1943  0.0013
   8523SM  H14A11299   5.070   2.926   2.988 -0.4871 -2.7826  3.3849
   8523SM  H14B11300   5.213   3.038   2.981 -1.7418  0.9881 -0.4474
   8523SM  H14C11301   5.154   2.980   3.126 -1.2458  2.4755 -0.8318
   8523SM   C1311302   5.215   2.716   3.074 -0.1654 -0.4277 -0.1914
   8523SM  H13A11303   5.115   2.689   3.042 -1.1252  1.1219  1.2963
   8523SM  H13B11304   5.192   2.743   3.176  0.2740  1.6153 -0.5915
   8523SM  H13C11305   5.285   2.634   3.079  0.6982  0.2410 -0.9479
   8523SM   C1211306   5.393   2.890   3.077 -0.8390 -0.1679 -0.1786
   8523SM  H12A11307   5.465   2.812   3.095 -1.2842 -0.4225  0.5304
   8523SM  H12B11308   5.358   2.923   3.173 -0.7256 -0.9042  0.1240
   8523SM   C1111309   5.471   3.004   2.998  0.4844  0.1556 -1.1489
   8523SM  H11A11310   5.502   2.959   2.901 -1.1358 -2.7242 -0.4636
   8523SM  H11B11311   5.564   3.031   3.052  0.0261  0.7455 -0.6424
   8523SM     P11312   5.432   3.257   3.050 -0.3063  0.4354  0.1655
   8523SM   O1311313   5.548   3.312   2.971  0.5568  0.0296  0.1167
   8523SM   O1411314   5.314   3.344   3.063 -0.4780  0.0535 -0.0863
   8523SM   O1111315   5.482   3.225   3.200 -0.6849  0.2076  0.4673
   8523SM   O1211316   5.387   3.120   2.993  0.8108 -0.0358  0.3113
   8523SM   C1S11317   5.380   3.192   3.289  0.4188 -0.0377  0.2134
   8523SM   H1S11318   5.291   3.158   3.232  0.5217  1.4551 -0.8727
   8523SM   H1T11319   5.361   3.285   3.347  1.4794  0.7028 -0.5806
   8523SM    NF11320   5.290   3.064   3.469 -1.0498  0.2117  0.0607
   8523SM   HNF11321   5.275   3.126   3.546 -0.5618 -0.6756  0.8957
   8523SM   C2S11322   5.410   3.081   3.389 -0.9108 -0.6842 -0.2848
   8523SM   H2S11323   5.430   2.987   3.333  0.7604 -0.7982  0.4437
   8523SM   C3S11324   5.543   3.120   3.468 -0.0333 -0.1583 -0.2592
   8523SM   H3S11325   5.516   3.216   3.518 -0.2615 -0.0545 -0.5760
   8523SM    O311326   5.653   3.149   3.379 -0.2440  0.3901  0.7497
   8523SM   HO311327   5.600   3.174   3.303  0.2136 -2.2283 -0.5743
   8523SM   C4S11328   5.586   3.011   3.568 -0.3932  0.2477  0.0198
   8523SM   H4S11329   5.639   2.923   3.528 -0.2546  0.2361  0.2243
   8523SM   C5S11330   5.561   3.012   3.706 -0.6333 -0.2546  0.3526
   8523SM   H5S11331   5.502   3.096   3.746 -0.1021  1.1173 -1.5869
   8523SM   C6S11332   5.605   2.906   3.807 -0.9185 -0.1607  0.1961
   8523SM   H6S11333   5.674   2.833   3.758 -0.9526 -0.9564  1.2888
   8523SM   H6T11334   5.515   2.852   3.843  0.6517 -2.3021  1.1694
   8523SM   C7S11335   5.675   2.972   3.930  1.5874  0.1411 -0.1369
   8523SM   H7S11336   5.611   3.053   3.970 -1.3838 -2.2498  0.3336
   8523SM   H7T11337   5.778   3.006   3.905  1.9695  0.1586  1.4029
   8523SM   C8S11338   5.684   2.876   4.046  0.4240  0.5271  0.2404
   8523SM   H8S11339   5.756   2.792   4.036  0.9193  0.9139  0.5300
   8523SM   H8T11340   5.584   2.832   4.070  0.0353  1.8900  1.2910
   8523SM   C9S11341   5.736   2.949   4.171 -0.0821  0.2452 -0.0855
   8523SM   H9S11342   5.654   3.016   4.205 -1.2552 -0.5192 -1.2848
   8523SM   H9T11343   5.828   3.007   4.152 -0.9312  1.4711 -0.5917
   8523SM  C10S11344   5.766   2.848   4.277 -0.5353 -0.6600 -0.5775
   8523SM  H10S11345   5.855   2.784   4.261 -0.0885 -0.4122  0.7933
   8523SM  H10T11346   5.681   2.776   4.281 -1.2742  0.2322  2.7595
   8523SM  C11S11347   5.779   2.909   4.425  0.6654  0.5780  0.0343
   8523SM  H11S11348   5.698   2.976   4.459  0.9961 -0.1645  2.4734
   8523SM  H11T11349   5.873   2.968   4.433  0.3312  0.9868  1.1367
   8523SM  C12S11350   5.818   2.811   4.538  0.5736 -0.2573  0.0962
   8523SM  H12S11351   5.920   2.766   4.531 -0.0404 -1.6855  0.0124
   8523SM  H12T11352   5.749   2.725   4.529  0.4769 -0.3006  1.1758
   8523SM  C13S11353   5.809   2.873   4.675 -0.0662 -0.4107 -0.4298
   8523SM  H13S11354   5.839   2.980   4.674 -0.3137 -0.3399 -0.7679
   8523SM  H13T11355   5.895   2.822   4.722  1.0983 -0.1752 -2.2175
   8523SM  C14S11356   5.673   2.860   4.741  0.6381 -0.3287 -0.6179
   8523SM  H14S11357   5.629   2.759   4.755 -0.3371  0.2037  0.3168
   8523SM  H14T11358   5.596   2.921   4.689  0.4673 -0.2173 -0.2361
   8523SM  C15S11359   5.687   2.925   4.878  0.7510  0.1723  0.5586
   8523SM  H15S11360   5.748   3.018   4.873 -1.4879  1.6529 -1.9296
   8523SM  H15T11361   5.747   2.865   4.950  0.4013  0.7563  1.3526
   8523SM  C16S11362   5.552   2.954   4.928  0.5567 -0.2621 -0.0241
   8523SM  H16S11363   5.492   2.861   4.920  1.5701 -0.8918 -0.5099
   8523SM  H16T11364   5.509   3.045   4.879  2.6457  2.1999  2.4412
   8523SM  C17S11365   5.535   2.991   5.077 -0.2627 -1.1037  0.2619
   8523SM  H17S11366   5.540   2.900   5.141 -0.2396 -1.8060 -0.7224
   8523SM  H17T11367   5.428   3.020   5.080  0.1071  0.4609 -0.4747
   8523SM  C18S11368   5.627   3.100   5.125  0.1022  0.2100  0.3252
   8523SM  H18S11369   5.735   3.079   5.106 -0.5233 -2.1601 -1.0315
   8523SM  H18T11370   5.624   3.106   5.236  0.4987 -0.0875  0.3521
   8523SM  H18U11371   5.603   3.194   5.070 -0.3874 -0.3427 -0.4209
   8523SM   C1F11372   5.184   2.995   3.416  0.1042 -0.2278  0.2070
   8523SM    OF11373   5.204   2.920   3.323 -0.0483 -0.0456 -0.2008
   8523SM   C2F11374   5.048   3.022   3.475  0.4179 -0.0291 -0.2816
   8523SM   H2F11375   5.020   3.126   3.447 -0.9768 -0.6009 -1.1417
   8523SM   H2G11376   5.051   3.033   3.585 -2.6905  3.6262 -0.3078
   8523SM   C3F11377   4.935   2.921   3.434  0.0041  0.4472  0.3198
   8523SM   H3F11378   4.970   2.823   3.474 -1.7598 -1.0478 -1.5777
   8523SM   H3G11379   4.927   2.901   3.325 -1.7020 -1.3583  0.7125
   8523SM   C4F11380   4.799   2.934   3.495 -0.5439  0.3582  0.2879
   8523SM   H4F11381   4.745   2.845   3.458  1.5927 -0.0485 -2.1162
   8523SM   H4G11382   4.745   3.019   3.449  0.2706  1.2833  0.9919
   8523SM   C5F11383   4.788   2.942   3.649  0.6673  0.7654  0.3122
   8523SM   H5F11384   4.837   3.035   3.685  2.0411  0.4178 -0.5777
   8523SM   H5G11385   4.838   2.851   3.690  0.1151  0.2583 -0.1337
   8523SM   C6F11386   4.635   2.948   3.681  0.0576 -0.4992  0.1745
   8523SM   H6F11387   4.578   2.895   3.602 -0.5816  0.7271 -0.2003
   8523SM   H6G11388   4.595   3.050   3.668 -3.1731 -1.6111  0.4167
   8523SM   C7F11389   4.580   2.893   3.814  0.4294 -0.5334 -0.2687
   8523SM   H7F11390   4.470   2.903   3.814  0.2838 -1.9213 -0.6792
   8523SM   H7G11391   4.622   2.949   3.900 -0.2735 -0.3554 -0.0389
   8523SM   C8F11392   4.605   2.747   3.842 -0.3671  0.2087  0.4069
   8523SM   H8F11393   4.715   2.734   3.848 -0.5424 -2.7354 -0.8186
   8523SM   H8G11394   4.576   2.673   3.764  1.4611 -0.5241  0.3823
   8523SM   C9F11395   4.549   2.712   3.986  0.4961  0.5600 -0.4333
   8523SM   H9F11396   4.444   2.748   3.990  0.8497  2.4429 -4.0821
   8523SM   H9G11397   4.598   2.769   4.067  1.6055  3.5754 -2.9927
   8523SM  C10F11398   4.564   2.559   4.007 -0.2856 -0.5847  0.5439
   8523SM  H10F11399   4.670   2.533   4.027 -0.8105 -3.1257  0.3029
   8523SM  H10G11400   4.521   2.500   3.923 -0.9875  1.3849 -0.5400
   8523SM  C11F11401   4.485   2.506   4.130  0.2862  0.1295 -0.5985
   8523SM  H11F11402   4.379   2.525   4.105 -0.0615 -1.6471 -0.6461
   8523SM  H11G11403   4.511   2.578   4.211 -1.9822 -0.6242  0.9059
   8523SM  C12F11404   4.501   2.357   4.163  0.0026  0.5450 -0.0759
   8523SM  H12F11405   4.492   2.302   4.067  0.6772 -2.4354  1.4356
   8523SM  H12G11406   4.409   2.329   4.220 -1.2111  0.2495 -2.0908
   8523SM  C13F11407   4.628   2.326   4.249  0.0244  0.6229  0.5075
   8523SM  H13F11408   4.625   2.391   4.340 -1.4619  1.0761  0.1633
   8523SM  H13G11409   4.722   2.347   4.193  0.5481  1.7664  1.7428
   8523SM  C14F11410   4.633   2.179   4.293  0.8573 -1.0839  0.2389
   8523SM  H14F11411   4.619   2.110   4.208 -1.6223 -2.0461  1.3487
   8523SM  H14G11412   4.540   2.167   4.352  1.1662  1.1371  1.3139
   8523SM  C15F11413   4.751   2.154   4.381  0.0111 -0.7860 -0.2733
   8523SM  H15F11414   4.719   2.211   4.471  0.1372  2.6794 -2.2459
   8523SM  H15G11415   4.843   2.205   4.343  0.8794 -0.6686  1.8332
   8523SM  C16F11416   4.774   2.007   4.409 -0.4721 -1.3188  0.0464
   8523SM  H16F11417   4.776   1.952   4.312 -1.2823 -0.0836 -0.6913
   8523SM  H16G11418   4.687   1.963   4.463  1.0113 -2.4187  1.6463
   8523SM  C17F11419   4.897   1.968   4.495  0.1778 -0.0275 -0.0290
   8523SM  H17F11420   4.888   1.870   4.546 -0.0993  0.0006 -0.0241
   8523SM  H17G11421   4.914   2.044   4.575 -0.4209 -1.6766  1.7560
   8523SM  C18F11422   5.025   1.963   4.421 -0.0347  0.3647 -0.2251
   8523SM  H18F11423   5.042   2.056   4.363  1.5880  1.1683  1.4361
   8523SM  H18G11424   5.013   1.884   4.344  0.9017  0.1536 -0.1779
   8523SM  C19F11425   5.144   1.932   4.517  0.1580 -0.4501  0.6050
   8523SM  H19F11426   5.123   1.837   4.570 -2.1111  0.3291  1.2067
   8523SM  H19G11427   5.157   2.013   4.592  1.6416 -0.3467  0.2692
   8523SM  C20F11428   5.269   1.928   4.428 -0.1010  1.1109 -0.6441
   8523SM  H20F11429   5.279   2.022   4.371 -0.3094  0.4169 -1.8444
   8523SM  H20G11430   5.265   1.851   4.349 -0.6836  1.3089 -0.8074
   8523SM  C21F11431   5.399   1.898   4.512  0.6505 -0.5523 -0.3311
   8523SM  H21F11432   5.404   1.977   4.590 -1.9266 -1.6253  1.0275
   8523SM  H21G11433   5.483   1.915   4.441 -0.6163 -0.4890 -1.8641
   8523SM  C22F11434   5.413   1.759   4.581 -0.0885  0.7395 -0.0593
   8523SM  H22F11435   5.383   1.681   4.509  1.0635 -0.2210  0.4713
   8523SM  H22G11436   5.346   1.768   4.670 -1.8548  0.4316 -1.3191
   8523SM  C23F11437   5.552   1.731   4.634 -0.1198 -0.0841  0.7588
   8523SM  H23F11438   5.636   1.743   4.562 -0.0993  3.0736  1.1682
   8523SM  H23G11439   5.564   1.630   4.678 -0.6230 -1.3918 -1.9199
   8523SM  H23H11440   5.577   1.807   4.712 -0.1202  1.0511 -0.3124
   8623SM     N11441   3.018   1.661   2.776 -0.4177 -0.0168 -0.3923
   8623SM   C1511442   3.099   1.785   2.753  0.0404  0.5149  0.1116
   8623SM  H15A11443   3.204   1.761   2.742 -0.4085 -0.8240 -1.5461
   8623SM  H15B11444   3.078   1.855   2.833 -0.7335 -1.3580  1.6244
   8623SM  H15C11445   3.073   1.825   2.657 -2.8945 -1.2119  0.0741
   8623SM   C1411446   2.870   1.695   2.760 -0.8440  0.2953  0.6335
   8623SM  H14A11447   2.807   1.609   2.780 -1.6035  0.9831  1.2939
   8623SM  H14B11448   2.860   1.718   2.655 -0.0399  1.3269  0.7691
   8623SM  H14C11449   2.840   1.774   2.828 -0.7125  1.5828 -0.7618
   8623SM   C1311450   3.050   1.556   2.673  0.2269 -0.3521 -0.9838
   8623SM  H13A11451   3.010   1.588   2.578 -0.7690  1.7005  0.0672
   8623SM  H13B11452   3.003   1.464   2.702 -0.7257  0.5951  0.6001
   8623SM  H13C11453   3.158   1.548   2.665  0.1867 -1.2666 -0.7359
   8623SM   C1211454   3.043   1.605   2.916  0.2797  0.0670  0.1355
   8623SM  H12A11455   2.988   1.519   2.952 -0.8681  1.4400  1.8132
   8623SM  H12B11456   3.004   1.676   2.988  0.6130 -1.7270  2.1776
   8623SM   C1111457   3.194   1.584   2.953 -0.3358  0.2714  0.6496
   8623SM  H11A11458   3.214   1.562   3.060 -1.0202 -0.6225  0.6009
   8623SM  H11B11459   3.238   1.683   2.927  0.5312 -0.7814 -2.1988
   8623SM     P11460   3.246   1.344   2.900  0.1388  0.1141 -0.2854
   8623SM   O1311461   3.133   1.315   2.996  0.0904  0.9884  0.0081
   8623SM   O1411462   3.240   1.270   2.773  0.4741 -0.4156  0.5423
   8623SM   O1111463   3.385   1.301   2.964  0.1113  0.6320  0.3867
   8623SM   O1211464   3.263   1.495   2.863 -0.0281 -0.7665 -0.7185
   8623SM   C1S11465   3.474   1.390   3.027  0.2469 -0.1160  0.5030
   8623SM   H1S11466   3.450   1.496   3.007  1.0011 -0.3618 -1.9460
   8623SM   H1T11467   3.574   1.372   2.984 -0.0285  0.7255 -0.5172
   8623SM    NF11468   3.567   1.455   3.256 -0.6857 -0.5135 -0.5557
   8623SM   HNF11469   3.652   1.413   3.286 -0.1709 -0.5212 -1.9634
   8623SM   C2S11470   3.482   1.366   3.183  0.2329 -0.1002  0.5845
   8623SM   H2S11471   3.376   1.373   3.213  0.3016 -1.6151  1.3138
   8623SM   C3S11472   3.512   1.217   3.215 -0.0598 -0.3863 -0.7464
   8623SM   H3S11473   3.609   1.192   3.168 -0.6111 -2.7567 -0.7628
   8623SM    O311474   3.418   1.119   3.159  0.4615 -0.1533 -0.1374
   8623SM   HO311475   3.370   1.170   3.094  2.4903  1.2492 -0.6339
   8623SM   C4S11476   3.523   1.194   3.360 -0.4665  0.5109 -0.6062
   8623SM   H4S11477   3.628   1.193   3.393 -1.2918 -0.2840  2.2391
   8623SM   C5S11478   3.431   1.186   3.454  0.1124 -0.2727 -0.3078
   8623SM   H5S11479   3.323   1.186   3.432  0.0582 -1.0986 -0.1037
   8623SM   C6S11480   3.467   1.170   3.604  0.1304 -0.0431  0.2147
   8623SM   H6S11481   3.438   1.069   3.639  1.0457 -0.3654  0.0770
   8623SM   H6T11482   3.415   1.243   3.671 -2.1883 -1.9322  0.5849
   8623SM   C7S11483   3.612   1.175   3.647  0.1684  0.5212  0.0512
   8623SM   H7S11484   3.662   1.268   3.613  1.4644  0.4676  1.7006
   8623SM   H7T11485   3.672   1.096   3.597  2.3591  2.5217 -0.6281
   8623SM   C8S11486   3.640   1.155   3.794 -0.0353  0.9388 -0.1359
   8623SM   H8S11487   3.573   1.214   3.860  0.1193 -1.0366  1.9099
   8623SM   H8T11488   3.738   1.202   3.814 -0.2450  1.5188 -0.4523
   8623SM   C9S11489   3.638   1.006   3.836 -0.0130  0.3190 -0.0353
   8623SM   H9S11490   3.702   0.954   3.762  1.3356  1.9135 -0.0335
   8623SM   H9T11491   3.536   0.965   3.820  0.1864  0.1914 -1.0227
   8623SM  C10S11492   3.696   0.980   3.978  0.4497  0.6198  0.0789
   8623SM  H10S11493   3.663   0.878   4.008 -0.8527  1.3499  1.3027
   8623SM  H10T11494   3.662   1.063   4.044 -0.3192 -0.4892  1.1205
   8623SM  C11S11495   3.847   0.965   3.969  0.1366  0.1675  0.0554
   8623SM  H11S11496   3.883   1.034   3.890  1.3159 -0.6341 -0.1439
   8623SM  H11T11497   3.870   0.869   3.919 -0.0020 -0.1224  0.5405
   8623SM  C12S11498   3.928   0.971   4.101 -0.6713 -0.1823 -0.2825
   8623SM  H12S11499   4.037   0.954   4.087 -0.7845 -2.2616  0.9620
   8623SM  H12T11500   3.889   0.888   4.163 -0.6652  0.5948  0.7975
   8623SM  C13S11501   3.904   1.105   4.172 -0.4983  0.5221  0.2847
   8623SM  H13S11502   3.799   1.141   4.172 -1.0656 -0.8298 -2.3552
   8623SM  H13T11503   3.969   1.172   4.111  0.8883 -2.0014 -1.1994
   8623SM  C14S11504   3.966   1.108   4.312  0.1678  0.1875 -0.1667
   8623SM  H14S11505   4.072   1.076   4.313 -0.9210 -4.0058 -0.0783
   8623SM  H14T11506   3.902   1.040   4.372 -1.3832  1.5818 -0.1428
   8623SM  C15S11507   3.962   1.247   4.378 -0.0242 -0.2076  0.3074
   8623SM  H15S11508   3.859   1.286   4.371  0.5910  1.3412 -0.4960
   8623SM  H15T11509   4.024   1.315   4.316  1.2082 -1.2314  0.3596
   8623SM  C16S11510   4.014   1.248   4.522 -0.2220 -0.2841  0.1416
   8623SM  H16S11511   4.041   1.351   4.552 -1.3534  0.5323 -1.5113
   8623SM  H16T11512   4.107   1.187   4.522 -1.3211 -2.0498 -0.6315
   8623SM  C17S11513   3.922   1.200   4.635 -0.0731  0.2163  0.1017
   8623SM  H17S11514   3.907   1.093   4.609 -1.2962  0.7898 -1.7467
   8623SM  H17T11515   3.824   1.252   4.640 -1.2514 -1.8291 -0.7135
   8623SM  C18S11516   3.979   1.204   4.778 -0.2447 -0.1028  0.0602
   8623SM  H18S11517   3.962   1.299   4.833  1.2680  0.6936 -0.7641
   8623SM  H18T11518   4.088   1.190   4.794 -0.3999  1.3731  3.2259
   8623SM  H18U11519   3.930   1.116   4.825  1.6124 -1.0890  0.2445
   8623SM   C1F11520   3.526   1.581   3.278  0.0144 -0.1415 -0.1373
   8623SM    OF11521   3.424   1.638   3.234 -0.3362  0.2076  0.5911
   8623SM   C2F11522   3.626   1.667   3.354  0.7873 -0.3417 -0.2086
   8623SM   H2F11523   3.616   1.766   3.306 -2.3656 -0.4390 -0.0105
   8623SM   H2G11524   3.726   1.623   3.333  2.7901  3.2365  1.0595
   8623SM   C3F11525   3.590   1.686   3.500 -0.0702  0.0086 -0.5167
   8623SM   H3F11526   3.492   1.736   3.488  0.2685  0.5162 -1.2602
   8623SM   H3G11527   3.654   1.764   3.546  0.9103 -0.3222 -1.2817
   8623SM   C4F11528   3.576   1.566   3.603  0.0121 -0.3709  0.6565
   8623SM   H4F11529   3.651   1.489   3.576  1.1585  0.5055  1.2709
   8623SM   H4G11530   3.475   1.527   3.578 -0.4491  0.9118  0.3919
   8623SM   C5F11531   3.584   1.608   3.744 -0.6121 -0.0718  0.2760
   8623SM   H5F11532   3.499   1.678   3.761  1.1361  2.7897 -1.8486
   8623SM   H5G11533   3.674   1.662   3.780  1.2084 -3.5943  1.4474
   8623SM   C6F11534   3.583   1.489   3.840  0.2985 -0.1886 -0.3938
   8623SM   H6F11535   3.675   1.427   3.844  0.9345  0.7613 -0.0295
   8623SM   H6G11536   3.511   1.419   3.793 -0.9098  0.6649  0.1493
   8623SM   C7F11537   3.535   1.516   3.981  0.3580 -0.0872 -0.3833
   8623SM   H7F11538   3.461   1.599   3.985  0.6702  0.1499  2.1036
   8623SM   H7G11539   3.622   1.552   4.041 -0.5259  1.3478  0.0919
   8623SM   C8F11540   3.479   1.391   4.046  0.3139 -0.5024  1.1115
   8623SM   H8F11541   3.547   1.304   4.035  0.0712 -0.3616 -2.9678
   8623SM   H8G11542   3.390   1.367   3.984  2.3083 -1.9008 -1.4232
   8623SM   C9F11543   3.440   1.401   4.194  0.3673 -0.1456  0.6185
   8623SM   H9F11544   3.395   1.305   4.228  0.4390 -0.9273 -1.3107
   8623SM   H9G11545   3.378   1.493   4.197  0.6493  0.0800 -0.0799
   8623SM  C10F11546   3.549   1.431   4.297 -0.9599 -0.4333  0.1318
   8623SM  H10F11547   3.595   1.524   4.258 -0.2238 -0.0761  1.7745
   8623SM  H10G11548   3.616   1.342   4.300 -2.0316 -1.2525  0.0765
   8623SM  C11F11549   3.511   1.471   4.441  0.6478  0.4307  0.1126
   8623SM  H11F11550   3.451   1.387   4.482  0.7956 -0.1142 -0.7532
   8623SM  H11G11551   3.438   1.554   4.445 -1.1566 -1.1298  2.3625
   8623SM  C12F11552   3.626   1.498   4.540  0.0008  0.0228 -0.7054
   8623SM  H12F11553   3.680   1.594   4.522 -0.7256  0.7402  0.7843
   8623SM  H12G11554   3.694   1.411   4.531  2.3351  1.2607  2.8414
   8623SM  C13F11555   3.560   1.502   4.677  0.2078 -0.0867  0.0352
   8623SM  H13F11556   3.511   1.402   4.681  2.1017 -1.0565  0.1658
   8623SM  H13G11557   3.486   1.582   4.699 -0.6427 -0.9011  0.1728
   8623SM  C14F11558   3.666   1.509   4.785 -0.0013  0.3218  0.3929
   8623SM  H14F11559   3.758   1.459   4.748 -0.5514 -0.3756 -0.0677
   8623SM  H14G11560   3.631   1.445   4.869  3.7771 -3.0523 -0.2739
   8623SM  C15F11561   3.713   1.652   4.824 -0.2023  0.0508 -0.1378
   8623SM  H15F11562   3.624   1.716   4.836  0.0533  0.9520 -2.5113
   8623SM  H15G11563   3.768   1.693   4.736  1.5030 -0.8980  0.4418
   8623SM  C16F11564   3.802   1.647   4.952  0.6400 -0.1471  0.3539
   8623SM  H16F11565   3.891   1.582   4.939  0.6688 -0.5534  2.2967
   8623SM  H16G11566   3.744   1.611   5.040  0.2511 -1.2627 -0.3372
   8623SM  C17F11567   3.859   1.780   4.969 -0.7247 -0.3355 -0.2451
   8623SM  H17F11568   3.774   1.849   4.989 -1.1697 -0.3389 -1.9743
   8623SM  H17G11569   3.899   1.815   4.871 -1.6939  1.0990 -0.1533
   8623SM  C18F11570   3.954   1.790   5.087 -0.1150 -0.3605 -0.0908
   8623SM  H18F11571   4.055   1.748   5.066  0.3046  0.0913  0.9569
   8623SM  H18G11572   3.915   1.738   5.177  1.0394  1.5173  1.5699
   8623SM  C19F11573   3.966   1.932   5.139 -0.0379  0.0840 -0.1069
   8623SM  H19F11574   4.022   1.919   5.234  0.8083 -1.9107 -0.8260
   8623SM  H19G11575   3.862   1.965   5.164  0.5630  1.1142  1.1324
   8623SM  C20F11576   4.047   2.028   5.053 -0.2011  0.6375  0.0284
   8623SM  H20F11577   3.985   2.065   4.968 -0.2605  0.4943  0.0089
   8623SM  H20G11578   4.130   1.972   5.006 -1.0184 -2.4903  2.0112
   8623SM  C21F11579   4.113   2.136   5.137 -0.0874 -0.1035 -0.5353
   8623SM  H21F11580   4.198   2.094   5.195  0.2038  0.9826 -0.1497
   8623SM  H21G11581   4.045   2.170   5.218  1.4974 -2.7247  2.1379
   8623SM  C22F11582   4.154   2.248   5.038  0.0182 -0.1100  0.0254
   8623SM  H22F11583   4.055   2.280   5.000 -0.1926 -0.7199  0.0650
   8623SM  H22G11584   4.219   2.194   4.966 -0.9620 -0.2313 -0.7833
   8623SM  C23F11585   4.239   2.361   5.090 -1.4010  0.5297  0.1450
   8623SM  H23F11586   4.261   2.423   5.001 -1.0929 -0.7669 -0.7185
   8623SM  H23G11587   4.335   2.322   5.130 -1.6108 -2.8113 -2.1505
   8623SM  H23H11588   4.189   2.418   5.171 -2.1887  0.6131 -0.3948
   8723SM     N11589   3.500   7.089   2.664 -1.1020 -0.6546 -0.2849
   8723SM   C1511590   3.625   7.007   2.629 -0.3780  0.0500 -0.3052
   8723SM  H15A11591   3.617   6.989   2.523  0.7519  0.2533 -0.4360
   8723SM  H15B11592   3.629   6.914   2.682 -1.2045  1.0357  1.5704
   8723SM  H15C11593   3.719   7.057   2.648 -0.2980 -0.9168  2.1774
   8723SM   C1411594   3.515   7.211   2.575 -0.0785 -0.5511  0.0487
   8723SM  H14A11595   3.429   7.277   2.576 -0.0694 -0.5228 -0.5784
   8723SM  H14B11596   3.547   7.184   2.476  1.6184  0.1366  0.3612
   8723SM  H14C11597   3.594   7.270   2.619  2.3813 -1.4299 -2.8493
   8723SM   C1311598   3.380   7.012   2.631  0.5404 -0.3507 -0.6747
   8723SM  H13A11599   3.389   6.919   2.685  2.6927 -1.0518 -2.1276
   8723SM  H13B11600   3.383   6.990   2.526  0.1847 -0.0896 -0.7443
   8723SM  H13C11601   3.284   7.060   2.646  1.0732  1.0499 -1.4819
   8723SM   C1211602   3.516   7.128   2.811 -0.1749 -0.3228  0.0047
   8723SM  H12A11603   3.613   7.176   2.814 -0.6908  0.9937 -1.9882
   8723SM  H12B11604   3.516   7.042   2.876 -3.1096  0.0524  0.6090
   8723SM   C1111605   3.410   7.223   2.878  0.7982  0.5181  0.7736
   8723SM  H11A11606   3.449   7.240   2.980 -0.5117  2.2572  1.0430
   8723SM  H11B11607   3.316   7.164   2.892  0.6189  0.9514  1.4098
   8723SM     P11608   3.497   7.459   2.837 -0.2436 -0.4322 -0.1199
   8723SM   O1311609   3.636   7.407   2.859  0.2528  0.5680 -0.7362
   8723SM   O1411610   3.489   7.544   2.720  0.0676 -0.4906  0.2330
   8723SM   O1111611   3.444   7.542   2.963 -0.0016 -0.3478  0.1284
   8723SM   O1211612   3.398   7.343   2.805  0.8082  0.3477 -0.0534
   8723SM   C1S11613   3.388   7.485   3.073 -0.5431  0.6309 -0.8881
   8723SM   H1S11614   3.461   7.423   3.128 -0.9563  1.3644  0.5242
   8723SM   H1T11615   3.299   7.420   3.057  0.4580 -0.7424 -1.0368
   8723SM    NF11616   3.347   7.531   3.322 -0.6008 -0.4039 -0.3352
   8723SM   HNF11617   3.255   7.522   3.360 -0.2864  0.7634  0.7521
   8723SM   C2S11618   3.365   7.590   3.184 -0.0850 -0.8069 -0.2028
   8723SM   H2S11619   3.463   7.642   3.177 -0.5185 -0.0193 -0.5412
   8723SM   C3S11620   3.264   7.707   3.139  0.0594 -0.1108 -0.0005
   8723SM   H3S11621   3.164   7.657   3.141  0.3132 -0.6167  0.9442
   8723SM    O311622   3.276   7.751   3.003 -0.5590  0.2181  0.3413
   8723SM   HO311623   3.342   7.693   2.964  0.5082 -0.4146  2.8955
   8723SM   C4S11624   3.256   7.828   3.235 -0.5563  0.3039  0.2530
   8723SM   H4S11625   3.189   7.800   3.317 -1.1136 -0.5922 -0.4949
   8723SM   C5S11626   3.302   7.957   3.222  0.3284 -0.2362 -0.3911
   8723SM   H5S11627   3.363   7.987   3.135  0.5928  0.1292 -0.0835
   8723SM   C6S11628   3.264   8.074   3.311 -0.6362  0.0866 -0.8548
   8723SM   H6S11629   3.205   8.149   3.256  0.3924  1.8920  0.3955
   8723SM   H6T11630   3.357   8.117   3.355 -1.7961 -0.6244  2.5741
   8723SM   C7S11631   3.168   8.056   3.439 -0.3522 -0.1851  0.5941
   8723SM   H7S11632   3.075   8.009   3.401 -0.3039 -0.9443  1.3809
   8723SM   H7T11633   3.141   8.158   3.474  0.3784  0.1789  0.1368
   8723SM   C8S11634   3.238   7.988   3.557  0.1578  0.3510  0.0095
   8723SM   H8S11635   3.306   8.064   3.601 -0.5535  1.1668 -0.2763
   8723SM   H8T11636   3.289   7.897   3.517  1.1656  0.3449  1.2564
   8723SM   C9S11637   3.137   7.928   3.660  0.1202  0.1230 -0.4455
   8723SM   H9S11638   3.062   7.862   3.612  0.5690  0.9003 -2.3081
   8723SM   H9T11639   3.076   8.005   3.711  2.0638  1.6563 -0.2949
   8723SM  C10S11640   3.210   7.838   3.762  0.3064  0.7055 -0.2755
   8723SM  H10S11641   3.299   7.881   3.814  0.2855  0.9355 -0.4255
   8723SM  H10T11642   3.252   7.755   3.701  1.5064  0.1784  1.2040
   8723SM  C11S11643   3.129   7.783   3.880 -0.1097 -0.9150 -0.2550
   8723SM  H11S11644   3.174   7.701   3.940  0.8539 -0.1488  0.1083
   8723SM  H11T11645   3.038   7.739   3.835 -1.1680 -0.4342  1.3320
   8723SM  C12S11646   3.100   7.887   3.993  0.5882 -0.3559 -0.5039
   8723SM  H12S11647   3.034   7.971   3.962 -3.0164 -2.0319  1.8298
   8723SM  H12T11648   3.196   7.924   4.036  0.7430  0.1565 -1.2649
   8723SM  C13S11649   3.018   7.839   4.110  0.0936  0.1452  0.4464
   8723SM  H13S11650   3.079   7.765   4.166  0.0845 -1.9534 -2.1390
   8723SM  H13T11651   2.921   7.792   4.082  0.7476 -0.9052 -0.1016
   8723SM  C14S11652   2.978   7.958   4.212 -0.0929  0.4855  0.1848
   8723SM  H14S11653   2.908   8.029   4.164 -0.6340  0.7234  1.3265
   8723SM  H14T11654   3.061   8.024   4.246  0.8708 -0.5139 -0.1221
   8723SM  C15S11655   2.911   7.904   4.339  0.9314  0.1478  0.5071
   8723SM  H15S11656   2.981   7.835   4.390  1.2374  0.9027  1.1259
   8723SM  H15T11657   2.823   7.846   4.302  0.1367  0.9420  1.0962
   8723SM  C16S11658   2.861   8.004   4.445 -0.4122 -0.0358  0.4354
   8723SM  H16S11659   2.947   8.063   4.482  0.6652 -2.3451  1.9005
   8723SM  H16T11660   2.809   7.948   4.526 -0.5702 -1.3668 -0.5547
   8723SM  C17S11661   2.747   8.093   4.383 -0.0624  0.4847  0.0008
   8723SM  H17S11662   2.669   8.025   4.343 -0.1459 -0.3394  1.4865
   8723SM  H17T11663   2.786   8.165   4.309  0.9015  0.1457  0.1572
   8723SM  C18S11664   2.681   8.186   4.488  0.6178  0.4702 -0.4660
   8723SM  H18S11665   2.652   8.119   4.572 -0.0161 -0.2057 -1.2053
   8723SM  H18T11666   2.597   8.238   4.438  1.1383  0.4570 -1.3814
   8723SM  H18U11667   2.759   8.261   4.515 -0.6091  1.5939  0.0513
   8723SM   C1F11668   3.441   7.476   3.395  0.7007 -0.1880  0.3714
   8723SM    OF11669   3.558   7.468   3.349  0.3113 -0.8758  0.4552
   8723SM   C2F11670   3.405   7.427   3.530 -0.3191 -0.6198 -0.1542
   8723SM   H2F11671   3.360   7.325   3.531 -0.1175 -0.8666 -3.7796
   8723SM   H2G11672   3.326   7.498   3.565 -0.4908 -0.4645 -0.8525
   8723SM   C3F11673   3.527   7.413   3.614  0.7058  0.2892 -0.1814
   8723SM   H3F11674   3.583   7.508   3.615  1.7203 -0.2756 -0.9747
   8723SM   H3G11675   3.594   7.338   3.566  0.6602  1.0606 -1.4894
   8723SM   C4F11676   3.492   7.372   3.766 -0.4524  0.4411  0.6163
   8723SM   H4F11677   3.586   7.351   3.821  0.8178  0.5390 -1.4080
   8723SM   H4G11678   3.441   7.273   3.760 -1.2053  0.8876 -0.6634
   8723SM   C5F11679   3.412   7.473   3.833  0.2977 -0.3330  0.1607
   8723SM   H5F11680   3.310   7.483   3.792  1.2152 -0.1736 -2.2736
   8723SM   H5G11681   3.466   7.570   3.830  1.0862 -0.7556  0.4119
   8723SM   C6F11682   3.382   7.443   3.987 -0.4896 -0.0524 -0.1437
   8723SM   H6F11683   3.326   7.346   3.988 -2.4172  1.0145  1.1932
   8723SM   H6G11684   3.308   7.515   4.027 -1.5173 -0.3373 -1.4629
   8723SM   C7F11685   3.508   7.443   4.072 -0.0404 -0.0856  0.3428
   8723SM   H7F11686   3.560   7.541   4.065  0.8507 -0.6007 -0.7180
   8723SM   H7G11687   3.579   7.367   4.031  0.2257 -0.3339  1.2353
   8723SM   C8F11688   3.472   7.395   4.217  1.1858  0.0763  0.6600
   8723SM   H8F11689   3.402   7.309   4.215 -0.0178  1.0162 -1.8165
   8723SM   H8G11690   3.419   7.474   4.274  0.8703  2.0526 -2.1489
   8723SM   C9F11691   3.595   7.365   4.300  0.4714  1.0904 -0.3290
   8723SM   H9F11692   3.660   7.291   4.249 -0.3642 -1.4377  2.0343
   8723SM   H9G11693   3.558   7.300   4.382  0.1392  0.9023 -0.6261
   8723SM  C10F11694   3.680   7.487   4.347 -0.0966 -0.2075 -0.1990
   8723SM  H10F11695   3.616   7.565   4.393 -3.8057 -3.3590  0.4638
   8723SM  H10G11696   3.716   7.538   4.255  0.4347 -3.1702 -1.7828
   8723SM  C11F11697   3.795   7.449   4.443 -0.1270  0.0409  0.6474
   8723SM  H11F11698   3.858   7.369   4.400  0.9846  0.5923  1.2117
   8723SM  H11G11699   3.750   7.404   4.534 -0.4752 -0.4823  0.2165
   8723SM  C12F11700   3.895   7.560   4.475 -0.1819  0.8102 -0.2051
   8723SM  H12F11701   3.852   7.639   4.540 -0.5441 -0.2132  0.8304
   8723SM  H12G11702   3.931   7.606   4.380 -1.5400  0.1378 -1.0696
   8723SM  C13F11703   4.024   7.503   4.553  0.2586 -0.3860  0.2862
   8723SM  H13F11704   4.114   7.560   4.523  0.5789 -1.2110 -0.3625
   8723SM  H13G11705   4.039   7.397   4.525 -1.2186 -0.8191  1.0068
   8723SM  C14F11706   4.009   7.513   4.704 -0.0522  0.4194  0.5600
   8723SM  H14F11707   3.930   7.451   4.752  0.6395  0.5033  1.8602
   8723SM  H14G11708   3.965   7.614   4.712 -0.7949  0.5772 -3.5380
   8723SM  C15F11709   4.134   7.507   4.789  0.5939  0.4022 -0.3318
   8723SM  H15F11710   4.202   7.594   4.774  0.7300  0.6355  1.5105
   8723SM  H15G11711   4.204   7.424   4.763  2.0221  1.4683 -0.0125
   8723SM  C16F11712   4.094   7.488   4.937 -0.3564 -0.5916 -0.8754
   8723SM  H16F11713   4.178   7.434   4.987  1.0912 -1.5391 -4.0455
   8723SM  H16G11714   4.005   7.421   4.946 -0.7369 -0.1782 -1.5127
   8723SM  C17F11715   4.060   7.623   5.011  0.1764 -0.1375  0.2421
   8723SM  H17F11716   3.976   7.680   4.966 -1.7444 -2.9350  0.0753
   8723SM  H17G11717   4.150   7.689   5.003  0.6328 -0.7940 -0.1884
   8723SM  C18F11718   4.020   7.591   5.161  0.5866  0.0282  0.4864
   8723SM  H18F11719   4.103   7.532   5.206 -0.6198 -2.3422 -0.2702
   8723SM  H18G11720   3.936   7.520   5.169 -1.3574  2.1322 -0.2513
   8723SM  C19F11721   3.979   7.716   5.230  0.3382  0.5261 -0.2460
   8723SM  H19F11722   3.878   7.741   5.190 -0.6017 -1.0458  1.0404
   8723SM  H19G11723   4.038   7.807   5.204 -0.1980  0.8260 -0.4341
   8723SM  C20F11724   3.952   7.696   5.382  0.0955  0.2556 -0.1200
   8723SM  H20F11725   3.867   7.625   5.395 -0.5414  1.0562  0.1738
   8723SM  H20G11726   3.924   7.798   5.416 -1.8598  0.1213 -1.1671
   8723SM  C21F11727   4.078   7.662   5.459  0.2812  0.2070  0.1538
   8723SM  H21F11728   4.153   7.742   5.442  1.5367 -1.2103 -1.2875
   8723SM  H21G11729   4.117   7.568   5.416 -0.1628  0.1389 -0.1052
   8723SM  C22F11730   4.050   7.638   5.603 -0.4018 -0.0219  0.1463
   8723SM  H22F11731   3.956   7.581   5.620 -2.8149  2.7455 -2.7789
   8723SM  H22G11732   4.039   7.735   5.657  3.4810  0.5476  0.2275
   8723SM  C23F11733   4.171   7.572   5.675 -0.2040 -0.4231 -0.2908
   8723SM  H23F11734   4.189   7.472   5.630 -0.0789  0.1832 -1.6388
   8723SM  H23G11735   4.145   7.545   5.779  0.4470 -2.7911 -0.6772
   8723SM  H23H11736   4.256   7.644   5.672  0.0648 -0.6998  0.5052
   8823SM     N11737   1.325   3.040   2.737  0.0444 -0.3705 -0.5383
   8823SM   C1511738   1.442   3.096   2.670  0.6494  0.8990  0.1514
   8823SM  H15A11739   1.522   3.026   2.689  0.8345  0.6271 -1.5170
   8823SM  H15B11740   1.477   3.189   2.712 -2.6582  1.7926  1.2528
   8823SM  H15C11741   1.439   3.096   2.562 -2.2762  0.1133  0.1354
   8823SM   C1411742   1.215   3.138   2.743 -0.7422 -0.2843  0.4146
   8823SM  H14A11743   1.128   3.097   2.792  0.8197 -1.4910  2.2698
   8823SM  H14B11744   1.187   3.166   2.642  1.8745 -1.6882 -0.7956
   8823SM  H14C11745   1.251   3.222   2.800  1.8318 -2.0224  1.5094
   8823SM   C1311746   1.274   2.919   2.671 -0.5170 -0.4477  0.5085
   8823SM  H13A11747   1.227   2.936   2.575  2.0951  0.7469 -0.6332
   8823SM  H13B11748   1.213   2.859   2.738  0.5636  0.0879  2.0234
   8823SM  H13C11749   1.357   2.858   2.641 -0.8254  0.2829 -2.0115
   8823SM   C1211750   1.361   3.023   2.880 -0.4781  0.9600 -0.3477
   8823SM  H12A11751   1.278   3.022   2.949 -0.6168 -0.8108 -0.5069
   8823SM  H12B11752   1.427   3.104   2.910  0.3123  1.7649 -3.8395
   8823SM   C1111753   1.429   2.894   2.930 -0.6264  0.0091  0.1280
   8823SM  H11A11754   1.363   2.805   2.931 -1.5862  0.6608 -1.4610
   8823SM  H11B11755   1.448   2.914   3.037 -2.1708  1.2340  0.2000
   8823SM     P11756   1.612   2.743   2.822 -0.3072 -0.3537  0.0995
   8823SM   O1311757   1.506   2.691   2.735  0.5072 -0.0162 -0.2717
   8823SM   O1411758   1.752   2.750   2.768  0.6186 -0.0109 -0.3367
   8823SM   O1111759   1.612   2.662   2.953  0.4772 -0.3034  0.0984
   8823SM   O1211760   1.561   2.885   2.869 -0.3810 -0.4045  0.4207
   8823SM   C1S11761   1.719   2.659   3.044 -0.0877  0.1359 -0.0341
   8823SM   H1S11762   1.803   2.713   2.996  1.9517 -0.8829  2.1740
   8823SM   H1T11763   1.767   2.563   3.074  0.5131  0.6628  0.7289
   8823SM    NF11764   1.815   2.762   3.246 -0.0677 -0.2628  0.4950
   8823SM   HNF11765   1.835   2.713   3.330  1.4802 -0.4638  0.0354
   8823SM   C2S11766   1.697   2.744   3.171 -0.0907  0.0153 -0.4529
   8823SM   H2S11767   1.668   2.842   3.128  1.3987  0.1902 -1.1095
   8823SM   C3S11768   1.576   2.688   3.251  0.3352  0.2527 -0.2991
   8823SM   H3S11769   1.589   2.588   3.297  0.3379  0.8943  1.1540
   8823SM    O311770   1.461   2.680   3.164 -0.3470 -0.2545 -0.0456
   8823SM   HO311771   1.494   2.696   3.076 -0.8167  1.7740  0.0913
   8823SM   C4S11772   1.545   2.784   3.366 -0.0555  0.5864 -0.3953
   8823SM   H4S11773   1.489   2.876   3.344 -0.6571  0.6991  1.4337
   8823SM   C5S11774   1.587   2.759   3.493 -0.8235  0.2366 -0.5300
   8823SM   H5S11775   1.656   2.676   3.515 -1.3758  0.2838  1.6263
   8823SM   C6S11776   1.564   2.855   3.608 -0.3815 -0.1330 -0.6492
   8823SM   H6S11777   1.457   2.887   3.612 -0.8136 -1.4881  3.1260
   8823SM   H6T11778   1.620   2.949   3.587 -1.4977  0.1514 -2.6660
   8823SM   C7S11779   1.618   2.787   3.737 -0.0043 -1.0017  0.3358
   8823SM   H7S11780   1.728   2.781   3.726  0.4679  0.6588  3.0241
   8823SM   H7T11781   1.562   2.691   3.740 -1.0568 -0.4108  2.9249
   8823SM   C8S11782   1.587   2.873   3.851 -0.2647 -0.1869  0.3987
   8823SM   H8S11783   1.477   2.888   3.852  0.0393  3.0099 -1.3281
   8823SM   H8T11784   1.642   2.968   3.832  0.1977 -0.9378 -2.3534
   8823SM   C9S11785   1.646   2.839   3.984  0.7450  0.2491  0.4083
   8823SM   H9S11786   1.644   2.936   4.039 -2.8392  1.0185 -0.7944
   8823SM   H9T11787   1.750   2.812   3.959  0.7990  2.3271 -2.0168
   8823SM  C10S11788   1.574   2.722   4.042 -0.6240 -0.7787  0.4743
   8823SM  H10S11789   1.580   2.647   3.960 -1.0278  0.1101 -0.3887
   8823SM  H10T11790   1.468   2.751   4.058 -0.8920 -0.4368 -1.5581
   8823SM  C11S11791   1.623   2.657   4.165 -0.3423 -0.9403 -0.2095
   8823SM  H11S11792   1.609   2.735   4.243 -1.3300  1.7250 -2.8968
   8823SM  H11T11793   1.731   2.633   4.154  0.8715  3.2205  0.8371
   8823SM  C12S11794   1.539   2.529   4.202 -0.2607  1.1979 -0.3509
   8823SM  H12S11795   1.574   2.449   4.133  0.7868 -1.1782  2.7125
   8823SM  H12T11796   1.433   2.550   4.175 -0.9333 -1.0032  0.3433
   8823SM  C13S11797   1.563   2.469   4.341  0.5964 -0.0358 -0.3220
   8823SM  H13S11798   1.673   2.453   4.350  0.3648 -1.6681 -0.1145
   8823SM  H13T11799   1.523   2.366   4.352  2.1462 -0.5266  1.0950
   8823SM  C14S11800   1.517   2.560   4.458 -0.1350  0.0391  0.1315
   8823SM  H14S11801   1.425   2.614   4.425  0.6833  1.9873  0.8591
   8823SM  H14T11802   1.594   2.641   4.462  1.9520 -1.7790 -1.0175
   8823SM  C15S11803   1.496   2.483   4.596 -0.1726 -0.3158 -0.1654
   8823SM  H15S11804   1.603   2.467   4.622 -0.0140 -0.4899 -0.9210
   8823SM  H15T11805   1.445   2.386   4.578 -0.9333 -0.3648  1.8948
   8823SM  C16S11806   1.430   2.556   4.709  0.5799 -0.4552 -0.0807
   8823SM  H16S11807   1.390   2.651   4.667 -0.4997 -0.6202  0.5349
   8823SM  H16T11808   1.498   2.590   4.790  2.2284  1.1256 -2.0290
   8823SM  C17S11809   1.319   2.471   4.755 -0.3837 -0.0074  0.0209
   8823SM  H17S11810   1.369   2.384   4.803  2.0760  0.8623 -0.8272
   8823SM  H17T11811   1.254   2.448   4.668  1.1087 -1.1096 -0.8520
   8823SM  C18S11812   1.227   2.544   4.856 -0.3666 -0.9658 -0.1396
   8823SM  H18S11813   1.132   2.493   4.882 -0.1911 -1.1266  0.1887
   8823SM  H18T11814   1.198   2.635   4.800  0.7153 -1.8111 -2.2151
   8823SM  H18U11815   1.281   2.576   4.947  0.5745 -1.6301 -0.4428
   8823SM   C1F11816   1.918   2.832   3.187  0.3859 -0.1877 -0.7865
   8823SM    OF11817   1.898   2.915   3.095  0.0322 -0.9316  0.7070
   8823SM   C2F11818   2.057   2.819   3.249  0.2038 -0.0866  0.2622
   8823SM   H2F11819   2.124   2.835   3.162  0.1224  0.6598  0.3333
   8823SM   H2G11820   2.061   2.716   3.291  2.6394  0.3639  1.3402
   8823SM   C3F11821   2.084   2.920   3.356 -0.2008  0.4497 -0.5919
   8823SM   H3F11822   2.086   3.021   3.311 -0.2387  1.0030  0.6089
   8823SM   H3G11823   2.186   2.891   3.388 -0.7486 -1.0020 -0.0541
   8823SM   C4F11824   1.987   2.911   3.476 -0.6233 -0.0087 -0.3114
   8823SM   H4F11825   1.989   2.815   3.531 -0.5709 -0.5722 -1.2730
   8823SM   H4G11826   1.891   2.933   3.424  0.1963  0.8489 -1.5270
   8823SM   C5F11827   2.027   3.020   3.576 -0.7007 -0.2103  0.5779
   8823SM   H5F11828   2.032   3.123   3.537 -2.2972  0.3371  1.7074
   8823SM   H5G11829   2.132   3.000   3.605 -0.0391  1.2604 -0.7014
   8823SM   C6F11830   1.934   3.041   3.698  0.9427 -0.1701  0.0812
   8823SM   H6F11831   1.928   2.958   3.772 -1.0462  1.1515  1.5192
   8823SM   H6G11832   1.825   3.054   3.681  0.6479 -0.2550  1.6793
   8823SM   C7F11833   1.982   3.161   3.778 -0.1258 -0.4962 -0.0059
   8823SM   H7F11834   1.957   3.253   3.722  1.8524  0.5273  0.6919
   8823SM   H7G11835   2.091   3.150   3.797  0.1735  0.0137 -1.3070
   8823SM   C8F11836   1.914   3.174   3.919  0.2788 -0.5633 -0.2383
   8823SM   H8F11837   1.917   3.082   3.982 -0.8811  0.0516  0.7688
   8823SM   H8G11838   1.806   3.201   3.912  0.9658  2.6548 -0.2241
   8823SM   C9F11839   1.981   3.283   4.008  0.8245 -0.6657 -0.3389
   8823SM   H9F11840   1.989   3.374   3.945  0.8687  1.1396  2.0876
   8823SM   H9G11841   2.084   3.255   4.039  0.1503 -1.1935  1.6364
   8823SM  C10F11842   1.911   3.302   4.142 -0.2420 -0.7338 -0.0912
   8823SM  H10F11843   1.904   3.208   4.201 -0.6100 -0.4228  0.3642
   8823SM  H10G11844   1.808   3.338   4.122 -0.4146 -1.3460 -0.3408
   8823SM  C11F11845   1.976   3.423   4.223  0.5599  0.0961  0.2659
   8823SM  H11F11846   1.894   3.447   4.294  1.5752  0.5006  1.3303
   8823SM  H11G11847   1.988   3.516   4.164  0.2612 -0.1266 -0.1440
   8823SM  C12F11848   2.111   3.393   4.281 -0.0389 -0.2682  0.0167
   8823SM  H12F11849   2.182   3.361   4.201 -1.2952  1.4113 -1.8759
   8823SM  H12G11850   2.106   3.307   4.352  1.2284  0.1815  0.6901
   8823SM  C13F11851   2.172   3.517   4.344 -0.7071 -0.1857  0.0860
   8823SM  H13F11852   2.095   3.550   4.418 -2.7028 -4.6468  0.3523
   8823SM  H13G11853   2.188   3.591   4.263  1.6423  1.3298  1.8199
   8823SM  C14F11854   2.305   3.493   4.407  0.3560 -0.3448 -0.2275
   8823SM  H14F11855   2.363   3.450   4.323 -0.5317  1.7424 -2.0045
   8823SM  H14G11856   2.288   3.431   4.498  0.3659  2.1852  1.6152
   8823SM  C15F11857   2.379   3.612   4.461 -0.5434  0.2200  0.2868
   8823SM  H15F11858   2.302   3.670   4.518 -0.5242 -0.1941  0.7373
   8823SM  H15G11859   2.400   3.687   4.382 -1.5108  0.1895 -0.0119
   8823SM  C16F11860   2.512   3.568   4.536 -0.5396 -0.7137  0.2534
   8823SM  H16F11861   2.598   3.567   4.466  0.2419 -0.5616  1.1881
   8823SM  H16G11862   2.517   3.467   4.583  1.9347 -1.2014 -0.9276
   8823SM  C17F11863   2.531   3.677   4.634 -0.0550  0.6853  0.4220
   8823SM  H17F11864   2.625   3.646   4.685  0.8287 -0.3165 -1.7073
   8823SM  H17G11865   2.446   3.669   4.705 -0.3143 -1.0800 -0.0390
   8823SM  C18F11866   2.540   3.821   4.576 -0.0792 -0.5930  0.1922
   8823SM  H18F11867   2.572   3.881   4.664  3.1164 -3.2190  1.0525
   8823SM  H18G11868   2.443   3.852   4.533  0.8214  0.6921 -1.0136
   8823SM  C19F11869   2.656   3.847   4.474  0.3731  0.7862  0.7017
   8823SM  H19F11870   2.647   3.775   4.390 -2.1931  0.0319  1.5284
   8823SM  H19G11871   2.749   3.827   4.531  0.2478 -0.3344  0.5382
   8823SM  C20F11872   2.642   3.982   4.404 -0.5952 -0.6680  0.9016
   8823SM  H20F11873   2.692   4.051   4.476 -0.8628  1.3776 -0.7619
   8823SM  H20G11874   2.537   4.009   4.379 -0.2086 -0.7781 -1.0022
   8823SM  C21F11875   2.725   3.974   4.272  0.2745  0.2604  0.5022
   8823SM  H21F11876   2.708   4.068   4.216 -0.7250  0.2849  0.8311
   8823SM  H21G11877   2.678   3.892   4.214 -1.5772 -0.3810  2.7479
   8823SM  C22F11878   2.872   3.947   4.283  0.5237 -1.1290 -0.1965
   8823SM  H22F11879   2.893   3.852   4.337  0.0663 -2.7894 -2.7316
   8823SM  H22G11880   2.923   4.034   4.329  2.4253 -1.0375 -2.2744
   8823SM  C23F11881   2.947   3.923   4.149 -0.2594  0.1828 -0.4955
   8823SM  H23F11882   2.947   4.002   4.071  0.9610 -1.8374 -2.6828
   8823SM  H23G11883   2.893   3.835   4.109  1.2501 -1.6308  1.2260
   8823SM  H23H11884   3.055   3.906   4.168 -0.1173  0.2190 -1.2482
   8923SM     N11885   5.137   0.387   2.391  0.8273  0.2638  0.0253
   8923SM   C1511886   5.218   0.260   2.382  0.2956 -0.3345  0.0180
   8923SM  H15A11887   5.309   0.277   2.327 -0.1309  3.3385  0.1584
   8923SM  H15B11888   5.159   0.184   2.333 -1.0242  0.8321 -0.2935
   8923SM  H15C11889   5.242   0.226   2.481 -1.6385 -0.3560  0.5211
   8923SM   C1411890   5.130   0.443   2.249 -0.7607  0.2396  0.1051
   8923SM  H14A11891   5.069   0.531   2.233  0.1927  0.7020 -1.1110
   8923SM  H14B11892   5.092   0.366   2.182 -0.7113  1.9295 -1.9935
   8923SM  H14C11893   5.228   0.464   2.208 -1.4299  1.8027 -0.7866
   8923SM   C1311894   4.993   0.350   2.420 -0.4921  0.6096 -0.0878
   8923SM  H13A11895   4.961   0.277   2.347 -0.8722  0.5970  0.0870
   8923SM  H13B11896   4.941   0.444   2.408  2.8520  2.6054 -0.0566
   8923SM  H13C11897   4.982   0.325   2.525  0.3086  0.6544  0.0107
   8923SM   C1211898   5.190   0.486   2.487 -0.6177  0.2737  0.0465
   8923SM  H12A11899   5.145   0.583   2.468  1.9573  1.6693  0.6670
   8923SM  H12B11900   5.294   0.504   2.465 -0.2790 -0.2754  1.1450
   8923SM   C1111901   5.176   0.456   2.632  0.2878 -0.9333 -0.4935
   8923SM  H11A11902   5.179   0.345   2.637  3.6716 -0.9104  2.3394
   8923SM  H11B11903   5.081   0.499   2.669  0.5780 -1.8288  1.4357
   8923SM     P11904   5.282   0.608   2.828  0.1277 -0.0814 -0.1126
   8923SM   O1311905   5.412   0.605   2.904 -0.1305 -0.2208 -0.3555
   8923SM   O1411906   5.241   0.732   2.767  1.0621  0.3812  0.4919
   8923SM   O1111907   5.173   0.554   2.922 -0.5809  0.1035 -0.1047
   8923SM   O1211908   5.298   0.500   2.705 -0.2109  0.2856  0.0219
   8923SM   C1S11909   5.170   0.422   2.960  0.3661  0.2874  0.3494
   8923SM   H1S11910   5.273   0.380   2.950  0.6814  0.6739  1.7729
   8923SM   H1T11911   5.112   0.357   2.891  2.9282 -2.3316  0.4293
   8923SM    NF11912   5.139   0.264   3.149 -0.3366  0.1482 -0.2360
   8923SM   HNF11913   5.055   0.211   3.146 -0.8116  0.8069  0.8383
   8923SM   C2S11914   5.115   0.400   3.102  0.2914 -0.0533 -0.1443
   8923SM   H2S11915   5.182   0.468   3.160  0.4806  0.8491 -1.3558
   8923SM   C3S11916   4.973   0.452   3.127 -0.4642  0.3028  0.4864
   8923SM   H3S11917   4.904   0.381   3.077  0.9103 -0.3387 -0.5656
   8923SM    O311918   4.945   0.574   3.062  0.2087 -0.4827  0.3037
   8923SM   HO311919   5.027   0.588   3.015  0.1022 -1.3371 -0.1586
   8923SM   C4S11920   4.943   0.470   3.272 -0.0562 -0.5247  0.6997
   8923SM   H4S11921   4.915   0.374   3.319  0.8384 -0.8144  0.6717
   8923SM   C5S11922   4.941   0.579   3.348 -0.4548 -0.0028 -0.8560
   8923SM   H5S11923   4.964   0.679   3.309 -1.3055  1.0544  1.1700
   8923SM   C6S11924   4.924   0.585   3.494 -0.9575 -0.3289  0.0510
   8923SM   H6S11925   4.852   0.504   3.516 -1.5866 -0.0373 -0.8839
   8923SM   H6T11926   4.869   0.673   3.535 -0.5120  0.0135 -0.0742
   8923SM   C7S11927   5.057   0.560   3.565 -0.4609 -0.3234  0.2125
   8923SM   H7S11928   5.132   0.640   3.543  0.0151 -0.7565  0.2384
   8923SM   H7T11929   5.099   0.467   3.522 -1.3021 -0.1218 -1.1021
   8923SM   C8S11930   5.028   0.539   3.717 -0.1452  1.0417  0.1349
   8923SM   H8S11931   4.998   0.640   3.752 -0.9676  0.1976  1.9886
   8923SM   H8T11932   5.117   0.505   3.774 -1.2155 -2.0068  0.1442
   8923SM   C9S11933   4.927   0.436   3.764  0.0924 -0.3327  0.5638
   8923SM   H9S11934   4.963   0.336   3.732 -2.1569 -0.7212 -0.9738
   8923SM   H9T11935   4.823   0.460   3.730 -0.2478  0.1211  1.8772
   8923SM  C10S11936   4.937   0.434   3.917  0.2941 -0.0587  0.2201
   8923SM  H10S11937   4.889   0.518   3.972  0.0105 -1.5907  2.4372
   8923SM  H10T11938   5.040   0.406   3.947 -0.0374 -2.6582 -0.8200
   8923SM  C11S11939   4.869   0.306   3.968  0.2505  0.0613  0.5725
   8923SM  H11S11940   4.910   0.217   3.917  0.8501  0.4002  0.4608
   8923SM  H11T11941   4.765   0.317   3.929  1.2048  1.6056 -1.7377
   8923SM  C12S11942   4.868   0.288   4.125  0.1807  0.0877  0.0156
   8923SM  H12S11943   4.768   0.246   4.149  0.3827 -0.3894  0.0441
   8923SM  H12T11944   4.879   0.385   4.177 -3.9688  2.2339 -2.6341
   8923SM  C13S11945   4.973   0.181   4.161 -0.2580  0.1024  0.8913
   8923SM  H13S11946   5.069   0.217   4.119  0.5785 -0.0596  2.6175
   8923SM  H13T11947   4.941   0.094   4.099  1.7729 -1.0696  1.4089
   8923SM  C14S11948   4.997   0.146   4.301  0.5179 -0.2073 -0.2810
   8923SM  H14S11949   5.064   0.058   4.309  2.1292  0.9284 -0.7943
   8923SM  H14T11950   4.902   0.136   4.357  0.6981  2.9409  0.7957
   8923SM  C15S11951   5.076   0.253   4.377 -0.3204  0.3981 -0.8662
   8923SM  H15S11952   5.015   0.346   4.377  0.1414  0.7362  0.7268
   8923SM  H15T11953   5.168   0.283   4.322 -0.1886 -1.9889 -2.0630
   8923SM  C16S11954   5.114   0.213   4.522  1.1889  0.2957  0.2088
   8923SM  H16S11955   5.178   0.297   4.554  1.5087  0.1575 -0.0594
   8923SM  H16T11956   5.173   0.119   4.513 -0.3095 -0.7114  0.5232
   8923SM  C17S11957   4.995   0.214   4.622  0.3876  0.4527  0.5418
   8923SM  H17S11958   4.909   0.150   4.593  0.6719  0.7773 -1.1513
   8923SM  H17T11959   4.957   0.318   4.608 -1.0126 -0.2120 -0.8611
   8923SM  C18S11960   5.040   0.183   4.763 -0.4473  0.5908  0.0624
   8923SM  H18S11961   5.051   0.072   4.770 -0.7495  0.5600  0.0736
   8923SM  H18T11962   4.958   0.215   4.831  0.6582  0.4180  1.5058
   8923SM  H18U11963   5.130   0.239   4.794 -0.1628 -0.1998  0.7093
   8923SM   C1F11964   5.266   0.211   3.147  0.8353  0.0948 -0.1663
   8923SM    OF11965   5.369   0.281   3.149  0.1212 -0.7812  0.0813
   8923SM   C2F11966   5.270   0.058   3.152 -0.0217  0.5180 -0.8894
   8923SM   H2F11967   5.233   0.033   3.050  1.3549  0.3528 -1.3753
   8923SM   H2G11968   5.201   0.015   3.228  1.2165  1.2040  0.6825
   8923SM   C3F11969   5.412   0.004   3.169  0.1838 -0.2491 -0.4304
   8923SM   H3F11970   5.455   0.063   3.253 -1.5430 -1.5454  1.4501
   8923SM   H3G11971   5.469   0.026   3.076 -0.1221 -1.7127 -0.9919
   8923SM   C4F11972   5.421  -0.144   3.209 -0.1872  0.0948  0.2713
   8923SM   H4F11973   5.523  -0.188   3.201  0.6920  2.2930 -2.5047
   8923SM   H4G11974   5.347  -0.194   3.142 -0.1356 -0.8806  0.9239
   8923SM   C5F11975   5.396  -0.167   3.360  0.0498 -0.5485  0.7543
   8923SM   H5F11976   5.294  -0.128   3.378  0.2448  1.5636 -2.0304
   8923SM   H5G11977   5.467  -0.094   3.404  0.6286  2.0807 -3.8690
   8923SM   C6F11978   5.418  -0.312   3.397  0.7247 -0.1404  0.5083
   8923SM   H6F11979   5.510  -0.345   3.343 -0.1825 -0.3790 -0.9368
   8923SM   H6G11980   5.337  -0.374   3.354  0.1934  0.3396  0.8155
   8923SM   C7F11981   5.447  -0.321   3.549  0.1927 -0.6173 -0.3432
   8923SM   H7F11982   5.540  -0.262   3.565  1.3804 -2.6947  0.8654
   8923SM   H7G11983   5.473  -0.420   3.592 -1.9672 -0.8152  0.6708
   8923SM   C8F11984   5.329  -0.269   3.638 -0.0054  0.3407  0.8655
   8923SM   H8F11985   5.233  -0.324   3.624  0.9495 -1.8186  2.2963
   8923SM   H8G11986   5.315  -0.161   3.614  1.2383  0.4493  0.5760
   8923SM   C9F11987   5.365  -0.287   3.783 -0.0702  0.8986 -0.5119
   8923SM   H9F11988   5.452  -0.223   3.807 -0.0511  0.4628  0.6828
   8923SM   H9G11989   5.395  -0.390   3.812 -0.5836  1.2372  1.3576
   8923SM  C10F11990   5.257  -0.261   3.889  0.8410  0.5151  0.4608
   8923SM  H10F11991   5.177  -0.333   3.861  0.1694  2.3697 -2.8514
   8923SM  H10G11992   5.216  -0.158   3.887 -0.4210  0.0567  1.1608
   8923SM  C11F11993   5.295  -0.294   4.034 -0.0713  0.2857  0.5436
   8923SM  H11F11994   5.374  -0.219   4.058  1.4260 -0.8791 -0.5406
   8923SM  H11G11995   5.341  -0.395   4.035  0.9464  0.7378  1.8447
   8923SM  C12F11996   5.175  -0.291   4.118 -0.2826  0.2499  0.0079
   8923SM  H12F11997   5.096  -0.357   4.078  0.7278 -1.8571  1.3209
   8923SM  H12G11998   5.130  -0.189   4.116 -0.4053  0.1899 -1.2720
   8923SM  C13F11999   5.198  -0.340   4.261 -0.2813  0.0386 -0.5501
   8923SM  H13F12000   5.250  -0.438   4.266  0.8241  0.6560  1.3369
   8923SM  H13G12001   5.104  -0.346   4.319 -0.3443  0.0090 -0.6561
   8923SM  C14F12002   5.281  -0.237   4.342 -0.2330  0.1186  0.0724
   8923SM  H14F12003   5.219  -0.147   4.360 -0.7049 -0.3477  0.8869
   8923SM  H14G12004   5.374  -0.213   4.287 -0.5709  1.0591 -0.1023
   8923SM  C15F12005   5.321  -0.299   4.480  0.4169 -0.2041 -0.1726
   8923SM  H15F12006   5.366  -0.399   4.472  0.0596 -0.2378 -2.2848
   8923SM  H15G12007   5.231  -0.301   4.545  0.4613  1.5405  0.0061
   8923SM  C16F12008   5.412  -0.198   4.559  0.6572 -0.4053  0.1982
   8923SM  H16F12009   5.344  -0.113   4.583  0.1768 -1.6120  3.6257
   8923SM  H16G12010   5.491  -0.163   4.489 -0.6172  0.5310 -0.8416
   8923SM  C17F12011   5.460  -0.245   4.697 -0.5654 -0.6458 -0.8618
   8923SM  H17F12012   5.506  -0.158   4.749 -0.7765 -2.1700  2.0449
   8923SM  H17G12013   5.545  -0.316   4.689 -0.5431 -0.5787 -1.2894
   8923SM  C18F12014   5.355  -0.303   4.795 -0.2464  0.6811  0.3758
   8923SM  H18F12015   5.309  -0.394   4.751 -0.9657  0.4806  1.5116
   8923SM  H18G12016   5.277  -0.226   4.808 -1.5787 -0.3490 -1.2397
   8923SM  C19F12017   5.415  -0.349   4.932 -0.0434  0.2437  0.4524
   8923SM  H19F12018   5.464  -0.264   4.983 -0.4272  0.0473  1.1540
   8923SM  H19G12019   5.491  -0.427   4.910 -2.2157 -2.0180  0.5388
   8923SM  C20F12020   5.303  -0.410   5.018  0.1191  0.2227 -0.6773
   8923SM  H20F12021   5.262  -0.493   4.957  0.1965  0.5236 -1.1495
   8923SM  H20G12022   5.221  -0.339   5.040 -0.2366  0.6703 -3.1703
   8923SM  C21F12023   5.348  -0.479   5.151 -0.4518 -0.4536 -0.2337
   8923SM  H21F12024   5.391  -0.402   5.218  0.4020  0.3127 -1.6224
   8923SM  H21G12025   5.432  -0.549   5.131  1.5767  2.2159 -1.7002
   8923SM  C22F12026   5.238  -0.562   5.228  0.6168  0.5815 -0.3284
   8923SM  H22F12027   5.199  -0.641   5.160 -0.4637 -0.7478  1.7339
   8923SM  H22G12028   5.152  -0.495   5.251  1.7907  1.2212  2.5711
   8923SM  C23F12029   5.284  -0.635   5.351  0.2035  1.0640  1.4361
   8923SM  H23F12030   5.200  -0.699   5.386 -0.4093  1.4967  0.7842
   8923SM  H23G12031   5.308  -0.561   5.429  1.4088  1.4854  0.6903
   8923SM  H23H12032   5.375  -0.693   5.323  0.9626  2.9350 -0.2250
   9023SM     N12033   4.523   0.607   2.953 -0.4171 -0.1624  0.6790
   9023SM   C1512034   4.616   0.587   3.066  0.3713  0.0768 -1.0631
   9023SM  H15A12035   4.583   0.512   3.137  1.9424 -0.5640 -0.9843
   9023SM  H15B12036   4.625   0.678   3.123 -0.0576 -0.3981 -0.2184
   9023SM  H15C12037   4.714   0.566   3.027  1.1146  0.5550  0.4772
   9023SM   C1412038   4.573   0.721   2.873 -0.4678  0.3577  0.6386
   9023SM  H14A12039   4.591   0.804   2.940  0.8256 -1.0963  2.1616
   9023SM  H14B12040   4.516   0.756   2.788 -0.7057  0.9507  1.0377
   9023SM  H14C12041   4.669   0.696   2.831 -0.6119 -1.2855  1.2491
   9023SM   C1312042   4.522   0.476   2.869  0.7797 -0.4720  0.4393
   9023SM  H13A12043   4.480   0.390   2.918 -1.5649 -0.3325 -1.2005
   9023SM  H13B12044   4.621   0.450   2.835  1.3242  0.1751  1.4609
   9023SM  H13C12045   4.454   0.479   2.785  0.1797  0.1590  0.9372
   9023SM   C1212046   4.378   0.640   2.995  0.0017  0.9613  0.6128
   9023SM  H12A12047   4.374   0.720   3.067  1.9276  1.1118  0.6075
   9023SM  H12B12048   4.349   0.554   3.053 -1.3250 -0.0667 -1.4563
   9023SM   C1112049   4.269   0.653   2.890  0.1202 -0.0083 -0.2194
   9023SM  H11A12050   4.297   0.734   2.818  1.4741  0.6826  1.0536
   9023SM  H11B12051   4.175   0.691   2.935 -0.9504 -3.1101  0.4089
   9023SM     P12052   4.148   0.414   2.887 -0.6167 -0.3220  0.5540
   9023SM   O1312053   4.008   0.431   2.846 -0.9626 -0.3616 -0.1060
   9023SM   O1412054   4.212   0.283   2.869  0.4201 -0.5837  0.4929
   9023SM   O1112055   4.140   0.451   3.041 -0.1220 -0.6752  0.1344
   9023SM   O1212056   4.237   0.529   2.823  1.0888  0.8560  0.3282
   9023SM   C1S12057   4.211   0.364   3.135 -0.0548  0.0358  0.3532
   9023SM   H1S12058   4.317   0.355   3.105  0.1392  3.9541 -0.6049
   9023SM   H1T12059   4.176   0.258   3.139  2.0584 -0.6632  1.9723
   9023SM    NF12060   4.294   0.335   3.358  0.4004 -0.3658 -0.3107
   9023SM   HNF12061   4.252   0.253   3.397  1.8158 -0.4250  1.1894
   9023SM   C2S12062   4.208   0.422   3.280  0.0436  0.0658  0.2511
   9023SM   H2S12063   4.246   0.526   3.270  0.5068 -0.1334 -0.0261
   9023SM   C3S12064   4.066   0.443   3.329 -0.7050 -0.1739  0.3091
   9023SM   H3S12065   4.020   0.342   3.340  0.2383 -0.5952  0.4984
   9023SM    O312066   3.976   0.515   3.244 -0.2801 -0.5715 -0.1507
   9023SM   HO312067   4.021   0.531   3.161 -0.9051  1.4482 -0.1687
   9023SM   C4S12068   4.064   0.497   3.468  0.1982  0.4341 -0.6825
   9023SM   H4S12069   4.015   0.414   3.522  0.9064  0.4993  0.0694
   9023SM   C5S12070   4.103   0.611   3.526 -0.1275  0.3436 -0.1041
   9023SM   H5S12071   4.164   0.684   3.470  2.7295 -1.8154 -0.0394
   9023SM   C6S12072   4.088   0.639   3.674 -0.8267 -0.4791 -0.1161
   9023SM   H6S12073   4.018   0.725   3.688 -2.2177 -1.8627  2.0217
   9023SM   H6T12074   4.189   0.665   3.711 -0.2789  0.2988 -2.0514
   9023SM   C7S12075   4.055   0.524   3.765 -0.2310 -0.0612  0.0392
   9023SM   H7S12076   4.147   0.462   3.761  1.7390  2.4922  2.1013
   9023SM   H7T12077   3.967   0.467   3.730  0.8949 -0.4609 -2.3404
   9023SM   C8S12078   4.038   0.568   3.909 -0.1596 -0.0731  0.4754
   9023SM   H8S12079   3.996   0.479   3.961 -1.5918 -0.1954 -0.8159
   9023SM   H8T12080   3.959   0.645   3.921 -1.1672 -0.6692 -1.7147
   9023SM   C9S12081   4.162   0.607   3.985 -0.7441 -0.4533  0.3450
   9023SM   H9S12082   4.227   0.683   3.935 -2.6995  1.6386  0.8380
   9023SM   H9T12083   4.222   0.514   3.995  0.2265  0.2374  1.2629
   9023SM  C10S12084   4.131   0.660   4.125  0.2773  0.0019 -0.2694
   9023SM  H10S12085   4.031   0.631   4.164  0.1293  0.1879 -0.5066
   9023SM  H10T12086   4.140   0.771   4.121  1.4903 -0.0762 -4.3269
   9023SM  C11S12087   4.232   0.603   4.232  0.5330 -0.5219 -0.1688
   9023SM  H11S12088   4.333   0.628   4.191 -0.5335 -1.0279 -3.3521
   9023SM  H11T12089   4.225   0.493   4.246  2.5455 -0.5705  0.8986
   9023SM  C12S12090   4.217   0.664   4.373  0.4119  0.7302 -0.3286
   9023SM  H12S12091   4.239   0.579   4.441 -1.2654 -1.9582 -2.9265
   9023SM  H12T12092   4.113   0.695   4.397 -0.1692  2.5121 -4.3780
   9023SM  C13S12093   4.307   0.783   4.406 -0.2339 -0.1547 -0.5991
   9023SM  H13S12094   4.289   0.875   4.347  0.4418  0.6508  0.4174
   9023SM  H13T12095   4.409   0.743   4.390 -1.8176 -4.6887 -0.9747
   9023SM  C14S12096   4.302   0.823   4.557 -0.1971 -0.4037 -0.6884
   9023SM  H14S12097   4.310   0.725   4.609  0.3888 -0.5622 -1.0613
   9023SM  H14T12098   4.201   0.868   4.562  0.6468  1.5856 -0.6885
   9023SM  C15S12099   4.407   0.924   4.597  0.2674  0.4887  0.0409
   9023SM  H15S12100   4.420   0.991   4.510  0.2032 -1.3334 -1.4295
   9023SM  H15T12101   4.509   0.881   4.608 -0.2752 -0.7968  0.2058
   9023SM  C16S12102   4.390   1.001   4.735 -0.1478  0.1559  0.1656
   9023SM  H16S12103   4.395   0.925   4.816  2.0553 -0.6865 -0.6711
   9023SM  H16T12104   4.294   1.056   4.728  0.2462  0.7250 -1.2954
   9023SM  C17S12105   4.496   1.111   4.748 -0.5865  0.0601  0.6318
   9023SM  H17S12106   4.458   1.176   4.829 -1.5889  0.0526  0.1819
   9023SM  H17T12107   4.512   1.161   4.650  0.5741 -0.7350  0.3878
   9023SM  C18S12108   4.626   1.059   4.805  0.0878  0.1869  0.1332
   9023SM  H18S12109   4.689   1.144   4.838 -0.3329  0.4439  0.2898
   9023SM  H18T12110   4.684   1.017   4.721 -1.0928  0.6648 -0.9646
   9023SM  H18U12111   4.618   0.976   4.877 -1.4050  0.3704  0.2147
   9023SM   C1F12112   4.429   0.330   3.359 -0.1550 -0.1342 -1.0642
   9023SM    OF12113   4.489   0.396   3.275 -0.1703  0.2079 -0.3534
   9023SM   C2F12114   4.493   0.239   3.470  0.3826 -0.3508  0.5683
   9023SM   H2F12115   4.424   0.157   3.500 -3.0951  2.1515  0.1382
   9023SM   H2G12116   4.493   0.310   3.556  2.1854  1.2215 -0.6619
   9023SM   C3F12117   4.635   0.205   3.426 -0.3915 -0.1278  0.1197
   9023SM   H3F12118   4.696   0.291   3.392  1.3982 -2.1910 -2.2318
   9023SM   H3G12119   4.628   0.145   3.333  2.4703 -0.9858  0.3749
   9023SM   C4F12120   4.707   0.125   3.533  0.1124  0.4387 -0.0417
   9023SM   H4F12121   4.663   0.023   3.542  0.8722 -0.0191 -1.2894
   9023SM   H4G12122   4.708   0.175   3.632 -3.1878 -1.1309  0.9484
   9023SM   C5F12123   4.850   0.098   3.489 -1.1013 -0.5342 -0.1890
   9023SM   H5F12124   4.896   0.184   3.436  0.8863 -1.6062 -0.3085
   9023SM   H5G12125   4.849   0.017   3.413  0.2813 -1.1413  0.3937
   9023SM   C6F12126   4.934   0.059   3.613  0.1626  0.1233  0.4091
   9023SM   H6F12127   4.906  -0.041   3.653 -1.0622 -0.3205 -1.4222
   9023SM   H6G12128   4.915   0.122   3.702 -0.5011  1.7026 -0.7948
   9023SM   C7F12129   5.083   0.047   3.580 -0.4484 -1.0414 -0.1101
   9023SM   H7F12130   5.101  -0.024   3.496  0.9150  1.2870 -1.8987
   9023SM   H7G12131   5.133   0.006   3.670  0.1039  0.3111  0.2303
   9023SM   C8F12132   5.155   0.178   3.533  0.4257 -0.1721 -0.3344
   9023SM   H8F12133   5.119   0.263   3.596  4.6908  0.5760  1.4096
   9023SM   H8G12134   5.134   0.177   3.424 -1.4851  0.1510 -0.0034
   9023SM   C9F12135   5.306   0.158   3.556 -0.1632 -0.1705  0.1153
   9023SM   H9F12136   5.370   0.243   3.525  3.0196 -2.2368  0.5688
   9023SM   H9G12137   5.335   0.066   3.502 -0.0174 -0.7921  1.2171
   9023SM  C10F12138   5.352   0.130   3.703  0.0411  0.0155  0.0325
   9023SM  H10F12139   5.316   0.028   3.726 -0.8260  0.3387  0.1367
   9023SM  H10G12140   5.287   0.198   3.762  1.1139 -0.4141  1.8096
   9023SM  C11F12141   5.499   0.142   3.732 -0.5606  0.2060 -0.2702
   9023SM  H11F12142   5.561   0.204   3.664 -0.1300 -0.7571 -0.7801
   9023SM  H11G12143   5.544   0.040   3.725 -0.1865  0.2952  0.7108
   9023SM  C12F12144   5.539   0.197   3.875  0.2572 -0.1645  0.0914
   9023SM  H12F12145   5.529   0.306   3.889  1.0537 -0.2795  1.8899
   9023SM  H12G12146   5.648   0.190   3.890  0.5075  1.8628 -0.5265
   9023SM  C13F12147   5.459   0.136   3.985  0.4563 -0.2592  0.4007
   9023SM  H13F12148   5.457   0.025   3.990 -0.6428 -0.3804 -1.6157
   9023SM  H13G12149   5.355   0.169   3.966  1.4332  3.2503  0.3523
   9023SM  C14F12150   5.498   0.186   4.128 -0.3941 -0.2420  0.7480
   9023SM  H14F12151   5.479   0.295   4.138 -1.0150 -0.3119  0.3882
   9023SM  H14G12152   5.606   0.176   4.153 -0.4197  0.9536  1.4321
   9023SM  C15F12153   5.410   0.100   4.226 -0.7507 -0.3151  0.7028
   9023SM  H15F12154   5.434  -0.005   4.198 -2.0537  0.0516 -2.0964
   9023SM  H15G12155   5.306   0.134   4.208  0.1091  1.7300 -0.9007
   9023SM  C16F12156   5.434   0.131   4.375  0.2772 -0.7440 -0.0213
   9023SM  H16F12157   5.364   0.077   4.442 -1.5214  2.8240  1.1831
   9023SM  H16G12158   5.415   0.239   4.391  0.1892 -0.6346 -0.8191
   9023SM  C17F12159   5.583   0.116   4.433 -0.2757  0.7345 -0.2663
   9023SM  H17F12160   5.649   0.184   4.376 -1.6144  1.1686 -1.3344
   9023SM  H17G12161   5.602   0.009   4.410 -0.5614  0.2692  1.5062
   9023SM  C18F12162   5.605   0.135   4.586  0.5259  0.4144 -0.2515
   9023SM  H18F12163   5.527   0.074   4.637 -0.0518  0.2910 -1.2657
   9023SM  H18G12164   5.569   0.236   4.616 -2.0262 -0.9938  1.8364
   9023SM  C19F12165   5.742   0.091   4.636  0.0068 -0.1579  0.3912
   9023SM  H19F12166   5.820   0.166   4.609  1.5124 -1.8005  0.0187
   9023SM  H19G12167   5.777   0.001   4.582  1.1312  0.9217 -0.7509
   9023SM  C20F12168   5.728   0.052   4.784 -0.5289 -0.9944  0.0219
   9023SM  H20F12169   5.684  -0.050   4.792 -3.8632  0.1659 -1.4709
   9023SM  H20G12170   5.654   0.119   4.833  0.7002 -0.0307  0.6295
   9023SM  C21F12171   5.865   0.049   4.855 -0.0408  0.7526 -0.1149
   9023SM  H21F12172   5.906   0.150   4.876 -0.5953  1.1055 -0.6866
   9023SM  H21G12173   5.934  -0.000   4.783  0.5475  0.4912  0.6129
   9023SM  C22F12174   5.876  -0.041   4.981  0.8565  0.7855  1.2500
   9023SM  H22F12175   5.816  -0.004   5.067  0.1693  1.3251  0.5482
   9023SM  H22G12176   5.979  -0.031   5.020  1.2028 -1.4981  1.0480
   9023SM  C23F12177   5.848  -0.193   4.956  0.6377  0.5004  0.6920
   9023SM  H23F12178   5.739  -0.210   4.937  1.1660 -0.1131 -2.4427
   9023SM  H23G12179   5.880  -0.244   5.049  1.0556 -1.0037 -0.2468
   9023SM  H23H12180   5.905  -0.218   4.864 -0.4353  3.0276 -0.7971
   9123SM     N12181   6.334   3.283   2.644 -0.3894  0.8427  0.4857
   9123SM   C1512182   6.273   3.386   2.557 -0.9432  0.2331  0.3628
   9123SM  H15A12183   6.283   3.352   2.455 -0.1440 -2.1137  1.1387
   9123SM  H15B12184   6.322   3.482   2.568 -1.6092  0.6668 -0.3963
   9123SM  H15C12185   6.172   3.409   2.585  0.1586  3.2084  2.3599
   9123SM   C1412186   6.295   3.152   2.583 -0.5443  0.2811 -0.2476
   9123SM  H14A12187   6.190   3.127   2.589 -0.6598  0.9405  0.9725
   9123SM  H14B12188   6.342   3.074   2.640  1.5817  1.5530 -0.1258
   9123SM  H14C12189   6.339   3.152   2.485  0.9102  1.5956  0.3596
   9123SM   C1312190   6.483   3.291   2.640  0.6406 -0.6943 -0.1278
   9123SM  H13A12191   6.508   3.277   2.535 -2.3938 -1.8379 -0.8004
   9123SM  H13B12192   6.532   3.214   2.696  3.2867  0.8324 -0.1666
   9123SM  H13C12193   6.518   3.394   2.644  1.6055 -0.9307 -1.4785
   9123SM   C1212194   6.285   3.287   2.786 -0.2950  0.1282  0.3212
   9123SM  H12A12195   6.336   3.359   2.849  0.3850  1.3435 -1.5542
   9123SM  H12B12196   6.312   3.195   2.836  0.7440  0.5368  0.5381
   9123SM   C1112197   6.132   3.314   2.800  0.6967  0.4772 -0.7059
   9123SM  H11A12198   6.106   3.417   2.770  1.3389  0.6799 -0.5945
   9123SM  H11B12199   6.110   3.298   2.908 -3.3591  1.7921 -1.1737
   9123SM     P12200   5.903   3.224   2.717  0.1216  0.1179  0.1443
   9123SM   O1312201   5.871   3.341   2.631 -0.0499 -0.2176  0.3450
   9123SM   O1412202   5.845   3.093   2.670 -0.2138 -0.0658 -0.1029
   9123SM   O1112203   5.853   3.270   2.863 -0.7117  0.9874 -0.8714
   9123SM   O1212204   6.056   3.214   2.730 -0.4883  0.0401  0.4454
   9123SM   C1S12205   5.854   3.170   2.965  0.2347  0.0520  0.2071
   9123SM   H1S12206   5.920   3.082   2.948 -0.1882 -0.2052 -0.0907
   9123SM   H1T12207   5.751   3.133   2.978 -0.0597 -0.4864 -3.0761
   9123SM    NF12208   5.894   3.111   3.209 -0.0241 -0.8027  0.2645
   9123SM   HNF12209   5.814   3.121   3.268 -0.4566  0.3661 -0.5068
   9123SM   C2S12210   5.904   3.221   3.113 -0.0441 -0.2108 -0.5375
   9123SM   H2S12211   6.012   3.248   3.105  0.0249 -0.6931 -1.3396
   9123SM   C3S12212   5.828   3.349   3.150 -0.5311  0.6831 -0.2338
   9123SM   H3S12213   5.718   3.334   3.151 -0.6537  0.7547 -3.4957
   9123SM    O312214   5.850   3.456   3.065  0.3961 -0.1950  0.4742
   9123SM   HO312215   5.889   3.420   2.984 -2.0929  1.3974 -1.5898
   9123SM   C4S12216   5.865   3.379   3.297  0.5361  0.1954  0.4765
   9123SM   H4S12217   5.778   3.358   3.361  0.8912  0.6887  1.1291
   9123SM   C5S12218   5.974   3.438   3.345  0.3061  0.1913  0.0656
   9123SM   H5S12219   6.055   3.470   3.278  1.3260 -0.2948  1.0301
   9123SM   C6S12220   5.991   3.462   3.493 -0.1488 -0.9251  0.0320
   9123SM   H6S12221   5.921   3.540   3.531 -0.0064 -0.9227  0.2895
   9123SM   H6T12222   6.091   3.510   3.494 -0.3562 -0.4702  1.5090
   9123SM   C7S12223   5.984   3.332   3.571 -0.6811 -0.4592  0.2674
   9123SM   H7S12224   6.073   3.274   3.538 -0.1415 -2.0236  3.9854
   9123SM   H7T12225   5.896   3.269   3.544  1.1861 -2.8271 -0.6494
   9123SM   C8S12226   5.979   3.346   3.721  0.6926 -0.0491 -0.6049
   9123SM   H8S12227   6.022   3.445   3.746 -1.7865  0.2374  3.4791
   9123SM   H8T12228   6.050   3.278   3.772 -0.8809 -2.0996 -1.0026
   9123SM   C9S12229   5.848   3.308   3.798  0.9665 -0.1132  0.4436
   9123SM   H9S12230   5.852   3.197   3.810 -0.5782 -0.0730  1.6233
   9123SM   H9T12231   5.758   3.334   3.738  1.3013 -0.9988 -0.4745
   9123SM  C10S12232   5.822   3.370   3.934 -0.3267  0.1154 -0.1433
   9123SM  H10S12233   5.714   3.393   3.943  0.5047  4.0285  2.1746
   9123SM  H10T12234   5.889   3.458   3.928  2.5974 -1.9425  0.4395
   9123SM  C11S12235   5.882   3.294   4.056 -0.0722  0.5053 -0.4916
   9123SM  H11S12236   5.970   3.234   4.024  0.1516  0.3755  0.3470
   9123SM  H11T12237   5.802   3.238   4.110  0.0347  0.9572  0.1357
   9123SM  C12S12238   5.934   3.390   4.163  0.6406  1.0368 -0.4242
   9123SM  H12S12239   5.855   3.462   4.196 -0.5594 -0.6954  0.6220
   9123SM  H12T12240   6.011   3.458   4.119  0.0146  2.5540  0.7386
   9123SM  C13S12241   5.990   3.323   4.291  0.0917 -0.1973 -0.2419
   9123SM  H13S12242   6.074   3.266   4.248  1.2126  1.3030 -0.1311
   9123SM  H13T12243   5.918   3.253   4.338 -0.2765  0.8036  0.7418
   9123SM  C14S12244   6.042   3.417   4.403  0.1781  0.4861  0.4558
   9123SM  H14S12245   5.963   3.473   4.457  0.5630 -0.1734  1.7617
   9123SM  H14T12246   6.107   3.485   4.344  0.6583 -1.0361 -0.8464
   9123SM  C15S12247   6.115   3.350   4.513 -0.0141  0.1833 -0.0622
   9123SM  H15S12248   6.194   3.277   4.484 -0.3954 -0.2784  0.0602
   9123SM  H15T12249   6.042   3.290   4.571  0.2047  1.3437  1.4767
   9123SM  C16S12250   6.165   3.449   4.614 -0.1275  0.1899  0.1114
   9123SM  H16S12251   6.183   3.394   4.708  0.0639 -0.5496 -0.3443
   9123SM  H16T12252   6.076   3.514   4.629 -1.0546 -0.3206 -2.5141
   9123SM  C17S12253   6.294   3.520   4.569  0.1970  0.3850 -0.1607
   9123SM  H17S12254   6.273   3.606   4.636 -2.1273 -0.3570  0.1434
   9123SM  H17T12255   6.286   3.550   4.462 -2.2691  1.4574  0.2588
   9123SM  C18S12256   6.424   3.451   4.609  0.6186 -0.0988 -0.0123
   9123SM  H18S12257   6.447   3.354   4.559  1.7621 -1.0773  2.2283
   9123SM  H18T12258   6.421   3.424   4.716  1.9348 -2.6089 -0.5322
   9123SM  H18U12259   6.512   3.510   4.574  0.8884  0.0659  0.9295
   9123SM   C1F12260   5.970   3.002   3.207 -0.2091  0.2785  0.2490
   9123SM    OF12261   6.064   2.989   3.127  0.4368  0.3518 -0.4479
   9123SM   C2F12262   5.954   2.899   3.309 -0.0757 -0.0685 -0.5732
   9123SM   H2F12263   6.037   2.829   3.287  1.7919  1.5607  0.9471
   9123SM   H2G12264   5.863   2.834   3.310 -0.9277  1.0227  2.4009
   9123SM   C3F12265   5.970   2.974   3.442  0.5732  0.8210  0.4774
   9123SM   H3F12266   5.890   3.047   3.466 -1.2465 -1.4771  1.9141
   9123SM   H3G12267   6.064   3.032   3.454  1.7273 -0.5183 -1.5081
   9123SM   C4F12268   5.972   2.877   3.555 -1.3581 -0.4466 -0.3214
   9123SM   H4F12269   6.058   2.807   3.543 -0.2000  1.0472 -0.9536
   9123SM   H4G12270   5.884   2.809   3.555 -0.3536 -1.7837 -0.1567
   9123SM   C5F12271   5.994   2.953   3.685  0.0371 -0.2249 -0.9147
   9123SM   H5F12272   5.901   3.008   3.711  0.4166  0.1475 -0.3110
   9123SM   H5G12273   6.062   3.040   3.672  0.6930 -0.4757  0.6545
   9123SM   C6F12274   6.036   2.860   3.801  0.5231  0.1960  0.6713
   9123SM   H6F12275   6.128   2.801   3.782  1.1049  1.2225  0.2482
   9123SM   H6G12276   5.949   2.796   3.827 -0.9066  1.5090 -0.6418
   9123SM   C7F12277   6.061   2.948   3.926 -0.3637 -0.5841  0.4343
   9123SM   H7F12278   5.967   3.005   3.946 -0.8933 -1.6775  1.0992
   9123SM   H7G12279   6.141   3.017   3.891 -3.1862  2.2653 -0.9656
   9123SM   C8F12280   6.098   2.866   4.051 -0.0234  0.2900 -0.0229
   9123SM   H8F12281   6.189   2.810   4.021  0.1078  1.3075 -1.6544
   9123SM   H8G12282   6.013   2.798   4.069  0.7664 -0.8616 -0.5248
   9123SM   C9F12283   6.137   2.954   4.164 -1.1515 -0.5202  0.0186
   9123SM   H9F12284   6.053   3.022   4.191 -0.1436 -0.1965  2.7546
   9123SM   H9G12285   6.224   3.016   4.131  0.3660 -2.1422  0.8286
   9123SM  C10F12286   6.193   2.877   4.285 -0.5022  1.0205  0.2952
   9123SM  H10F12287   6.285   2.830   4.243 -0.5074 -0.6929  2.0509
   9123SM  H10G12288   6.124   2.795   4.314 -1.0347  1.2291 -0.3498
   9123SM  C11F12289   6.226   2.976   4.393  0.9834  0.1070 -0.1531
   9123SM  H11F12290   6.128   3.018   4.425  0.7811 -0.5810  0.1557
   9123SM  H11G12291   6.297   3.059   4.373  2.2575 -0.5321  1.5107
   9123SM  C12F12292   6.293   2.915   4.518  0.8569 -0.1917  0.0235
   9123SM  H12F12293   6.382   2.854   4.488 -0.8597 -3.8117  1.6315
   9123SM  H12G12294   6.226   2.838   4.563  0.2156  1.2517  1.6771
   9123SM  C13F12295   6.339   3.021   4.616 -0.0438  0.7451  0.0073
   9123SM  H13F12296   6.255   3.051   4.683  0.3015  0.9756  0.3398
   9123SM  H13G12297   6.369   3.111   4.559 -1.3221  2.4585  1.8823
   9123SM  C14F12298   6.461   2.984   4.705 -0.1065  0.5749 -0.1597
   9123SM  H14F12299   6.477   3.074   4.768  1.5901 -1.5874  2.7506
   9123SM  H14G12300   6.539   2.973   4.627  1.6085 -2.7856  1.7970
   9123SM  C15F12301   6.453   2.852   4.781  0.4329  0.0940  0.3749
   9123SM  H15F12302   6.425   2.766   4.717  1.1925 -0.3770  0.6637
   9123SM  H15G12303   6.378   2.855   4.863 -0.0291  1.0765 -0.0647
   9123SM  C16F12304   6.590   2.807   4.844 -0.5859  0.3015 -0.1790
   9123SM  H16F12305   6.618   2.888   4.914 -1.5293  0.9352 -0.5192
   9123SM  H16G12306   6.663   2.809   4.761  0.8318 -1.0172  0.9677
   9123SM  C17F12307   6.584   2.671   4.923  0.6921 -0.1974  0.3733
   9123SM  H17F12308   6.525   2.600   4.861  0.1298  0.8798 -0.3620
   9123SM  H17G12309   6.529   2.692   5.017  1.9957 -0.6529  1.2596
   9123SM  C18F12310   6.718   2.618   4.961 -0.4581 -0.0759  0.0060
   9123SM  H18F12311   6.789   2.698   4.994 -1.0284  0.1339  0.7659
   9123SM  H18G12312   6.766   2.569   4.874  1.8607 -2.8111  2.6164
   9123SM  C19F12313   6.708   2.513   5.074  0.1832  0.0650 -0.2275
   9123SM  H19F12314   6.662   2.567   5.159  2.3621  1.3297  0.2220
   9123SM  H19G12315   6.812   2.482   5.099  0.7550  1.6639 -0.4506
   9123SM  C20F12316   6.617   2.387   5.047 -0.4375 -0.3409 -0.2189
   9123SM  H20F12317   6.521   2.423   5.006  0.1522  0.0757 -1.2592
   9123SM  H20G12318   6.597   2.330   5.141 -1.0464 -0.2976 -0.3192
   9123SM  C21F12319   6.684   2.295   4.946  0.4165  0.3281  0.1310
   9123SM  H21F12320   6.784   2.271   4.989  0.1163  0.9744  1.2219
   9123SM  H21G12321   6.698   2.357   4.855 -1.6983  0.9898  0.2024
   9123SM  C22F12322   6.621   2.156   4.920 -0.3661 -0.2532 -0.1233
   9123SM  H22F12323   6.628   2.134   4.811 -2.6140  1.3512 -0.6675
   9123SM  H22G12324   6.513   2.158   4.948 -0.5117 -1.8420 -0.5017
   9123SM  C23F12325   6.687   2.054   5.001  0.1555 -0.2782  0.0620
   9123SM  H23F12326   6.794   2.049   4.972  0.5548  2.7338  0.7166
   9123SM  H23G12327   6.643   1.952   4.988 -2.6862  0.6672  1.4374
   9123SM  H23H12328   6.682   2.074   5.110  1.9097  1.5171 -0.1381
   9223SM     N12329   3.140   0.246   2.688  0.4984 -0.3346  0.3717
   9223SM   C1512330   3.145   0.381   2.618 -0.2343  0.9292  0.3811
   9223SM  H15A12331   3.168   0.454   2.694 -0.1039  0.6698  0.5949
   9223SM  H15B12332   3.054   0.401   2.564 -1.4470 -2.7955  0.7224
   9223SM  H15C12333   3.229   0.400   2.553 -0.8486  1.3088 -0.3197
   9223SM   C1412334   3.048   0.247   2.809 -0.4756 -0.3825  0.0241
   9223SM  H14A12335   3.084   0.328   2.870 -0.0110 -0.1556 -0.5422
   9223SM  H14B12336   3.030   0.150   2.855 -0.2345  0.0557  1.0902
   9223SM  H14C12337   2.954   0.295   2.790  0.9598  1.6803 -2.4425
   9223SM   C1312338   3.086   0.152   2.581  0.0063  0.7063 -0.1325
   9223SM  H13A12339   3.101   0.047   2.603  0.9021  0.5213 -1.4669
   9223SM  H13B12340   3.136   0.164   2.486  0.4006 -0.5239 -0.0956
   9223SM  H13C12341   2.980   0.165   2.563  0.0211 -0.1553 -0.9522
   9223SM   C1212342   3.282   0.214   2.720 -0.5817  0.0877  0.0368
   9223SM  H12A12343   3.338   0.233   2.630 -1.5241  0.0138 -0.5670
   9223SM  H12B12344   3.296   0.108   2.737  2.0585  0.0137 -2.0145
   9223SM   C1112345   3.350   0.306   2.824 -0.3771 -0.4834 -0.3162
   9223SM  H11A12346   3.410   0.242   2.892  0.0955  0.0692 -0.2117
   9223SM  H11B12347   3.270   0.346   2.890 -0.5506 -1.1042 -0.1427
   9223SM     P12348   3.476   0.537   2.837  0.6508  0.3268  0.2333
   9223SM   O1312349   3.606   0.580   2.787  0.6314 -0.0712  0.0627
   9223SM   O1412350   3.357   0.634   2.842 -0.2369  0.9098 -0.4886
   9223SM   O1112351   3.501   0.470   2.981  0.1019 -0.8845 -0.8089
   9223SM   O1212352   3.435   0.399   2.762 -0.0796 -0.3531 -0.2122
   9223SM   C1S12353   3.557   0.552   3.088  0.2953  0.7408  0.1742
   9223SM   H1S12354   3.473   0.607   3.137 -0.4990  0.0994 -0.4503
   9223SM   H1T12355   3.637   0.620   3.052  0.5894  0.9215  1.1434
   9223SM    NF12356   3.697   0.547   3.291 -0.6363 -0.1292 -0.2209
   9223SM   HNF12357   3.794   0.527   3.288 -0.0956  2.2503 -0.7021
   9223SM   C2S12358   3.618   0.465   3.202 -0.3065  0.2820  0.8214
   9223SM   H2S12359   3.529   0.423   3.254  0.7832 -1.1391  1.6278
   9223SM   C3S12360   3.695   0.340   3.149 -0.0216  0.0335 -0.3189
   9223SM   H3S12361   3.796   0.377   3.120  0.0869  0.7603  0.9171
   9223SM    O312362   3.642   0.257   3.046 -0.2050 -0.4949 -0.3661
   9223SM   HO312363   3.567   0.311   3.018  0.4564  0.3284 -0.5817
   9223SM   C4S12364   3.722   0.253   3.265 -0.5073 -0.2593 -0.0641
   9223SM   H4S12365   3.829   0.256   3.290 -0.5753  1.4719  0.1598
   9223SM   C5S12366   3.624   0.189   3.345 -0.3788 -0.0743  0.7270
   9223SM   H5S12367   3.518   0.193   3.317  0.3613  0.2616 -2.4500
   9223SM   C6S12368   3.663   0.101   3.466  0.5970 -0.3254  0.3418
   9223SM   H6S12369   3.771   0.075   3.462  1.0609  1.5230 -1.2429
   9223SM   H6T12370   3.604   0.008   3.459  1.0522 -0.5897 -0.0344
   9223SM   C7S12371   3.618   0.177   3.591 -0.2343 -0.2198 -0.5410
   9223SM   H7S12372   3.511   0.206   3.576 -0.5012  0.0788  1.6611
   9223SM   H7T12373   3.674   0.273   3.588 -0.3986 -0.0623  0.8990
   9223SM   C8S12374   3.649   0.107   3.726 -0.2882 -0.0856  0.1916
   9223SM   H8S12375   3.616   0.003   3.707 -1.7664  0.4102 -0.0824
   9223SM   H8T12376   3.576   0.144   3.801 -0.5159 -0.4779  0.1632
   9223SM   C9S12377   3.793   0.121   3.781  0.5749 -0.2207 -0.2307
   9223SM   H9S12378   3.822   0.223   3.814  1.9423  0.5881 -3.5152
   9223SM   H9T12379   3.874   0.089   3.711  1.5255 -0.3229  0.8753
   9223SM  C10S12380   3.811   0.030   3.903  0.0549  0.1837  0.4905
   9223SM  H10S12381   3.765  -0.067   3.874  1.2118 -0.0201 -0.7596
   9223SM  H10T12382   3.770   0.078   3.995  2.7910  1.9593  0.8744
   9223SM  C11S12383   3.959   0.015   3.937  0.4779  0.2807  0.0189
   9223SM  H11S12384   4.014   0.111   3.946 -0.7418  0.8881  1.2818
   9223SM  H11T12385   4.001  -0.038   3.849  1.8621  0.4947  0.5385
   9223SM  C12S12386   3.971  -0.069   4.062 -0.9345 -0.1322  0.7142
   9223SM  H12S12387   3.904  -0.158   4.058 -0.9499 -0.2549  2.6490
   9223SM  H12T12388   3.951  -0.000   4.147  1.9854  0.7955  0.7517
   9223SM  C13S12389   4.118  -0.116   4.063  0.8107 -0.4416  0.2904
   9223SM  H13S12390   4.183  -0.026   4.071 -1.1132  0.9588  0.8297
   9223SM  H13T12391   4.137  -0.168   3.967 -3.3027  1.3852 -1.7734
   9223SM  C14S12392   4.153  -0.211   4.178  0.0149 -0.0912 -0.2627
   9223SM  H14S12393   4.096  -0.306   4.172  1.0224 -0.7238 -0.1720
   9223SM  H14T12394   4.131  -0.161   4.275  0.0418  0.5498 -0.5793
   9223SM  C15S12395   4.301  -0.256   4.171  0.4749 -0.1361 -0.7421
   9223SM  H15S12396   4.364  -0.165   4.174 -1.2503  1.1081  2.4887
   9223SM  H15T12397   4.327  -0.302   4.073 -0.5278  0.4739 -1.3026
   9223SM  C16S12398   4.358  -0.352   4.276 -0.4462  0.1046  0.0152
   9223SM  H16S12399   4.468  -0.368   4.274 -0.4097 -0.2029  1.9461
   9223SM  H16T12400   4.302  -0.447   4.263  0.3841 -0.6273  1.4933
   9223SM  C17S12401   4.344  -0.297   4.423 -0.8534 -0.1572 -0.4016
   9223SM  H17S12402   4.240  -0.311   4.460  0.6097 -0.8689  4.0639
   9223SM  H17T12403   4.356  -0.187   4.423  2.7184 -0.4303  0.6934
   9223SM  C18S12404   4.440  -0.363   4.516  0.0104  0.0974  1.0809
   9223SM  H18S12405   4.547  -0.347   4.492 -0.2018 -1.3580 -1.1547
   9223SM  H18T12406   4.425  -0.473   4.501 -0.1963  0.3086 -0.3500
   9223SM  H18U12407   4.416  -0.353   4.624  1.1649 -1.9249  1.5943
   9223SM   C1F12408   3.643   0.634   3.380 -0.4577 -0.3250  0.4465
   9223SM    OF12409   3.521   0.669   3.372 -0.7083  0.1750 -0.5969
   9223SM   C2F12410   3.738   0.681   3.483 -0.1842 -0.1584  0.7603
   9223SM   H2F12411   3.782   0.776   3.445  0.6380 -1.4527 -1.7375
   9223SM   H2G12412   3.826   0.613   3.483 -0.2033 -0.1844  0.5993
   9223SM   C3F12413   3.684   0.693   3.625 -0.0408 -0.8345 -0.3761
   9223SM   H3F12414   3.604   0.771   3.623 -0.9068 -1.6374  0.9931
   9223SM   H3G12415   3.759   0.728   3.699 -0.6320  0.5675 -0.4036
   9223SM   C4F12416   3.620   0.557   3.673 -0.6462  0.2786 -0.3455
   9223SM   H4F12417   3.707   0.489   3.680  1.7900  3.1541 -0.8908
   9223SM   H4G12418   3.544   0.516   3.603 -0.9000 -0.3372  0.2771
   9223SM   C5F12419   3.558   0.573   3.813 -0.5359  0.2850  0.4897
   9223SM   H5F12420   3.458   0.620   3.801 -1.2216 -1.0566  0.7546
   9223SM   H5G12421   3.616   0.641   3.879 -0.5597 -2.8450  4.0262
   9223SM   C6F12422   3.539   0.435   3.872 -0.0041 -0.5325  0.3471
   9223SM   H6F12423   3.631   0.372   3.868  0.9126  0.8034 -0.3405
   9223SM   H6G12424   3.456   0.384   3.818 -0.2684  0.0312  0.2207
   9223SM   C7F12425   3.490   0.443   4.019 -0.3560  0.7694  0.0165
   9223SM   H7F12426   3.387   0.485   4.024 -0.0440  1.4200  1.7856
   9223SM   H7G12427   3.566   0.507   4.068  1.0080 -2.4103  2.3899
   9223SM   C8F12428   3.480   0.302   4.090 -0.1844  0.3213  0.3049
   9223SM   H8F12429   3.585   0.267   4.096 -0.7945 -1.6544  0.1825
   9223SM   H8G12430   3.421   0.239   4.021  0.6973 -1.4034  1.0538
   9223SM   C9F12431   3.416   0.301   4.224 -0.1613  0.0173 -0.7452
   9223SM   H9F12432   3.321   0.358   4.219 -0.2326 -0.1549 -1.7103
   9223SM   H9G12433   3.483   0.343   4.302  0.5730 -1.8187 -0.3358
   9223SM  C10F12434   3.379   0.152   4.268 -0.0479 -0.5252  1.0196
   9223SM  H10F12435   3.480   0.109   4.286  1.0228  0.3594 -2.2478
   9223SM  H10G12436   3.338   0.096   4.182  2.8988 -1.4621  0.1268
   9223SM  C11F12437   3.284   0.141   4.389 -0.6798  0.2732  0.1335
   9223SM  H11F12438   3.194   0.080   4.367 -0.5216 -0.9096  2.5192
   9223SM  H11G12439   3.246   0.244   4.407 -0.8311  0.1164  0.7254
   9223SM  C12F12440   3.362   0.114   4.524 -0.2674  0.1530  0.0810
   9223SM  H12F12441   3.440   0.192   4.539 -1.9727  2.2040 -1.0460
   9223SM  H12G12442   3.412   0.016   4.509 -1.2035  0.1170 -3.5142
   9223SM  C13F12443   3.276   0.107   4.652  0.6384 -0.4469 -0.2940
   9223SM  H13F12444   3.328   0.086   4.747 -0.4663  1.7204  0.8671
   9223SM  H13G12445   3.217   0.014   4.638  0.5554 -0.9464  2.7585
   9223SM  C14F12446   3.180   0.233   4.664 -0.4152  0.2720  0.4150
   9223SM  H14F12447   3.122   0.230   4.570  0.4473 -3.4329 -0.1961
   9223SM  H14G12448   3.251   0.318   4.663  2.3699 -1.8710  0.6636
   9223SM  C15F12449   3.084   0.241   4.782 -0.2199  0.0557  0.2549
   9223SM  H15F12450   3.148   0.218   4.870 -1.1445 -2.1958  0.4132
   9223SM  H15G12451   3.013   0.155   4.780  1.3572 -1.2762 -1.4002
   9223SM  C16F12452   3.018   0.376   4.802  0.7210 -0.3151  0.9007
   9223SM  H16F12453   2.951   0.397   4.716  0.0119 -1.3671  1.1815
   9223SM  H16G12454   3.090   0.460   4.793  0.5734 -0.4292 -3.2258
   9223SM  C17F12455   2.943   0.391   4.932  0.6985  0.3948 -0.6391
   9223SM  H17F12456   3.018   0.436   5.001  0.3635  1.3478 -0.8906
   9223SM  H17G12457   2.894   0.302   4.977 -0.2918 -0.2736 -2.9288
   9223SM  C18F12458   2.836   0.501   4.923  0.4439  0.3091 -0.4660
   9223SM  H18F12459   2.875   0.591   4.871 -3.1109  2.0030 -0.5064
   9223SM  H18G12460   2.815   0.528   5.029  1.2715 -2.8513  0.6315
   9223SM  C19F12461   2.706   0.459   4.857  0.1070  0.2962  0.2468
   9223SM  H19F12462   2.658   0.372   4.906 -0.8106  0.0677 -0.9951
   9223SM  H19G12463   2.726   0.430   4.751 -2.4250 -0.9911  0.0287
   9223SM  C20F12464   2.594   0.560   4.885  0.5914  0.8369 -0.2836
   9223SM  H20F12465   2.577   0.567   4.995  1.3041 -1.3053  0.0241
   9223SM  H20G12466   2.498   0.528   4.840  0.1738  2.4714 -0.6161
   9223SM  C21F12467   2.615   0.703   4.828 -0.2176  0.0362  0.0931
   9223SM  H21F12468   2.695   0.693   4.752  0.0951  1.4351  0.2155
   9223SM  H21G12469   2.656   0.770   4.906 -1.6022  1.2820 -0.2039
   9223SM  C22F12470   2.497   0.782   4.770  0.4185  0.3373 -0.3257
   9223SM  H22F12471   2.533   0.884   4.746 -3.1248  1.9671  0.5932
   9223SM  H22G12472   2.412   0.789   4.842  1.5066 -0.2579  1.0698
   9223SM  C23F12473   2.444   0.726   4.636  0.3740 -0.0621  0.0288
   9223SM  H23F12474   2.407   0.622   4.640  1.2184 -0.4091 -0.6295
   9223SM  H23G12475   2.528   0.735   4.563  1.6915 -0.4896  1.4549
   9223SM  H23H12476   2.367   0.796   4.598  1.3121 -0.2517 -2.4033
   9323SM     N12477   6.660   2.247   2.459  0.0983  0.6738 -0.0354
   9323SM   C1512478   6.561   2.349   2.411 -0.1165 -0.0733  0.5930
   9323SM  H15A12479   6.602   2.445   2.387 -0.1023 -0.2352 -0.0463
   9323SM  H15B12480   6.477   2.356   2.479 -0.0923 -0.4546  0.6673
   9323SM  H15C12481   6.515   2.309   2.322 -2.3034 -1.3823  2.2234
   9323SM   C1412482   6.611   2.104   2.449 -0.8036 -0.9522  0.3018
   9323SM  H14A12483   6.618   2.070   2.346 -3.6986 -0.4258 -0.1610
   9323SM  H14B12484   6.510   2.106   2.487 -0.9415  0.3466 -0.0593
   9323SM  H14C12485   6.665   2.033   2.508 -1.9542 -1.1912  1.1063
   9323SM   C1312486   6.783   2.273   2.374  0.3118  1.2657 -0.3968
   9323SM  H13A12487   6.762   2.223   2.280  0.8490  1.2128 -0.4885
   9323SM  H13B12488   6.872   2.234   2.420  1.0610  0.6826 -2.2269
   9323SM  H13C12489   6.799   2.379   2.361  1.0545  0.9998 -1.8439
   9323SM   C1212490   6.698   2.281   2.603  0.0157  0.6091  0.3033
   9323SM  H12A12491   6.734   2.382   2.595  1.9546 -0.1023 -0.7733
   9323SM  H12B12492   6.775   2.208   2.625 -0.4966 -0.2373 -0.6283
   9323SM   C1112493   6.584   2.279   2.709 -0.4182 -0.2093  0.2280
   9323SM  H11A12494   6.609   2.290   2.816 -1.0476  0.2680  0.3310
   9323SM  H11B12495   6.543   2.176   2.704  0.2584 -0.6810  2.8609
   9323SM     P12496   6.500   2.528   2.720  0.3069  0.1569 -0.1566
   9323SM   O1312497   6.630   2.575   2.666  0.4495  0.0592  0.5540
   9323SM   O1412498   6.377   2.606   2.697  0.2205  0.6212  0.3597
   9323SM   O1112499   6.517   2.514   2.879  0.1869  0.6576 -0.4349
   9323SM   O1212500   6.486   2.376   2.669  0.3112  0.6185 -0.4092
   9323SM   C1S12501   6.413   2.461   2.960 -0.2270  0.9798 -0.0011
   9323SM   H1S12502   6.434   2.354   2.982  1.5722  1.5342  1.0856
   9323SM   H1T12503   6.311   2.456   2.914 -0.8628 -1.9394  1.4690
   9323SM    NF12504   6.275   2.473   3.175 -0.2504 -0.0007  0.0949
   9323SM   HNF12505   6.185   2.516   3.174 -0.3361 -0.0230 -3.3765
   9323SM   C2S12506   6.377   2.541   3.090  0.1652  0.3433 -0.1460
   9323SM   H2S12507   6.470   2.545   3.151  1.2470 -0.0352 -1.6944
   9323SM   C3S12508   6.336   2.685   3.055 -0.4277 -0.0826 -0.2350
   9323SM   H3S12509   6.233   2.688   3.013 -0.1291  1.0781 -0.9187
   9323SM    O312510   6.423   2.754   2.961 -0.0669 -0.0167  0.3627
   9323SM   HO312511   6.489   2.687   2.940  0.3357  0.2802  0.6539
   9323SM   C4S12512   6.322   2.758   3.185 -0.3503 -0.3936  0.3187
   9323SM   H4S12513   6.236   2.742   3.251  0.0923 -2.6554  0.4091
   9323SM   C5S12514   6.405   2.848   3.233 -0.1765  0.3829 -1.1586
   9323SM   H5S12515   6.497   2.876   3.180 -0.3576  0.0167 -1.6699
   9323SM   C6S12516   6.383   2.914   3.370  0.6667 -0.2920 -0.0447
   9323SM   H6S12517   6.275   2.918   3.395  0.5499  1.7644 -0.6696
   9323SM   H6T12518   6.399   3.024   3.362  0.9688 -0.2451  1.1143
   9323SM   C7S12519   6.459   2.848   3.485 -0.9291  0.1344 -1.0155
   9323SM   H7S12520   6.569   2.851   3.470 -0.6839  1.6198  0.7027
   9323SM   H7T12521   6.424   2.743   3.486 -0.3469 -0.0650  0.8662
   9323SM   C8S12522   6.439   2.930   3.617  0.4701 -0.9775  0.6645
   9323SM   H8S12523   6.331   2.920   3.641  0.1836 -1.1394 -0.6206
   9323SM   H8T12524   6.461   3.036   3.592 -1.3466 -0.3255  1.6534
   9323SM   C9S12525   6.522   2.878   3.727  0.3329  0.0450 -0.2349
   9323SM   H9S12526   6.617   2.935   3.734  0.2500  0.7263 -3.1562
   9323SM   H9T12527   6.535   2.769   3.707 -1.0791  0.0060 -1.0934
   9323SM  C10S12528   6.448   2.892   3.862  0.3937  0.1558  0.0007
   9323SM  H10S12529   6.355   2.835   3.847  0.7836 -0.2300 -1.0381
   9323SM  H10T12530   6.418   2.996   3.886 -0.4612 -0.0799 -0.0298
   9323SM  C11S12531   6.524   2.836   3.981  0.0549  0.5040  0.0976
   9323SM  H11S12532   6.456   2.859   4.066  0.9717  0.4295  0.8556
   9323SM  H11T12533   6.621   2.889   3.979  0.0019  0.5924 -0.8521
   9323SM  C12S12534   6.560   2.682   3.968  0.8193 -0.1814 -0.4760
   9323SM  H12S12535   6.623   2.663   3.879  3.2480  1.2526  0.8325
   9323SM  H12T12536   6.466   2.623   3.965  0.4917  0.3064 -0.0661
   9323SM  C13S12537   6.649   2.634   4.080 -0.9205 -0.0269  0.7573
   9323SM  H13S12538   6.740   2.698   4.075 -0.1109 -1.2394 -1.9120
   9323SM  H13T12539   6.685   2.531   4.061  1.0851  0.9323 -1.2236
   9323SM  C14S12540   6.592   2.645   4.220  0.8361 -0.0621 -0.5802
   9323SM  H14S12541   6.497   2.589   4.233  0.9796 -0.2900 -0.5060
   9323SM  H14T12542   6.578   2.754   4.237 -0.4515 -0.3912  0.6882
   9323SM  C15S12543   6.693   2.614   4.334 -1.0333 -0.3394  0.1904
   9323SM  H15S12544   6.736   2.513   4.316  1.0439  0.5607 -0.1532
   9323SM  H15T12545   6.778   2.683   4.314  0.0758 -1.9791 -1.1069
   9323SM  C16S12546   6.655   2.632   4.481 -0.1576  0.1450  0.3326
   9323SM  H16S12547   6.619   2.736   4.500  0.1291  0.3621 -0.2897
   9323SM  H16T12548   6.745   2.617   4.544 -0.5476 -0.9738  0.6399
   9323SM  C17S12549   6.550   2.538   4.532  0.0589  0.3958 -0.1865
   9323SM  H17S12550   6.456   2.543   4.472 -0.8692  1.5300  1.2753
   9323SM  H17T12551   6.518   2.566   4.635  4.0532 -0.8829  1.6008
   9323SM  C18S12552   6.590   2.390   4.536  0.4312  0.4005 -0.1506
   9323SM  H18S12553   6.655   2.360   4.451  0.4054  1.7262 -0.6532
   9323SM  H18T12554   6.501   2.323   4.543  0.4955  0.2357 -0.8335
   9323SM  H18U12555   6.647   2.372   4.630 -0.2687  1.9760  0.6036
   9323SM   C1F12556   6.308   2.366   3.249  0.1350 -0.1780  0.1168
   9323SM    OF12557   6.414   2.308   3.246 -0.1613 -0.1438 -0.1427
   9323SM   C2F12558   6.202   2.318   3.335 -0.5145 -0.4272  0.1664
   9323SM   H2F12559   6.170   2.219   3.296  0.0257  0.4507 -2.7304
   9323SM   H2G12560   6.110   2.380   3.323  0.2656  0.3874 -2.0930
   9323SM   C3F12561   6.241   2.311   3.480 -0.1669  0.1696  0.0876
   9323SM   H3F12562   6.338   2.257   3.485  0.8424  1.9151 -0.0542
   9323SM   H3G12563   6.168   2.259   3.546  0.4232 -0.0543  0.5711
   9323SM   C4F12564   6.274   2.447   3.544  0.5568  0.1192 -0.9720
   9323SM   H4F12565   6.362   2.496   3.497 -0.1306  0.4176 -1.9790
   9323SM   H4G12566   6.314   2.422   3.645 -1.9202  0.2756  0.1181
   9323SM   C5F12567   6.149   2.546   3.550 -0.8352  0.0522  0.0612
   9323SM   H5F12568   6.136   2.592   3.449 -0.2533  1.4339  0.5916
   9323SM   H5G12569   6.178   2.634   3.611 -1.5725  0.1136  0.3361
   9323SM   C6F12570   6.024   2.495   3.616  0.3739  0.1756 -0.4962
   9323SM   H6F12571   5.969   2.424   3.550  0.2744  0.8730 -1.1867
   9323SM   H6G12572   5.951   2.577   3.625 -0.2986 -0.5217  0.5676
   9323SM   C7F12573   6.031   2.446   3.754  0.0444 -0.0665 -0.3310
   9323SM   H7F12574   6.081   2.524   3.816  0.4730  1.8000 -2.8609
   9323SM   H7G12575   6.099   2.358   3.757  0.6340  0.3962  0.5359
   9323SM   C8F12576   5.893   2.412   3.816 -1.0103  0.0056 -0.6460
   9323SM   H8F12577   5.916   2.395   3.923  1.2415 -0.6465 -1.1759
   9323SM   H8G12578   5.858   2.318   3.767  1.6152 -1.4301 -0.0046
   9323SM   C9F12579   5.786   2.523   3.811 -0.5094  0.1818 -0.2745
   9323SM   H9F12580   5.768   2.551   3.705 -3.3058  0.8019  0.2920
   9323SM   H9G12581   5.822   2.615   3.861  0.4976  0.6446 -1.7675
   9323SM  C10F12582   5.648   2.468   3.856 -0.0346 -0.9728  0.1168
   9323SM  H10F12583   5.635   2.370   3.804  0.9976 -0.5896 -0.9011
   9323SM  H10G12584   5.562   2.532   3.825 -0.0152  0.1147  2.1214
   9323SM  C11F12585   5.634   2.453   4.012 -0.2061  0.5657 -0.1354
   9323SM  H11F12586   5.662   2.550   4.060  0.7231 -0.9124  2.4748
   9323SM  H11G12587   5.693   2.370   4.056  0.4318  1.4032  0.6439
   9323SM  C12F12588   5.487   2.429   4.060 -0.0403 -0.1691 -0.4627
   9323SM  H12F12589   5.456   2.332   4.017 -1.3768 -0.3785  0.8863
   9323SM  H12G12590   5.431   2.517   4.021  1.9761  1.5565  0.3064
   9323SM  C13F12591   5.460   2.422   4.211 -0.2833  0.0181 -0.0623
   9323SM  H13F12592   5.509   2.335   4.261 -0.2739  0.5742  0.9250
   9323SM  H13G12593   5.350   2.429   4.221 -0.2637  0.0057  0.1735
   9323SM  C14F12594   5.494   2.555   4.284 -0.3293 -0.0899  0.4356
   9323SM  H14F12595   5.498   2.650   4.227 -0.2075 -0.2679  0.1419
   9323SM  H14G12596   5.603   2.549   4.305  0.2820  3.3654 -1.1087
   9323SM  C15F12597   5.412   2.581   4.405  0.0068  0.0495 -0.0706
   9323SM  H15F12598   5.423   2.502   4.482 -1.4828  1.8421  2.1352
   9323SM  H15G12599   5.308   2.578   4.366  0.6084 -0.2482 -1.7758
   9323SM  C16F12600   5.428   2.711   4.485 -0.0848 -0.0338  0.1769
   9323SM  H16F12601   5.533   2.724   4.518  0.4851 -2.6546 -0.3150
   9323SM  H16G12602   5.374   2.688   4.580  0.5361 -1.6059  0.1758
   9323SM  C17F12603   5.359   2.831   4.421 -0.4869 -0.0929 -0.7891
   9323SM  H17F12604   5.262   2.818   4.369 -0.8999 -0.6877  0.1105
   9323SM  H17G12605   5.430   2.886   4.355  0.6583  0.7075  1.0395
   9323SM  C18F12606   5.322   2.926   4.539  0.3952 -0.0927 -0.4003
   9323SM  H18F12607   5.320   3.026   4.492 -1.5342  1.0876  1.9691
   9323SM  H18G12608   5.392   2.928   4.625 -0.2709 -0.0069  0.1463
   9323SM  C19F12609   5.179   2.911   4.583 -0.0220 -0.6840  0.0474
   9323SM  H19F12610   5.152   2.804   4.600 -1.1566 -0.7789 -2.0266
   9323SM  H19G12611   5.110   2.939   4.501 -0.0859  0.5690  0.5165
   9323SM  C20F12612   5.144   2.981   4.715 -0.4950  0.5507 -0.8281
   9323SM  H20F12613   5.036   3.005   4.705 -0.2692  0.9519 -2.7277
   9323SM  H20G12614   5.203   3.074   4.723  4.1430 -2.1753  0.9132
   9323SM  C21F12615   5.172   2.908   4.850  0.1953  0.8175 -0.0282
   9323SM  H21F12616   5.274   2.871   4.875 -0.2384 -0.1227  0.3974
   9323SM  H21G12617   5.118   2.811   4.843 -0.1840  1.0164  0.0901
   9323SM  C22F12618   5.124   2.984   4.971 -0.7344  0.7907 -0.1322
   9323SM  H22F12619   5.015   3.008   4.974 -0.9947 -0.3428  2.7265
   9323SM  H22G12620   5.175   3.083   4.973  1.4533 -0.2196 -1.8584
   9323SM  C23F12621   5.154   2.907   5.107  0.4729  0.0420 -1.0442
   9323SM  H23F12622   5.135   2.799   5.092 -1.5393  0.0217  1.1039
   9323SM  H23G12623   5.089   2.945   5.189 -1.8010 -0.4001 -2.5375
   9323SM  H23H12624   5.256   2.926   5.147 -0.4842  0.1396  1.5346
   9423SM     N12625   5.394   5.427   2.446  0.2983 -0.5657 -0.5592
   9423SM   C1512626   5.476   5.511   2.362  0.6343 -0.0664  0.1227
   9423SM  H15A12627   5.565   5.548   2.412  0.5329  0.3776 -0.0151
   9423SM  H15B12628   5.420   5.600   2.337  1.5689  1.4412  2.9880
   9423SM  H15C12629   5.492   5.450   2.274  0.6265 -2.4712  1.7231
   9423SM   C1412630   5.282   5.378   2.363 -0.1789 -0.0447  0.2648
   9423SM  H14A12631   5.326   5.326   2.279 -2.1293  1.0419 -1.5543
   9423SM  H14B12632   5.228   5.464   2.326  1.7504  1.4972  0.8901
   9423SM  H14C12633   5.208   5.321   2.418  0.3327 -0.4959  0.4891
   9423SM   C1312634   5.477   5.299   2.487  0.4711 -0.1471 -0.0119
   9423SM  H13A12635   5.578   5.324   2.517  0.2929  1.0529 -0.3621
   9423SM  H13B12636   5.486   5.235   2.401  0.9767 -0.0758 -0.0187
   9423SM  H13C12637   5.422   5.241   2.559  1.0364 -1.6663 -0.7494
   9423SM   C1212638   5.353   5.502   2.576 -0.9633 -0.8464 -0.5132
   9423SM  H12A12639   5.283   5.439   2.629  1.2103 -0.3324  3.3430
   9423SM  H12B12640   5.300   5.593   2.551 -0.5913  0.1374  2.0238
   9423SM   C1112641   5.457   5.531   2.690 -0.6366 -0.0707  0.0573
   9423SM  H11A12642   5.497   5.439   2.738  1.2107 -0.0250 -1.2896
   9423SM  H11B12643   5.398   5.568   2.776 -1.9827  0.8688 -1.2298
   9423SM     P12644   5.554   5.765   2.650 -0.1370 -0.0231 -0.2933
   9423SM   O1312645   5.666   5.819   2.568 -0.1462  0.1144  0.0184
   9423SM   O1412646   5.415   5.799   2.611 -0.2473  0.0743 -0.1125
   9423SM   O1112647   5.572   5.800   2.802  0.2307 -0.2372 -0.1257
   9423SM   O1212648   5.563   5.609   2.644 -0.4719  0.8123  0.1351
   9423SM   C1S12649   5.660   5.720   2.877  0.0549  0.2884 -0.3712
   9423SM   H1S12650   5.764   5.729   2.839  0.8478  0.5992  1.7582
   9423SM   H1T12651   5.623   5.615   2.885  0.9835  0.0893  4.1758
   9423SM    NF12652   5.762   5.676   3.096 -0.4266  0.5604 -0.0105
   9423SM   HNF12653   5.722   5.603   3.151 -0.2212 -0.0785 -0.6768
   9423SM   C2S12654   5.665   5.757   3.024  0.6291 -0.2018 -0.3160
   9423SM   H2S12655   5.705   5.860   3.029  1.7523 -0.6224 -0.3024
   9423SM   C3S12656   5.529   5.762   3.100  0.2028  0.0467  0.0389
   9423SM   H3S12657   5.494   5.659   3.121 -1.1357 -0.1363 -2.7588
   9423SM    O312658   5.416   5.824   3.030  0.0889 -0.1913  0.0897
   9423SM   HO312659   5.452   5.830   2.941 -0.6517  0.1323 -0.1969
   9423SM   C4S12660   5.549   5.828   3.241 -0.0039  0.0106  0.4149
   9423SM   H4S12661   5.569   5.757   3.322 -0.3901 -0.3304  0.2157
   9423SM   C5S12662   5.530   5.955   3.270 -0.5518 -0.0827 -0.6836
   9423SM   H5S12663   5.508   6.027   3.189  0.4993  0.7702 -0.2363
   9423SM   C6S12664   5.556   6.029   3.398 -0.4984  0.5218 -0.6197
   9423SM   H6S12665   5.570   6.137   3.379 -0.9474  0.3864 -1.8036
   9423SM   H6T12666   5.652   5.991   3.439 -1.0848  1.5734  1.9213
   9423SM   C7S12667   5.447   6.012   3.510 -0.9217 -1.2344  0.2146
   9423SM   H7S12668   5.442   5.904   3.534 -1.4695 -1.1541  0.4771
   9423SM   H7T12669   5.341   6.034   3.485 -0.6599  3.6762  2.1941
   9423SM   C8S12670   5.505   6.092   3.631  0.3461  0.8038 -0.1204
   9423SM   H8S12671   5.439   6.094   3.720  1.4151  1.5355  0.6822
   9423SM   H8T12672   5.524   6.196   3.596  3.0803  0.3925 -0.0740
   9423SM   C9S12673   5.636   6.035   3.677 -0.1713  0.0032 -0.1378
   9423SM   H9S12674   5.721   6.072   3.616  0.3379 -0.6878  0.1448
   9423SM   H9T12675   5.634   5.925   3.664 -0.6402 -0.2079  1.5217
   9423SM  C10S12676   5.684   6.053   3.827  0.3378  0.5121  0.0581
   9423SM  H10S12677   5.611   6.012   3.900 -0.2420  1.9745  0.3267
   9423SM  H10T12678   5.692   6.162   3.846  1.4991  0.0910  2.2889
   9423SM  C11S12679   5.822   5.995   3.859 -0.2310  0.6666  0.7507
   9423SM  H11S12680   5.901   6.054   3.806  1.7739 -2.1001  0.4003
   9423SM  H11T12681   5.835   5.886   3.841 -0.9047  0.1085  3.3083
   9423SM  C12S12682   5.851   6.013   4.007  0.2477  0.1631 -0.6900
   9423SM  H12S12683   5.769   5.960   4.060  2.9032 -1.2973  2.3650
   9423SM  H12T12684   5.846   6.118   4.044  0.2822  0.3487 -1.2091
   9423SM  C13S12685   5.981   5.953   4.040  0.1289 -0.2823 -0.1613
   9423SM  H13S12686   6.061   6.017   3.997  0.1687 -0.8877 -1.0148
   9423SM  H13T12687   5.984   5.852   3.993 -1.9603 -1.7385  2.5994
   9423SM  C14S12688   6.017   5.932   4.181 -0.0323  0.2183 -0.2731
   9423SM  H14S12689   6.124   5.906   4.198 -0.4103 -1.7567 -0.6441
   9423SM  H14T12690   5.955   5.852   4.228  1.3303 -1.3387 -1.0584
   9423SM  C15S12691   5.999   6.063   4.253 -0.2756 -0.8850 -0.7521
   9423SM  H15S12692   5.892   6.090   4.248  0.2980  2.3983  1.3647
   9423SM  H15T12693   6.047   6.148   4.199  0.9133 -1.3456 -0.4484
   9423SM  C16S12694   6.025   6.069   4.404 -0.4739 -0.0709  0.0859
   9423SM  H16S12695   5.999   5.973   4.454 -0.2671 -0.7021 -0.9977
   9423SM  H16T12696   5.957   6.140   4.456 -1.9420 -0.4108 -1.2845
   9423SM  C17S12697   6.169   6.115   4.445 -0.1342 -0.7014  0.0716
   9423SM  H17S12698   6.237   6.123   4.358 -0.0773  5.0320  0.3054
   9423SM  H17T12699   6.222   6.053   4.520  1.9285 -0.4538 -1.1040
   9423SM  C18S12700   6.170   6.255   4.507 -0.3894  0.2097  0.7383
   9423SM  H18S12701   6.094   6.252   4.588 -0.9222 -4.7818  0.3874
   9423SM  H18T12702   6.142   6.324   4.425 -1.5820  0.0258  0.9783
   9423SM  H18U12703   6.272   6.277   4.545 -0.5105 -0.3586  1.4241
   9423SM   C1F12704   5.896   5.693   3.072 -0.2173  0.9674 -0.0395
   9423SM    OF12705   5.936   5.784   3.009  0.2428 -0.3185  0.0956
   9423SM   C2F12706   5.988   5.604   3.146  0.8239  0.0551  0.3924
   9423SM   H2F12707   5.934   5.510   3.171 -1.8190  0.5070 -2.8872
   9423SM   H2G12708   6.014   5.649   3.244  2.4396  0.6918 -0.2894
   9423SM   C3F12709   6.120   5.570   3.081  0.3272  0.3693 -0.0705
   9423SM   H3F12710   6.179   5.663   3.091  1.9948 -0.8179  1.6393
   9423SM   H3G12711   6.127   5.535   2.976 -1.8874 -0.1603 -0.0901
   9423SM   C4F12712   6.206   5.466   3.153 -0.1557  0.1619 -0.0271
   9423SM   H4F12713   6.155   5.368   3.152 -0.1538  0.1593  0.1354
   9423SM   H4G12714   6.195   5.496   3.260  0.4143  0.3584 -0.0221
   9423SM   C5F12715   6.346   5.456   3.108  0.6374 -0.7043 -0.4849
   9423SM   H5F12716   6.388   5.555   3.078  0.7759  0.0794  2.0639
   9423SM   H5G12717   6.354   5.396   3.015 -0.5968  0.6125 -1.4837
   9423SM   C6F12718   6.442   5.396   3.212  0.2585 -0.2468  1.0446
   9423SM   H6F12719   6.425   5.455   3.305 -1.9018 -0.1911  0.6604
   9423SM   H6G12720   6.549   5.407   3.182 -0.2761 -0.2370 -0.9748
   9423SM   C7F12721   6.412   5.247   3.237  0.5761  0.0755  0.6831
   9423SM   H7F12722   6.426   5.169   3.160 -0.3220  0.0903  0.4946
   9423SM   H7G12723   6.303   5.234   3.255  0.0953  0.1454 -1.8944
   9423SM   C8F12724   6.482   5.197   3.359 -0.2445  0.2476  0.3856
   9423SM   H8F12725   6.436   5.241   3.451 -0.7863  1.3402 -0.3922
   9423SM   H8G12726   6.588   5.229   3.355 -0.6706  1.5557 -1.4659
   9423SM   C9F12727   6.476   5.049   3.377 -0.5507 -0.6424  0.4362
   9423SM   H9F12728   6.567   5.003   3.333  2.3142  1.8813  3.1447
   9423SM   H9G12729   6.385   5.016   3.323  0.7793 -1.6412 -1.2916
   9423SM  C10F12730   6.461   5.016   3.527 -1.0755 -0.7239  0.8339
   9423SM  H10F12731   6.452   4.905   3.530  1.7521 -1.0268  3.4569
   9423SM  H10G12732   6.371   5.074   3.559  0.8858  1.8736  2.0360
   9423SM  C11F12733   6.593   5.054   3.599 -0.8266  0.0762  0.1528
   9423SM  H11F12734   6.619   5.161   3.585 -0.2368  0.0934  1.2559
   9423SM  H11G12735   6.664   4.989   3.543 -1.6408  0.3442 -1.2335
   9423SM  C12F12736   6.588   5.015   3.749  0.3097  0.1294  0.7128
   9423SM  H12F12737   6.690   5.043   3.784  0.6621 -0.4651  0.1880
   9423SM  H12G12738   6.574   4.907   3.774  1.8588 -0.2892 -0.1176
   9423SM  C13F12739   6.490   5.097   3.834  0.1670  0.7965  0.8760
   9423SM  H13F12740   6.389   5.058   3.807  0.2239  0.7074  0.7918
   9423SM  H13G12741   6.501   5.204   3.807 -1.4011  0.6303 -0.6338
   9423SM  C14F12742   6.509   5.078   3.988 -0.6072  0.3911 -0.4200
   9423SM  H14F12743   6.426   5.121   4.049 -0.5863 -0.5033  0.2775
   9423SM  H14G12744   6.586   5.149   4.024 -1.7590  1.2169  0.5218
   9423SM  C15F12745   6.537   4.933   4.033 -0.0464  0.3040 -0.0297
   9423SM  H15F12746   6.626   4.896   3.978  1.5957  3.0825  0.5844
   9423SM  H15G12747   6.455   4.860   4.012 -0.1942  1.0330 -2.3366
   9423SM  C16F12748   6.576   4.934   4.183 -0.4699  0.3722 -0.5698
   9423SM  H16F12749   6.490   4.971   4.244  1.2570 -0.1513  2.3562
   9423SM  H16G12750   6.671   4.989   4.202  0.0144 -0.8442  0.7467
   9423SM  C17F12751   6.588   4.796   4.240 -0.0776  0.1069  0.0712
   9423SM  H17F12752   6.649   4.730   4.175 -0.1902  0.2315 -0.1638
   9423SM  H17G12753   6.488   4.748   4.232  0.3289 -1.0977  1.7356
   9423SM  C18F12754   6.623   4.792   4.385 -0.3847  0.4362 -1.1637
   9423SM  H18F12755   6.537   4.834   4.442 -0.9218  0.2312 -1.8199
   9423SM  H18G12756   6.722   4.840   4.403  0.8353 -2.5215  0.8560
   9423SM  C19F12757   6.636   4.651   4.447  0.5843 -0.3738  0.0390
   9423SM  H19F12758   6.713   4.596   4.388 -0.0405 -0.7561 -0.4369
   9423SM  H19G12759   6.533   4.611   4.439 -1.7284  4.5768  0.7665
   9423SM  C20F12760   6.687   4.655   4.594  0.8177 -0.8070 -1.1556
   9423SM  H20F12761   6.601   4.688   4.655  2.0915  1.2249 -0.3777
   9423SM  H20G12762   6.761   4.738   4.600 -0.0125 -0.1466  0.4122
   9423SM  C21F12763   6.751   4.522   4.650  0.1883  0.1312  0.5655
   9423SM  H21F12764   6.688   4.438   4.615 -1.7911  1.2986  1.1570
   9423SM  H21G12765   6.748   4.514   4.761  0.9732 -1.6584  0.4866
   9423SM  C22F12766   6.893   4.494   4.585 -0.4049 -0.2628  0.3122
   9423SM  H22F12767   6.934   4.595   4.605 -3.6570  0.8437  2.1717
   9423SM  H22G12768   6.881   4.488   4.475 -1.9651  0.8685  0.3781
   9423SM  C23F12769   6.978   4.380   4.645  0.5648 -0.5426 -0.2906
   9423SM  H23F12770   6.974   4.390   4.755 -0.6542  0.9131 -0.4381
   9423SM  H23G12771   7.077   4.383   4.594  0.1072  1.0330 -1.1437
   9423SM  H23H12772   6.933   4.284   4.615  3.0335 -1.5031 -1.1799
   9523SM     N12773   1.167   1.877   2.788  0.8268  0.3979 -0.1924
   9523SM   C1512774   1.033   1.832   2.746 -0.5829 -0.2986  0.1304
   9523SM  H15A12775   1.031   1.730   2.709 -0.5530 -0.3829  0.3552
   9523SM  H15B12776   1.001   1.889   2.660 -2.4040 -0.0376  0.9432
   9523SM  H15C12777   0.965   1.845   2.829 -0.7019 -2.8387  0.5389
   9523SM   C1412778   1.261   1.862   2.673  0.8900  0.4275  0.7272
   9523SM  H14A12779   1.267   1.759   2.640 -2.0467 -0.3471  2.3124
   9523SM  H14B12780   1.352   1.919   2.691  0.7413  0.1828  2.4887
   9523SM  H14C12781   1.221   1.904   2.582  0.7126  0.9107  1.0230
   9523SM   C1312782   1.145   2.020   2.832 -0.3219  0.4048  0.2650
   9523SM  H13A12783   1.097   2.075   2.753 -0.1953  0.2633  0.0856
   9523SM  H13B12784   1.240   2.064   2.859 -0.8570  2.4294 -0.9985
   9523SM  H13C12785   1.093   2.029   2.926  0.0045 -0.2860  0.5193
   9523SM   C1212786   1.220   1.806   2.914 -0.6290  0.2778  0.1968
   9523SM  H12A12787   1.152   1.831   2.994 -1.8670  0.1478 -0.7863
   9523SM  H12B12788   1.320   1.835   2.944 -0.3876 -0.4541  0.1220
   9523SM   C1112789   1.230   1.646   2.920 -0.0549  0.1669 -0.1433
   9523SM  H11A12790   1.142   1.586   2.888  1.8903 -2.4817 -0.8811
   9523SM  H11B12791   1.238   1.618   3.027 -1.7879 -0.4656 -0.1515
   9523SM     P12792   1.497   1.619   2.900 -0.1223  0.0375 -0.1643
   9523SM   O1312793   1.577   1.511   2.834 -0.5976 -0.1619 -0.5315
   9523SM   O1412794   1.547   1.756   2.886  0.2451  0.1668 -0.3340
   9523SM   O1112795   1.481   1.599   3.051 -0.3307 -0.1150  0.1799
   9523SM   O1212796   1.348   1.600   2.847  0.1875  0.0208  0.0281
   9523SM   C1S12797   1.589   1.616   3.144 -0.3329  0.0107  0.2476
   9523SM   H1S12798   1.583   1.724   3.171 -0.4387 -0.5039  2.4450
   9523SM   H1T12799   1.688   1.582   3.106 -0.1878  1.4431 -0.7456
   9523SM    NF12800   1.662   1.564   3.378  0.2699 -0.5053 -0.5403
   9523SM   HNF12801   1.723   1.497   3.420 -0.0990 -0.0823  0.7138
   9523SM   C2S12802   1.563   1.528   3.273  0.5324 -0.4250 -0.4103
   9523SM   H2S12803   1.460   1.558   3.303  1.6853  1.6088  1.8944
   9523SM   C3S12804   1.545   1.373   3.251  0.7343 -0.6046  0.0157
   9523SM   H3S12805   1.631   1.321   3.203  0.3447 -1.9517  0.7294
   9523SM    O312806   1.457   1.343   3.144 -0.0910 -0.2692 -0.3613
   9523SM   HO312807   1.467   1.424   3.094  1.3371 -0.3043 -0.1698
   9523SM   C4S12808   1.499   1.307   3.375 -0.1956 -0.5785  0.4458
   9523SM   H4S12809   1.576   1.304   3.454 -1.4912 -2.2779  1.7167
   9523SM   C5S12810   1.384   1.250   3.400  0.1370  0.3980  0.0334
   9523SM   H5S12811   1.299   1.249   3.331  0.1595  0.1449  0.0092
   9523SM   C6S12812   1.348   1.199   3.533  0.2596 -0.2782 -0.3856
   9523SM   H6S12813   1.342   1.089   3.545 -1.2396  0.0169  2.0184
   9523SM   H6T12814   1.251   1.249   3.552  1.0139  1.0127  0.1568
   9523SM   C7S12815   1.447   1.239   3.653  0.9274  0.6314  0.4483
   9523SM   H7S12816   1.471   1.347   3.656  0.6768  0.6993  0.1426
   9523SM   H7T12817   1.537   1.176   3.637 -1.0229 -1.6441 -3.2303
   9523SM   C8S12818   1.396   1.205   3.792 -0.3790  0.1808  0.4632
   9523SM   H8S12819   1.391   1.095   3.796 -3.6881  0.2271  0.3952
   9523SM   H8T12820   1.293   1.240   3.815 -0.0937  1.1821  0.2781
   9523SM   C9S12821   1.490   1.239   3.906 -0.2428 -0.6979  0.4035
   9523SM   H9S12822   1.501   1.350   3.909 -2.6084 -0.4062  0.2880
   9523SM   H9T12823   1.592   1.199   3.888  0.4307  0.1937  1.9890
   9523SM  C10S12824   1.430   1.188   4.035  0.9159  0.7994 -0.8114
   9523SM  H10S12825   1.423   1.078   4.019  1.5416  0.6860 -0.3614
   9523SM  H10T12826   1.323   1.214   4.049  0.1397 -1.5462 -1.8536
   9523SM  C11S12827   1.509   1.229   4.157 -0.4763  0.0452  0.6396
   9523SM  H11S12828   1.527   1.339   4.153 -1.3021  0.1275 -1.9425
   9523SM  H11T12829   1.607   1.184   4.130  1.3209  2.2289  2.9858
   9523SM  C12S12830   1.452   1.186   4.295  0.4053  0.8477  0.0189
   9523SM  H12S12831   1.408   1.084   4.286  1.8645  0.3357 -2.3162
   9523SM  H12T12832   1.372   1.260   4.314  1.2743  1.6089  0.7895
   9523SM  C13S12833   1.557   1.200   4.409  0.2471  0.4011 -0.7651
   9523SM  H13S12834   1.497   1.210   4.502 -1.1023  2.3503 -1.7870
   9523SM  H13T12835   1.603   1.301   4.396  1.1812 -0.0538 -1.0682
   9523SM  C14S12836   1.671   1.095   4.415  0.5252 -0.0507 -0.7639
   9523SM  H14S12837   1.726   1.090   4.319  1.3124  0.7047 -0.3687
   9523SM  H14T12838   1.625   0.997   4.441  0.3161  0.1849 -0.2301
   9523SM  C15S12839   1.766   1.137   4.528  0.5430 -0.1943  0.1443
   9523SM  H15S12840   1.721   1.113   4.627  1.2039 -1.8166  0.0706
   9523SM  H15T12841   1.780   1.247   4.541  2.6257 -0.6506  2.3311
   9523SM  C16S12842   1.903   1.059   4.533 -0.1058  0.0652 -0.1521
   9523SM  H16S12843   1.978   1.130   4.491  1.4281 -0.6214  1.3176
   9523SM  H16T12844   1.881   0.976   4.463  0.0498 -1.0863  1.1215
   9523SM  C17S12845   1.930   0.997   4.673 -0.7784  0.2992 -0.9627
   9523SM  H17S12846   1.842   0.941   4.711  0.2837 -0.0609  1.1214
   9523SM  H17T12847   1.954   1.075   4.748  1.4675 -0.2920 -0.9920
   9523SM  C18S12848   2.039   0.885   4.665  0.7706 -0.5828  0.3229
   9523SM  H18S12849   2.055   0.847   4.768  0.4309  0.4579  0.7772
   9523SM  H18T12850   2.127   0.938   4.622  0.3973 -0.2733 -0.0641
   9523SM  H18U12851   2.015   0.803   4.594  1.5370 -0.2857 -0.3046
   9523SM   C1F12852   1.659   1.686   3.439 -0.0935 -0.3120 -0.3271
   9523SM    OF12853   1.572   1.771   3.404 -0.4743 -0.0129 -0.4680
   9523SM   C2F12854   1.770   1.705   3.539  0.2154  0.3054 -0.1758
   9523SM   H2F12855   1.776   1.809   3.576 -0.7617  0.4937 -0.5039
   9523SM   H2G12856   1.864   1.686   3.484  0.8389  1.0418  0.6253
   9523SM   C3F12857   1.763   1.611   3.657  0.0386 -0.2132 -0.8461
   9523SM   H3F12858   1.861   1.626   3.707  0.3966 -1.6116 -1.0851
   9523SM   H3G12859   1.760   1.502   3.633 -2.7579 -0.3877 -0.1035
   9523SM   C4F12860   1.642   1.624   3.751  0.0640  0.0721  0.0554
   9523SM   H4F12861   1.646   1.550   3.833  0.5646  1.2710  1.1621
   9523SM   H4G12862   1.550   1.610   3.690  0.0875  0.2933 -0.0336
   9523SM   C5F12863   1.637   1.754   3.819  0.0334 -0.9422 -0.3978
   9523SM   H5F12864   1.619   1.836   3.746  0.0724 -0.5138  0.0712
   9523SM   H5G12865   1.737   1.773   3.865 -0.6042 -0.0010  0.6370
   9523SM   C6F12866   1.521   1.772   3.926 -0.4519 -0.2498 -0.1287
   9523SM   H6F12867   1.435   1.702   3.910  0.7617 -2.2083  1.3484
   9523SM   H6G12868   1.471   1.871   3.919 -2.1614 -0.9432  1.3802
   9523SM   C7F12869   1.572   1.747   4.071 -0.7802 -0.0785 -0.3801
   9523SM   H7F12870   1.660   1.809   4.097 -1.6180  1.5225 -1.1634
   9523SM   H7G12871   1.611   1.643   4.072  1.6771  0.7760 -1.2604
   9523SM   C8F12872   1.455   1.753   4.171  0.6878  0.0778  0.5601
   9523SM   H8F12873   1.379   1.675   4.149 -0.5667  1.2662  0.5272
   9523SM   H8G12874   1.405   1.851   4.154 -1.2993 -0.8671  0.6896
   9523SM   C9F12875   1.484   1.725   4.322 -0.7872 -0.5492 -0.6152
   9523SM   H9F12876   1.549   1.803   4.370 -3.5738 -0.0207  2.6622
   9523SM   H9G12877   1.538   1.629   4.332 -0.9412 -0.4085  3.5971
   9523SM  C10F12878   1.361   1.697   4.407 -0.4495 -0.7028 -1.0536
   9523SM  H10F12879   1.326   1.593   4.393  1.5217 -1.8565  1.7529
   9523SM  H10G12880   1.287   1.770   4.367  2.9070  1.4841 -3.8618
   9523SM  C11F12881   1.384   1.720   4.559 -0.0625  0.3290  0.3360
   9523SM  H11F12882   1.287   1.718   4.613 -0.3279  0.0946 -0.1467
   9523SM  H11G12883   1.429   1.822   4.564  2.0067 -0.3550 -2.0462
   9523SM  C12F12884   1.488   1.634   4.629 -0.0862  0.1656 -0.0763
   9523SM  H12F12885   1.510   1.670   4.732  2.7221 -2.9125  0.5569
   9523SM  H12G12886   1.579   1.641   4.566 -0.8039  0.8921 -1.0558
   9523SM  C13F12887   1.457   1.478   4.638 -0.2337 -0.6502 -0.3764
   9523SM  H13F12888   1.540   1.421   4.683  0.3415  1.4749  1.4160
   9523SM  H13G12889   1.448   1.441   4.533 -1.6584 -1.0765 -0.1216
   9523SM  C14F12890   1.316   1.453   4.707  0.3488  0.2507 -0.0567
   9523SM  H14F12891   1.242   1.516   4.652 -2.0071  0.3353  2.9777
   9523SM  H14G12892   1.313   1.476   4.816  0.0157 -3.8383  0.9262
   9523SM  C15F12893   1.281   1.305   4.712 -0.0115 -0.4450  0.6885
   9523SM  H15F12894   1.370   1.248   4.748  0.9827  1.0042  0.6356
   9523SM  H15G12895   1.275   1.275   4.605  2.3467 -2.9080  1.1193
   9523SM  C16F12896   1.156   1.292   4.797  0.1523 -0.5049 -0.4044
   9523SM  H16F12897   1.173   1.331   4.900  3.1153 -3.3635  0.3512
   9523SM  H16G12898   1.137   1.184   4.810 -0.6932 -0.6829 -2.6517
   9523SM  C17F12899   1.029   1.364   4.737  0.2946  0.1282  0.4277
   9523SM  H17F12900   0.991   1.315   4.645 -1.3671  3.1634 -0.6414
   9523SM  H17G12901   1.051   1.468   4.704  1.1572 -0.4089 -0.7767
   9523SM  C18F12902   0.910   1.364   4.835  0.3453  0.2136  0.3917
   9523SM  H18F12903   0.836   1.438   4.801  0.5602  1.2421  2.0629
   9523SM  H18G12904   0.938   1.379   4.942  1.8094 -1.6329  0.3311
   9523SM  C19F12905   0.837   1.227   4.843  0.7324 -0.7387 -0.8321
   9523SM  H19F12906   0.906   1.142   4.861 -0.8296 -1.6879  1.0324
   9523SM  H19G12907   0.787   1.206   4.747 -1.7095 -0.6379  0.3379
   9523SM  C20F12908   0.722   1.236   4.949 -0.1023  0.7168  0.1563
   9523SM  H20F12909   0.644   1.296   4.898  0.0528 -0.2915 -1.3282
   9523SM  H20G12910   0.755   1.281   5.045 -0.2591 -2.0341  1.6199
   9523SM  C21F12911   0.667   1.100   4.987 -0.3013 -0.1041  0.0939
   9523SM  H21F12912   0.744   1.025   5.017 -1.7442 -1.9079 -0.4831
   9523SM  H21G12913   0.616   1.054   4.900  0.9987  2.6900 -2.3078
   9523SM  C22F12914   0.553   1.097   5.092  0.4204  0.0354  0.0623
   9523SM  H22F12915   0.449   1.087   5.053 -0.7781  1.3752  2.6217
   9523SM  H22G12916   0.550   1.196   5.142 -0.3658  0.4075 -0.6869
   9523SM  C23F12917   0.575   0.998   5.207 -1.0070 -0.2204  0.6760
   9523SM  H23F12918   0.652   1.030   5.280  1.8547 -2.6439 -1.0482
   9523SM  H23G12919   0.609   0.895   5.183 -0.7283 -0.1083  0.5834
   9523SM  H23H12920   0.484   0.974   5.265 -0.8679 -0.8324  0.6551
   9623SM     N12921   3.257   5.242   2.810 -0.2821  0.2952  0.2848
   9623SM   C1512922   3.199   5.154   2.917 -0.2547 -0.1258  0.0587
   9623SM  H15A12923   3.208   5.053   2.880 -1.0852  0.0578 -0.6778
   9623SM  H15B12924   3.094   5.174   2.903 -0.0468  0.9811 -0.0386
   9623SM  H15C12925   3.250   5.170   3.011  0.0957  0.6637 -0.2594
   9623SM   C1412926   3.387   5.193   2.774  0.3484 -0.4845  0.7604
   9623SM  H14A12927   3.437   5.237   2.689  0.7394 -2.9825 -0.3987
   9623SM  H14B12928   3.376   5.090   2.742 -0.3518  0.3972 -2.1033
   9623SM  H14C12929   3.452   5.189   2.860  1.4299 -0.9634 -0.0515
   9623SM   C1312930   3.168   5.244   2.690 -0.2084 -0.4908  0.1952
   9623SM  H13A12931   3.206   5.305   2.609  2.0781 -0.6295  1.0844
   9623SM  H13B12932   3.069   5.268   2.726  0.8560  1.1548  2.2750
   9623SM  H13C12933   3.163   5.146   2.645 -1.4068 -0.7632  0.8681
   9623SM   C1212934   3.260   5.385   2.858  0.2307 -0.0245  0.0548
   9623SM  H12A12935   3.273   5.449   2.771 -2.5810 -0.3606 -0.7294
   9623SM  H12B12936   3.349   5.398   2.917 -0.0411  2.7305  0.0183
   9623SM   C1112937   3.132   5.445   2.926  0.3523 -0.9863 -0.2452
   9623SM  H11A12938   3.151   5.550   2.956 -2.3940  0.6056 -3.4279
   9623SM  H11B12939   3.085   5.400   3.016 -1.7250 -1.0615 -1.3186
   9623SM     P12940   2.882   5.498   2.856  0.1991 -0.2607  0.0212
   9623SM   O1312941   2.852   5.596   2.743 -0.8465  0.3440 -0.0550
   9623SM   O1412942   2.795   5.375   2.869  0.2608  0.0816  0.0797
   9623SM   O1112943   2.879   5.579   2.989  0.2625  0.0386  0.3714
   9623SM   O1212944   3.034   5.457   2.827  0.3969 -0.5953  0.0568
   9623SM   C1S12945   2.804   5.533   3.104 -0.3356 -0.2855 -0.2227
   9623SM   H1S12946   2.757   5.434   3.087  0.3649 -0.2838 -2.5531
   9623SM   H1T12947   2.726   5.608   3.128 -0.6974 -0.6498 -0.2620
   9623SM    NF12948   2.809   5.459   3.342 -0.1599 -0.2788  0.4182
   9623SM   HNF12949   2.791   5.523   3.417  1.5344  0.2638  0.4104
   9623SM   C2S12950   2.893   5.520   3.233 -0.6169 -0.2525 -0.6843
   9623SM   H2S12951   2.972   5.444   3.214  0.1624 -0.1238  1.7630
   9623SM   C3S12952   2.964   5.656   3.267 -0.1808 -0.5717 -0.5683
   9623SM   H3S12953   2.871   5.712   3.292 -1.5126 -1.2787 -3.4247
   9623SM    O312954   3.020   5.728   3.155  0.4212  0.1898 -0.6700
   9623SM   HO312955   2.990   5.680   3.078  0.9705  1.8419 -1.9974
   9623SM   C4S12956   3.061   5.650   3.382  0.6534 -0.2064  0.7307
   9623SM   H4S12957   3.024   5.666   3.484  0.0652  0.2285  0.4537
   9623SM   C5S12958   3.193   5.626   3.362  0.3161 -0.1668 -0.4772
   9623SM   H5S12959   3.246   5.626   3.266  0.8799  2.4620 -0.2283
   9623SM   C6S12960   3.296   5.616   3.476  0.0279  0.3095  0.7799
   9623SM   H6S12961   3.339   5.716   3.501 -0.8290  1.8148 -3.0112
   9623SM   H6T12962   3.384   5.561   3.438  0.1187  0.2723  1.0413
   9623SM   C7S12963   3.252   5.552   3.613 -0.1574  1.3052  0.4828
   9623SM   H7S12964   3.210   5.449   3.602 -0.0504  1.3938 -1.0960
   9623SM   H7T12965   3.174   5.617   3.658  0.2117  3.3107 -1.6121
   9623SM   C8S12966   3.383   5.548   3.698  0.0840 -0.0784  0.0682
   9623SM   H8S12967   3.427   5.650   3.705 -1.3199  0.5380  0.1803
   9623SM   H8T12968   3.453   5.488   3.636 -0.7006 -0.0436 -0.8905
   9623SM   C9S12969   3.358   5.467   3.826 -0.1882 -0.5733 -0.3576
   9623SM   H9S12970   3.449   5.410   3.855 -0.0721 -0.6602 -0.8741
   9623SM   H9T12971   3.294   5.384   3.789 -0.6892  0.9224 -3.1312
   9623SM  C10S12972   3.310   5.546   3.942  0.0068  0.0311  1.0151
   9623SM  H10S12973   3.332   5.484   4.032 -0.6443 -0.7708  0.6262
   9623SM  H10T12974   3.200   5.555   3.954 -0.2095 -1.1219  0.1269
   9623SM  C11S12975   3.369   5.691   3.949  0.6975 -0.2458 -0.0059
   9623SM  H11S12976   3.336   5.749   3.861  0.4116 -0.1223  0.1810
   9623SM  H11T12977   3.478   5.669   3.942  0.6389 -0.7805  0.6406
   9623SM  C12S12978   3.326   5.761   4.076 -0.0445  0.5333 -0.1783
   9623SM  H12S12979   3.336   5.689   4.160  0.0457  0.4685 -0.2443
   9623SM  H12T12980   3.219   5.784   4.058 -0.0975 -0.2007 -0.8523
   9623SM  C13S12981   3.407   5.884   4.109  0.3732  0.3757 -0.0564
   9623SM  H13S12982   3.400   5.949   4.019  1.4987 -0.2586 -0.6238
   9623SM  H13T12983   3.514   5.861   4.128  0.3034 -0.1446 -0.2679
   9623SM  C14S12984   3.358   5.964   4.228  0.3344 -0.5243  0.1954
   9623SM  H14S12985   3.247   5.977   4.229  0.2998 -0.8762  0.9024
   9623SM  H14T12986   3.402   6.066   4.228 -0.4671 -0.1682 -0.1675
   9623SM  C15S12987   3.411   5.888   4.354 -0.3684 -0.6461  0.4169
   9623SM  H15S12988   3.514   5.848   4.337 -0.6698 -0.1952 -3.3455
   9623SM  H15T12989   3.344   5.801   4.372 -0.3373 -0.5902  0.8225
   9623SM  C16S12990   3.417   5.976   4.479  0.0529  0.0595  0.4540
   9623SM  H16S12991   3.326   6.036   4.501  1.8521  2.1174  2.7580
   9623SM  H16T12992   3.499   6.050   4.467  1.3664 -1.2696  0.9218
   9623SM  C17S12993   3.452   5.898   4.610 -0.0551  0.4173 -0.0785
   9623SM  H17S12994   3.508   5.806   4.586  1.5130  1.5345 -0.8401
   9623SM  H17T12995   3.364   5.855   4.663  1.0793  0.1022  1.6330
   9623SM  C18S12996   3.531   5.987   4.715 -0.5783  0.7329 -0.0723
   9623SM  H18S12997   3.569   5.925   4.799  2.6254  0.9084 -1.2690
   9623SM  H18T12998   3.464   6.068   4.749  0.6949  2.4339 -1.4657
   9623SM  H18U12999   3.622   6.032   4.671  0.7831 -0.0610  1.7650
   9623SM   C1F13000   2.776   5.338   3.346  0.1174 -0.3136 -0.4992
   9623SM    OF13001   2.790   5.263   3.256 -0.4269  0.4177  0.1266
   9623SM   C2F13002   2.727   5.289   3.485  0.1837 -0.1229  1.6875
   9623SM   H2F13003   2.617   5.301   3.495  0.1587  0.4091  0.9262
   9623SM   H2G13004   2.775   5.354   3.561  0.9614  0.4237  0.7615
   9623SM   C3F13005   2.773   5.143   3.519 -0.3817 -0.8553  0.0630
   9623SM   H3F13006   2.745   5.073   3.437  1.4891 -1.1408 -0.3869
   9623SM   H3G13007   2.728   5.114   3.616 -0.4814 -0.5793  0.0989
   9623SM   C4F13008   2.927   5.118   3.539  0.5031 -0.5557 -0.1675
   9623SM   H4F13009   2.974   5.139   3.440 -0.2106  0.1082 -0.3751
   9623SM   H4G13010   2.954   5.015   3.569 -1.4644 -0.6314  1.5771
   9623SM   C5F13011   2.993   5.208   3.646 -0.1334 -0.0818 -0.2542
   9623SM   H5F13012   2.995   5.316   3.623 -0.8949  0.1561  0.7460
   9623SM   H5G13013   3.100   5.184   3.627  0.3269  1.5196  0.1929
   9623SM   C6F13014   2.961   5.186   3.795  0.0924  0.1888 -0.4240
   9623SM   H6F13015   3.009   5.087   3.809  0.0416  0.0486 -1.1603
   9623SM   H6G13016   2.850   5.183   3.795 -0.0185  2.4712  1.1071
   9623SM   C7F13017   3.028   5.279   3.901 -0.3280  0.4662  0.5233
   9623SM   H7F13018   2.986   5.381   3.886  2.6827  1.7564  0.1529
   9623SM   H7G13019   3.138   5.281   3.888 -0.3095 -1.9560 -0.1849
   9623SM   C8F13020   3.003   5.236   4.042 -0.0635 -1.1775 -0.4516
   9623SM   H8F13021   3.041   5.133   4.060 -1.4844 -1.4551  1.2278
   9623SM   H8G13022   2.892   5.236   4.046 -0.0681  0.8523  0.1917
   9623SM   C9F13023   3.067   5.334   4.144 -0.1222 -0.6624  0.1393
   9623SM   H9F13024   3.016   5.429   4.120 -0.2984 -0.7362  0.2143
   9623SM   H9G13025   3.176   5.352   4.129 -0.1537  3.0704  2.9858
   9623SM  C10F13026   3.041   5.279   4.287 -0.0400 -0.1301 -0.8060
   9623SM  H10F13027   3.070   5.172   4.292 -2.1093 -0.7909 -1.9241
   9623SM  H10G13028   2.938   5.293   4.326  1.0612 -0.3452  2.4939
   9623SM  C11F13029   3.124   5.353   4.397 -0.3832  0.6981 -0.4381
   9623SM  H11F13030   3.080   5.455   4.401 -0.0268  0.8195  0.8200
   9623SM  H11G13031   3.233   5.345   4.374 -0.5671 -0.5951 -0.9826
   9623SM  C12F13032   3.108   5.295   4.542 -0.1176  0.4466  0.0834
   9623SM  H12F13033   3.165   5.200   4.542  1.0844  1.1092  1.8122
   9623SM  H12G13034   3.002   5.278   4.568  0.4695  0.5192  2.7387
   9623SM  C13F13035   3.173   5.380   4.655  0.0290 -0.6576  0.3649
   9623SM  H13F13036   3.277   5.400   4.621 -0.7493  1.6202 -0.9127
   9623SM  H13G13037   3.183   5.311   4.741  1.4347  0.1497  0.8876
   9623SM  C14F13038   3.103   5.512   4.686 -0.4239 -0.3043 -0.3234
   9623SM  H14F13039   2.997   5.488   4.707 -0.1522 -1.3272 -0.0650
   9623SM  H14G13040   3.102   5.584   4.602 -2.7473 -0.5968 -0.6127
   9623SM  C15F13041   3.163   5.593   4.799 -0.1291  0.2194 -0.5840
   9623SM  H15F13042   3.264   5.626   4.766 -0.4575  2.0872  0.1278
   9623SM  H15G13043   3.167   5.532   4.892  1.0788  2.6145  1.0518
   9623SM  C16F13044   3.074   5.718   4.834 -0.4460 -0.1489  0.4801
   9623SM  H16F13045   3.072   5.781   4.742  0.9831 -1.5828 -0.5949
   9623SM  H16G13046   3.132   5.777   4.908  1.0753 -1.6835  0.5852
   9623SM  C17F13047   2.936   5.690   4.898  0.4136 -0.8487  0.5935
   9623SM  H17F13048   2.955   5.636   4.993 -1.3669 -2.8829 -0.0950
   9623SM  H17G13049   2.865   5.627   4.839 -2.4928  1.1098  1.7601
   9623SM  C18F13050   2.864   5.815   4.936 -0.0736 -0.0110  0.0927
   9623SM  H18F13051   2.931   5.879   4.998 -0.5691 -2.0246  2.9367
   9623SM  H18G13052   2.778   5.785   4.999  0.7113 -1.3270  0.5836
   9623SM  C19F13053   2.812   5.900   4.815  0.6987 -0.1373 -0.1579
   9623SM  H19F13054   2.736   5.834   4.767 -0.7895  2.8491 -2.2074
   9623SM  H19G13055   2.891   5.919   4.739 -1.2655 -1.3081 -2.6584
   9623SM  C20F13056   2.728   6.033   4.849  0.6456 -0.1242  0.2374
   9623SM  H20F13057   2.785   6.106   4.910 -0.7833  0.2917  1.1350
   9623SM  H20G13058   2.638   6.008   4.909  0.7239 -0.7513  0.1021
   9623SM  C21F13059   2.681   6.121   4.723  0.1795  0.7562 -0.6911
   9623SM  H21F13060   2.775   6.130   4.664  1.2633 -1.9390  0.4888
   9623SM  H21G13061   2.638   6.221   4.747 -2.4202 -0.7757  1.5233
   9623SM  C22F13062   2.581   6.046   4.635  0.0296  0.2190 -0.3808
   9623SM  H22F13063   2.613   5.940   4.621 -2.3497 -0.5748 -0.3168
   9623SM  H22G13064   2.597   6.095   4.537  0.6828  2.4432  0.7800
   9623SM  C23F13065   2.440   6.047   4.691 -0.3877 -0.4449  0.4618
   9623SM  H23F13066   2.372   6.015   4.608  0.4276  2.0072 -1.2567
   9623SM  H23G13067   2.410   6.149   4.721  0.4297  0.3731 -1.3444
   9623SM  H23H13068   2.418   5.980   4.776 -1.9784 -0.5781 -0.0080
   9723SM     N13069   4.953   7.029   2.589  0.6367 -0.8617  0.7077
   9723SM   C1513070   5.017   6.896   2.613  0.0822  0.0617  0.0572
   9723SM  H15A13071   5.043   6.854   2.517 -2.2777  0.9013 -1.0323
   9723SM  H15B13072   4.945   6.841   2.672 -0.8815  0.9768 -0.2324
   9723SM  H15C13073   5.109   6.903   2.669 -0.5708 -0.2244  1.1891
   9723SM   C1413074   4.943   7.099   2.722 -0.8477 -0.0770 -0.5200
   9723SM  H14A13075   4.863   7.042   2.766 -1.6740 -0.7572 -2.7562
   9723SM  H14B13076   4.914   7.203   2.722  1.3558  0.5935  0.4678
   9723SM  H14C13077   5.039   7.100   2.770 -0.4044  2.1377 -1.3551
   9723SM   C1313078   5.051   7.115   2.507  0.1601 -0.2452  0.2177
   9723SM  H13A13079   5.005   7.210   2.484 -1.0872 -0.7725  0.4816
   9723SM  H13B13080   5.081   7.077   2.411 -0.5645 -0.4773  0.0758
   9723SM  H13C13081   5.143   7.129   2.562  0.3063  1.8077 -0.4756
   9723SM   C1213082   4.824   7.021   2.510  0.0775  0.4248  0.2173
   9723SM  H12A13083   4.854   6.983   2.414 -2.6473 -1.5095  0.0293
   9723SM  H12B13084   4.772   7.114   2.491 -0.2622  0.0476 -0.7332
   9723SM   C1113085   4.714   6.921   2.568 -0.2893 -0.4970 -0.6116
   9723SM  H11A13086   4.768   6.826   2.589  0.6528  0.3093  0.7862
   9723SM  H11B13087   4.638   6.899   2.490 -1.3636  2.2665 -0.4507
   9723SM     P13088   4.559   6.857   2.759 -0.3545  0.1388 -0.1023
   9723SM   O1313089   4.452   6.827   2.667 -0.1296  0.1538  0.0961
   9723SM   O1413090   4.635   6.743   2.812  0.2007 -0.4919 -0.3636
   9723SM   O1113091   4.511   6.942   2.886 -0.4221 -0.2621 -0.2750
   9723SM   O1213092   4.652   6.966   2.693  0.0441 -0.5531  0.3264
   9723SM   C1S13093   4.378   6.910   2.940 -0.0025  0.8974  0.2330
   9723SM   H1S13094   4.346   6.807   2.916  0.6945  0.4652  1.1065
   9723SM   H1T13095   4.298   6.979   2.905 -0.6194 -0.2348 -0.6623
   9723SM    NF13096   4.266   6.857   3.149  0.1137 -0.0797  0.2091
   9723SM   HNF13097   4.193   6.922   3.172  1.0283  0.5608  1.4547
   9723SM   C2S13098   4.386   6.919   3.095  0.1306 -0.2997 -0.7850
   9723SM   H2S13099   4.475   6.859   3.122  0.4587  0.3129 -0.4803
   9723SM   C3S13100   4.404   7.064   3.141  0.0806 -0.7908  0.1435
   9723SM   H3S13101   4.327   7.127   3.092  1.0061  0.4098  0.1864
   9723SM    O313102   4.530   7.119   3.106 -1.0104  0.5561  0.2474
   9723SM   HO313103   4.562   7.046   3.051 -0.7172  0.3107  0.7348
   9723SM   C4S13104   4.387   7.072   3.298  0.3289 -0.4008 -0.4774
   9723SM   H4S13105   4.286   7.038   3.321  0.4836 -1.0662 -0.7598
   9723SM   C5S13106   4.482   7.098   3.395 -0.3279  0.3681  0.1479
   9723SM   H5S13107   4.587   7.119   3.369  0.1475 -0.9960  0.8578
   9723SM   C6S13108   4.467   7.107   3.548  1.1831 -0.5583 -0.3074
   9723SM   H6S13109   4.493   7.205   3.593  0.7241 -0.6897  0.2658
   9723SM   H6T13110   4.527   7.025   3.595  0.2455 -1.8370 -1.2600
   9723SM   C7S13111   4.325   7.063   3.608 -0.2966  0.4792  0.4344
   9723SM   H7S13112   4.309   6.959   3.574  1.3934  0.2037  0.3822
   9723SM   H7T13113   4.247   7.121   3.555 -0.0856 -1.7065 -2.4594
   9723SM   C8S13114   4.320   7.083   3.759  0.7133  0.2596 -0.2834
   9723SM   H8S13115   4.217   7.057   3.791  1.9173 -0.0935  3.8353
   9723SM   H8T13116   4.329   7.193   3.767  0.1812  0.3650 -1.0081
   9723SM   C9S13117   4.428   7.015   3.841  0.3407  0.1986  0.2632
   9723SM   H9S13118   4.525   7.059   3.808  0.2653 -0.4456 -0.8633
   9723SM   H9T13119   4.434   6.905   3.823  3.9545  0.1962  0.7011
   9723SM  C10S13120   4.415   7.019   3.996 -0.1827 -0.6452  0.6916
   9723SM  H10S13121   4.326   6.958   4.022 -0.7809  0.3176  0.9817
   9723SM  H10T13122   4.386   7.124   4.016 -2.2083 -0.8597 -0.7625
   9723SM  C11S13123   4.532   6.977   4.084  0.0680 -0.0112  0.1790
   9723SM  H11S13124   4.619   7.046   4.079  0.5379 -0.5780  0.4767
   9723SM  H11T13125   4.569   6.875   4.059  3.0487  0.9740  0.2381
   9723SM  C12S13126   4.476   6.968   4.233 -0.7109 -0.4727 -0.3699
   9723SM  H12S13127   4.388   6.899   4.240 -0.6875 -0.6743 -1.8365
   9723SM  H12T13128   4.437   7.065   4.271  1.2819  1.0522 -1.9940
   9723SM  C13S13129   4.588   6.929   4.337  0.1525 -0.5497  0.4272
   9723SM  H13S13130   4.647   7.023   4.336 -0.2721 -0.2588 -1.7208
   9723SM  H13T13131   4.652   6.841   4.313 -2.0763 -2.0783 -0.2428
   9723SM  C14S13132   4.524   6.915   4.476  0.5299  0.0804 -0.5523
   9723SM  H14S13133   4.447   6.836   4.481  1.6440 -1.1138 -1.5168
   9723SM  H14T13134   4.475   7.010   4.505 -0.3757 -0.7522  0.7530
   9723SM  C15S13135   4.617   6.862   4.587  0.4438 -0.5915  0.3680
   9723SM  H15S13136   4.576   6.879   4.689 -1.1597 -0.2700 -0.2946
   9723SM  H15T13137   4.709   6.924   4.592  1.9139 -2.4690 -1.4364
   9723SM  C16S13138   4.638   6.711   4.595  0.1342  1.2097 -0.0599
   9723SM  H16S13139   4.686   6.671   4.503 -0.7864  1.4750 -0.6810
   9723SM  H16T13140   4.539   6.661   4.597  0.8162 -0.1673  0.2963
   9723SM  C17S13141   4.714   6.655   4.715 -0.2979 -0.9813 -0.5258
   9723SM  H17S13142   4.816   6.699   4.716 -1.6682  2.5092 -0.9266
   9723SM  H17T13143   4.724   6.547   4.691  0.5294 -0.6521 -1.7445
   9723SM  C18S13144   4.631   6.669   4.843  0.1846 -0.7536  0.2668
   9723SM  H18S13145   4.680   6.615   4.926 -0.8094  1.0502  2.0999
   9723SM  H18T13146   4.527   6.631   4.839 -0.1178 -0.0979  1.4986
   9723SM  H18U13147   4.620   6.776   4.871 -0.7320 -0.4759 -1.0226
   9723SM   C1F13148   4.251   6.732   3.158 -0.3989  0.8434  0.2147
   9723SM    OF13149   4.350   6.657   3.138  0.0497 -0.2526 -0.0504
   9723SM   C2F13150   4.108   6.682   3.179 -0.6317  0.2013  0.5512
   9723SM   H2F13151   4.082   6.608   3.101 -2.3817  0.2221  1.0725
   9723SM   H2G13152   4.039   6.769   3.178 -1.6169 -0.5400 -1.3359
   9723SM   C3F13153   4.113   6.607   3.315  0.8929 -0.4406 -0.2114
   9723SM   H3F13154   4.164   6.509   3.305 -0.6517 -1.1793 -1.1118
   9723SM   H3G13155   4.011   6.590   3.355  1.4932 -0.9963  1.1088
   9723SM   C4F13156   4.191   6.683   3.425  0.6761  0.1453 -0.8767
   9723SM   H4F13157   4.136   6.778   3.443  0.0155 -0.5058  0.7334
   9723SM   H4G13158   4.299   6.702   3.406  0.6802  0.8311 -0.2074
   9723SM   C5F13159   4.176   6.598   3.561  0.1649  0.1496  0.1062
   9723SM   H5F13160   4.261   6.532   3.585  0.1017  0.0908  0.1696
   9723SM   H5G13161   4.078   6.546   3.559  1.1111 -1.9488 -4.8376
   9723SM   C6F13162   4.163   6.685   3.688  0.3150  0.1505 -0.1957
   9723SM   H6F13163   4.100   6.771   3.656  1.1313  0.1080 -2.0518
   9723SM   H6G13164   4.259   6.734   3.715 -0.0704  0.8001  0.0082
   9723SM   C7F13165   4.121   6.593   3.805 -0.3760 -0.3739  0.6345
   9723SM   H7F13166   4.182   6.500   3.805  0.1758 -0.0133  0.5378
   9723SM   H7G13167   4.013   6.565   3.807 -0.3482 -0.4300  1.5735
   9723SM   C8F13168   4.142   6.678   3.935  0.3351 -0.2182  0.2041
   9723SM   H8F13169   4.086   6.773   3.925 -1.4037 -1.0101  1.9222
   9723SM   H8G13170   4.247   6.715   3.938 -0.6669  2.7801  0.7757
   9723SM   C9F13171   4.127   6.608   4.074 -0.2132  0.0096 -0.0432
   9723SM   H9F13172   4.192   6.519   4.080 -0.6420 -0.2441  0.9719
   9723SM   H9G13173   4.026   6.561   4.081 -0.3382  0.2175 -0.3794
   9723SM  C10F13174   4.155   6.700   4.197 -0.0591  0.0465  0.0708
   9723SM  H10F13175   4.077   6.777   4.213 -0.5469 -0.2386 -0.8472
   9723SM  H10G13176   4.249   6.758   4.187  0.4052 -0.7566 -0.4041
   9723SM  C11F13177   4.174   6.607   4.318  0.2453  0.5709 -0.0999
   9723SM  H11F13178   4.271   6.560   4.291  0.5520  0.5671  0.9502
   9723SM  H11G13179   4.083   6.544   4.323 -0.2193  1.2527  0.2174
   9723SM  C12F13180   4.168   6.668   4.455 -0.2596  0.1507  0.3552
   9723SM  H12F13181   4.062   6.692   4.477 -0.8077 -1.0636 -0.8463
   9723SM  H12G13182   4.238   6.754   4.463  1.3720 -1.2134  1.6822
   9723SM  C13F13183   4.215   6.565   4.557 -0.2301  0.0830  0.6416
   9723SM  H13F13184   4.326   6.565   4.554 -0.1355  3.1603  0.8116
   9723SM  H13G13185   4.166   6.467   4.542  1.3359 -0.5680 -0.5500
   9723SM  C14F13186   4.183   6.613   4.700  0.3378 -0.0326  0.2530
   9723SM  H14F13187   4.076   6.642   4.706 -0.7022 -2.6908 -2.6118
   9723SM  H14G13188   4.245   6.704   4.717  0.4252  0.3578 -1.8641
   9723SM  C15F13189   4.202   6.504   4.801  0.0907  0.1943 -0.1171
   9723SM  H15F13190   4.310   6.494   4.827 -0.2330 -3.2648  0.2931
   9723SM  H15G13191   4.170   6.406   4.761  2.0705 -0.6927  0.3376
   9723SM  C16F13192   4.123   6.529   4.931  0.1985  0.5562  0.8620
   9723SM  H16F13193   4.016   6.549   4.909  0.1663  1.7009  1.9383
   9723SM  H16G13194   4.157   6.624   4.978 -0.4025  2.0444 -1.5211
   9723SM  C17F13195   4.145   6.412   5.033  0.0396  0.2957 -0.5548
   9723SM  H17F13196   4.253   6.387   5.045 -0.2578 -0.4583  0.6182
   9723SM  H17G13197   4.096   6.319   4.996  1.7640 -1.4493  1.3178
   9723SM  C18F13198   4.093   6.437   5.172 -0.3528 -0.3432  0.0444
   9723SM  H18F13199   3.986   6.457   5.194 -0.4659 -1.8200  1.0206
   9723SM  H18G13200   4.146   6.530   5.201  0.0303  0.0550 -1.8395
   9723SM  C19F13201   4.129   6.330   5.284 -0.1233  0.3844  0.2311
   9723SM  H19F13202   4.237   6.341   5.306 -0.3147 -1.1863  2.2539
   9723SM  H19G13203   4.110   6.226   5.248  0.1437  0.2328  0.5304
   9723SM  C20F13204   4.032   6.345   5.397 -0.4334 -0.5034 -0.1011
   9723SM  H20F13205   3.943   6.286   5.366 -0.1968 -1.0239  0.1971
   9723SM  H20G13206   3.999   6.449   5.418 -3.7247 -1.4523 -0.0235
   9723SM  C21F13207   4.079   6.281   5.529 -0.0948 -0.0102 -0.1812
   9723SM  H21F13208   4.174   6.321   5.572  0.2795 -2.9663  2.0730
   9723SM  H21G13209   4.107   6.174   5.517 -0.5652 -0.1283 -0.2422
   9723SM  C22F13210   3.965   6.296   5.640  0.2573  0.4449 -0.0166
   9723SM  H22F13211   3.869   6.266   5.594  0.3072 -0.3583  0.3837
   9723SM  H22G13212   3.955   6.403   5.667 -0.8553  0.7140 -1.4104
   9723SM  C23F13213   3.992   6.207   5.760 -0.7002 -0.3665  0.2782
   9723SM  H23F13214   3.989   6.099   5.732  0.6970 -0.1937 -0.5910
   9723SM  H23G13215   3.911   6.220   5.835  0.5953  0.6305  1.5643
   9723SM  H23H13216   4.087   6.223   5.816  0.3586 -1.5699 -1.0985
   9823SM     N13217   6.705   5.441   2.337 -0.2606  0.8481 -1.4136
   9823SM   C1513218   6.593   5.355   2.387 -0.4350 -0.3517  0.8078
   9823SM  H15A13219   6.616   5.251   2.374  0.0362 -0.4831  2.4744
   9823SM  H15B13220   6.498   5.381   2.342 -0.8496 -2.0902  0.6178
   9823SM  H15C13221   6.563   5.368   2.490 -1.3049  0.0660  0.5154
   9823SM   C1413222   6.759   5.388   2.211 -0.3394 -0.3050  0.0982
   9823SM  H14A13223   6.826   5.453   2.156 -0.0142 -0.1737  0.6374
   9823SM  H14B13224   6.680   5.379   2.139 -1.1622 -0.1812  0.9613
   9823SM  H14C13225   6.809   5.292   2.216 -1.2789 -0.7419  1.8110
   9823SM   C1313226   6.666   5.582   2.312 -0.2496 -0.1384 -0.0998
   9823SM  H13A13227   6.752   5.633   2.271 -1.2337  0.6893 -1.1803
   9823SM  H13B13228   6.639   5.636   2.402  0.8887  1.1198 -0.4841
   9823SM  H13C13229   6.582   5.580   2.245  0.6352 -0.7067 -1.2137
   9823SM   C1213230   6.818   5.443   2.444 -0.1130  0.4457  0.3275
   9823SM  H12A13231   6.893   5.513   2.411  0.3991  0.2280  1.0050
   9823SM  H12B13232   6.880   5.354   2.442  0.1412  0.6342 -0.8761
   9823SM   C1113233   6.781   5.469   2.591  0.8525  0.3051 -0.4203
   9823SM  H11A13234   6.873   5.490   2.649  1.6559 -1.8758 -0.8079
   9823SM  H11B13235   6.743   5.374   2.633  0.1217  1.2348  1.0935
   9823SM     P13236   6.581   5.605   2.702  0.1992  0.5140  0.3174
   9823SM   O1313237   6.518   5.738   2.688 -0.4530 -0.0716  0.1102
   9823SM   O1413238   6.500   5.484   2.689  0.1973  0.0470  0.5532
   9823SM   O1113239   6.635   5.603   2.850  0.0967 -0.1672 -0.2532
   9823SM   O1213240   6.703   5.589   2.605  0.6244  0.0309 -0.0877
   9823SM   C1S13241   6.761   5.656   2.887 -0.0742 -0.4813  0.2543
   9823SM   H1S13242   6.753   5.767   2.890 -1.3528 -0.5091 -1.0785
   9823SM   H1T13243   6.845   5.638   2.815  0.1656  3.4504 -0.6857
   9823SM    NF13244   6.912   5.691   3.083 -0.0813 -0.5135 -0.0951
   9823SM   HNF13245   7.006   5.656   3.082  0.3915  0.7208 -0.6055
   9823SM   C2S13246   6.817   5.608   3.023 -0.6516  0.0428 -0.3692
   9823SM   H2S13247   6.729   5.604   3.090  0.8904  1.0729  1.8702
   9823SM   C3S13248   6.871   5.456   3.011 -0.0334  0.2508  0.0012
   9823SM   H3S13249   6.950   5.448   2.933  2.4463  0.4550  2.3148
   9823SM    O313250   6.767   5.370   2.976  0.5049 -0.1320  0.3696
   9823SM   HO313251   6.715   5.430   2.922 -0.1579 -0.3883  0.6998
   9823SM   C4S13252   6.930   5.405   3.140  0.1897  0.0471  0.4221
   9823SM   H4S13253   7.037   5.378   3.134  1.1363  3.4896 -0.3696
   9823SM   C5S13254   6.855   5.383   3.252  0.4604 -0.5302 -0.8584
   9823SM   H5S13255   6.746   5.397   3.255  0.7739  2.4150 -0.0530
   9823SM   C6S13256   6.911   5.317   3.370 -0.3338  0.6153  0.0615
   9823SM   H6S13257   6.992   5.243   3.352 -0.2210  0.8081 -0.2209
   9823SM   H6T13258   6.830   5.263   3.424 -0.5196  0.5334 -0.2960
   9823SM   C7S13259   6.968   5.411   3.477  0.0694 -0.0833 -0.5256
   9823SM   H7S13260   6.961   5.372   3.581  1.4592 -0.0087 -0.3748
   9823SM   H7T13261   6.910   5.505   3.474  0.1987  0.0448  0.5944
   9823SM   C8S13262   7.120   5.443   3.466 -0.4012 -0.0984 -0.1412
   9823SM   H8S13263   7.129   5.475   3.360 -0.8756 -3.0972 -1.1851
   9823SM   H8T13264   7.177   5.349   3.487  0.7000  0.1862 -1.6482
   9823SM   C9S13265   7.174   5.558   3.553  0.1177 -0.0623  0.2080
   9823SM   H9S13266   7.279   5.562   3.518 -0.0473  1.5950 -0.2008
   9823SM   H9T13267   7.168   5.532   3.661  1.8812 -3.5504 -0.4069
   9823SM  C10S13268   7.117   5.693   3.519  0.6566 -0.1594  0.5369
   9823SM  H10S13269   7.006   5.690   3.530  0.6970 -1.9925  0.7711
   9823SM  H10T13270   7.140   5.720   3.414  1.6433 -1.7051  0.3350
   9823SM  C11S13271   7.165   5.802   3.610  0.2927 -1.1345  0.1565
   9823SM  H11S13272   7.274   5.821   3.601  0.0120  1.8169  1.7592
   9823SM  H11T13273   7.147   5.784   3.718  1.6679  1.8276  0.9806
   9823SM  C12S13274   7.096   5.937   3.596  0.1535 -0.1265 -0.2646
   9823SM  H12S13275   6.989   5.908   3.598  0.5210 -1.5755  0.9966
   9823SM  H12T13276   7.115   5.991   3.501 -2.3487  0.5516 -0.4464
   9823SM  C13S13277   7.124   6.030   3.722 -0.5050  0.6059 -0.0686
   9823SM  H13S13278   7.104   5.976   3.818  2.6202 -3.3099 -1.3482
   9823SM  H13T13279   7.059   6.119   3.709 -0.8889  0.1885 -1.1178
   9823SM  C14S13280   7.267   6.083   3.740 -0.8645  0.3060 -0.8454
   9823SM  H14S13281   7.320   6.138   3.660  0.5229  2.5563  1.4506
   9823SM  H14T13282   7.340   6.001   3.753  0.0193  1.0483 -1.0371
   9823SM  C15S13283   7.265   6.170   3.872  0.1650 -0.6142  0.7301
   9823SM  H15S13284   7.171   6.143   3.924 -0.4094  0.4441  0.2730
   9823SM  H15T13285   7.248   6.276   3.845 -0.1908 -0.8546 -0.0489
   9823SM  C16S13286   7.393   6.167   3.948 -0.3325  0.4372 -0.2583
   9823SM  H16S13287   7.473   6.192   3.874  0.2840  1.5178  0.7491
   9823SM  H16T13288   7.416   6.061   3.969 -0.3995  0.6211  0.7535
   9823SM  C17S13289   7.393   6.239   4.078 -0.4562  0.3880  0.1216
   9823SM  H17S13290   7.405   6.348   4.061  3.3217 -0.0095 -0.6845
   9823SM  H17T13291   7.481   6.220   4.143 -2.0312 -0.5567  2.1041
   9823SM  C18S13292   7.256   6.209   4.150 -0.2916 -0.1863  0.5990
   9823SM  H18S13293   7.248   6.250   4.253  0.9912 -0.1969  0.7220
   9823SM  H18T13294   7.244   6.098   4.154 -3.1630 -0.0499 -1.1481
   9823SM  H18U13295   7.175   6.258   4.091  1.3027  0.9106 -0.7705
   9823SM   C1F13296   6.882   5.811   3.117  0.0969 -0.0909  0.4732
   9823SM    OF13297   6.769   5.851   3.128 -0.1040  0.6457  0.1517
   9823SM   C2F13298   6.990   5.898   3.153 -0.1471 -0.4664 -1.2638
   9823SM   H2F13299   7.069   5.893   3.074 -0.5328  1.9682 -1.8828
   9823SM   H2G13300   7.035   5.852   3.244 -1.2679  1.6364  0.4492
   9823SM   C3F13301   6.943   6.044   3.180  0.4347 -0.2328  0.1119
   9823SM   H3F13302   6.872   6.079   3.102 -0.9083 -1.0777  0.9177
   9823SM   H3G13303   7.026   6.117   3.170 -0.0122  0.3978  0.9126
   9823SM   C4F13304   6.883   6.072   3.321 -0.0036 -0.2598 -0.3470
   9823SM   H4F13305   6.943   6.010   3.392  3.2983  2.3442 -0.6124
   9823SM   H4G13306   6.777   6.042   3.333  0.5824 -1.7682  1.6178
   9823SM   C5F13307   6.894   6.217   3.364  0.0893 -0.9393 -0.6017
   9823SM   H5F13308   6.841   6.275   3.286  0.9247  2.8770  1.4203
   9823SM   H5G13309   7.000   6.244   3.378 -0.1165 -0.7224  0.7187
   9823SM   C6F13310   6.818   6.244   3.498 -0.0706 -0.0574  0.1648
   9823SM   H6F13311   6.855   6.166   3.568  0.7737 -1.2831 -1.5818
   9823SM   H6G13312   6.707   6.232   3.490  0.0293  0.0819 -1.7475
   9823SM   C7F13313   6.856   6.382   3.554 -0.2401  0.2838 -0.5800
   9823SM   H7F13314   6.779   6.456   3.524 -1.9334 -0.8259  0.8407
   9823SM   H7G13315   6.954   6.423   3.523  1.9061 -1.8434  2.7481
   9823SM   C8F13316   6.852   6.385   3.708 -0.1323 -0.5724  0.9421
   9823SM   H8F13317   6.897   6.483   3.737  0.1282 -0.8889  1.6363
   9823SM   H8G13318   6.932   6.316   3.742  0.3686 -1.1529 -1.2398
   9823SM   C9F13319   6.717   6.351   3.767 -0.6264 -0.5612  0.3769
   9823SM   H9F13320   6.690   6.253   3.721  1.2704 -1.9400  2.0543
   9823SM   H9G13321   6.643   6.425   3.728  0.5841  1.8382  2.3965
   9823SM  C10F13322   6.710   6.348   3.919 -0.2882  0.5083 -0.2215
   9823SM  H10F13323   6.606   6.336   3.956 -0.0498  0.7330  0.5333
   9823SM  H10G13324   6.746   6.442   3.966 -1.3576 -0.5417  2.9764
   9823SM  C11F13325   6.784   6.226   3.977  0.4138 -0.4326  0.6154
   9823SM  H11F13326   6.886   6.224   3.933  1.5419  1.9368  2.8334
   9823SM  H11G13327   6.729   6.136   3.941  1.3449 -0.9995  0.5879
   9823SM  C12F13328   6.784   6.225   4.123  0.3555 -0.2885 -0.4855
   9823SM  H12F13329   6.679   6.223   4.159 -0.3295  0.1810 -2.3712
   9823SM  H12G13330   6.830   6.319   4.161  0.3382 -0.5755  0.2755
   9823SM  C13F13331   6.872   6.121   4.192 -0.1480 -0.1758  0.1862
   9823SM  H13F13332   6.978   6.156   4.187 -0.0411 -0.5070  0.1081
   9823SM  H13G13333   6.854   6.031   4.130  1.1781 -0.8309  0.7140
   9823SM  C14F13334   6.824   6.088   4.338  0.4570  0.5806  0.7374
   9823SM  H14F13335   6.888   6.015   4.392  0.0166  1.0265  1.9070
   9823SM  H14G13336   6.722   6.043   4.332  1.0680 -0.6475 -1.5750
   9823SM  C15F13337   6.830   6.209   4.429  0.0851 -0.6066  0.5195
   9823SM  H15F13338   6.788   6.299   4.379  0.4493 -1.2639 -1.0098
   9823SM  H15G13339   6.935   6.244   4.440 -0.3325  0.5709  0.8649
   9823SM  C16F13340   6.774   6.194   4.570  0.2377 -1.0226  0.4851
   9823SM  H16F13341   6.678   6.139   4.568  0.0284 -0.6419 -0.7493
   9823SM  H16G13342   6.748   6.285   4.627  0.0457 -1.0061  0.3722
   9823SM  C17F13343   6.880   6.122   4.664  0.1125  0.3701  0.5524
   9823SM  H17F13344   6.968   6.189   4.662  0.0411  0.4456 -0.6133
   9823SM  H17G13345   6.907   6.023   4.620 -1.8773 -0.1713  0.4483
   9823SM  C18F13346   6.826   6.095   4.802 -0.2957  0.8560  0.2776
   9823SM  H18F13347   6.746   6.019   4.788  1.5653 -1.2369  0.4483
   9823SM  H18G13348   6.784   6.191   4.839  0.2321  0.7300  1.2286
   9823SM  C19F13349   6.910   6.047   4.911 -0.6560  0.7078  0.0800
   9823SM  H19F13350   6.964   5.954   4.882 -1.2981  0.4219 -0.1918
   9823SM  H19G13351   6.853   6.017   5.002 -1.1476 -0.8146 -0.7069
   9823SM  C20F13352   7.011   6.150   4.949 -0.3378  0.0322 -0.1718
   9823SM  H20F13353   6.954   6.243   4.965 -1.0474 -0.6598  1.4688
   9823SM  H20G13354   7.088   6.165   4.869  0.0197  4.2398  0.7390
   9823SM  C21F13355   7.078   6.111   5.083 -0.4546 -0.9286 -0.0629
   9823SM  H21F13356   7.124   6.011   5.067 -1.7009 -1.3499 -1.2199
   9823SM  H21G13357   7.009   6.097   5.170 -2.0611 -0.8100 -1.2667
   9823SM  C22F13358   7.191   6.205   5.129  0.1363  0.7269 -0.2966
   9823SM  H22F13359   7.156   6.310   5.134  0.6739  0.8661  1.3929
   9823SM  H22G13360   7.271   6.209   5.052  0.3716  1.1172 -0.0391
   9823SM  C23F13361   7.240   6.167   5.273  0.2798 -0.7184  0.6240
   9823SM  H23F13362   7.260   6.057   5.279 -2.2600 -1.1930  1.9753
   9823SM  H23G13363   7.158   6.179   5.348 -2.3411 -1.7153 -1.8934
   9823SM  H23H13364   7.335   6.221   5.293  0.3987 -0.5458 -0.3596
   9923SM     N13365   7.133   6.839   2.365  0.2978 -0.3099  0.2991
   9923SM   C1513366   7.074   6.750   2.470 -0.4815  0.5656  0.0190
   9923SM  H15A13367   6.981   6.704   2.442  0.8895 -1.2882 -1.7564
   9923SM  H15B13368   7.057   6.815   2.555 -1.1946  2.1509 -1.2618
   9923SM  H15C13369   7.136   6.666   2.496  0.3177  1.3673  0.8131
   9923SM   C1413370   7.164   6.760   2.244  0.1216  0.9114  0.7661
   9923SM  H14A13371   7.172   6.816   2.152  3.0625  0.0690  0.4098
   9923SM  H14B13372   7.091   6.681   2.237 -0.2766  1.3402 -0.1092
   9923SM  H14C13373   7.262   6.717   2.248  0.8476  2.5376  1.7810
   9923SM   C1313374   7.029   6.947   2.332 -0.4288 -0.2395 -0.2885
   9923SM  H13A13375   7.011   7.011   2.417 -2.8285 -1.1958  0.0135
   9923SM  H13B13376   6.935   6.915   2.290  0.0823 -0.8335 -1.0045
   9923SM  H13C13377   7.059   7.002   2.244  0.5885  1.3210  0.9726
   9923SM   C1213378   7.265   6.897   2.412 -0.1988 -0.4291 -0.0447
   9923SM  H12A13379   7.308   6.956   2.331  0.3775  0.0902  0.6276
   9923SM  H12B13380   7.333   6.814   2.420  1.4013  0.8201 -0.0975
   9923SM   C1113381   7.269   6.973   2.555  0.5713 -0.0734  0.6560
   9923SM  H11A13382   7.199   7.058   2.567  0.7694  0.2684 -0.4788
   9923SM  H11B13383   7.364   7.030   2.566 -0.1214  1.1121  0.6816
   9923SM     P13384   7.345   6.787   2.713 -0.1818  0.1304 -0.3528
   9923SM   O1313385   7.282   6.693   2.807 -0.3195  0.3789  0.0813
   9923SM   O1413386   7.434   6.735   2.608  0.1419  0.3633 -0.1567
   9923SM   O1113387   7.425   6.882   2.809 -0.2304  0.1747 -0.1053
   9923SM   O1213388   7.231   6.882   2.665 -0.1545 -0.1196  0.2189
   9923SM   C1S13389   7.358   6.991   2.883 -0.7058 -0.8096  0.8520
   9923SM   H1S13390   7.248   6.983   2.888 -0.8928  0.0631 -1.0745
   9923SM   H1T13391   7.390   7.084   2.830  0.3943 -3.6919 -4.2528
   9923SM    NF13392   7.353   7.107   3.106 -0.3373  0.1335 -0.3887
   9923SM   HNF13393   7.404   7.183   3.146 -2.9767  1.7005  0.2907
   9923SM   C2S13394   7.414   7.000   3.029 -0.2785 -1.1502  0.1410
   9923SM   H2S13395   7.381   6.900   3.063 -1.3209 -1.0606 -0.5524
   9923SM   C3S13396   7.566   7.005   3.042  0.0370  0.6372  0.0036
   9923SM   H3S13397   7.604   7.101   3.001  2.7136 -0.5693 -0.5960
   9923SM    O313398   7.634   6.907   2.957 -0.3577  0.2415 -0.0515
   9923SM   HO313399   7.564   6.879   2.898  2.0984  0.9114 -3.6202
   9923SM   C4S13400   7.610   6.989   3.187  0.0885 -0.1640  0.1675
   9923SM   H4S13401   7.586   6.891   3.230  1.9249 -1.6610 -1.9878
   9923SM   C5S13402   7.665   7.091   3.263 -0.3066 -0.3533 -0.7441
   9923SM   H5S13403   7.689   7.187   3.216 -1.0739 -1.5991 -3.9963
   9923SM   C6S13404   7.703   7.083   3.410  0.5009 -0.1044 -0.0042
   9923SM   H6S13405   7.611   7.089   3.472  2.2952 -0.2161  2.8659
   9923SM   H6T13406   7.773   7.167   3.431  2.1511 -1.2396 -0.6865
   9923SM   C7S13407   7.770   6.948   3.460 -0.1824  0.5552  0.0543
   9923SM   H7S13408   7.708   6.864   3.421 -0.7107  0.8740  0.1927
   9923SM   H7T13409   7.774   6.947   3.571 -0.2638  0.3483  0.0552
   9923SM   C8S13410   7.916   6.929   3.399  0.2864 -0.1094 -0.3469
   9923SM   H8S13411   7.981   7.003   3.450 -0.7587 -1.1295  2.6965
   9923SM   H8T13412   7.910   6.942   3.289  0.3142 -2.8309 -0.7499
   9923SM   C9S13413   7.969   6.789   3.427  0.3364  0.2530  0.5156
   9923SM   H9S13414   8.072   6.781   3.384  0.9375  2.8944  1.2768
   9923SM   H9T13415   7.903   6.725   3.364 -0.4262  2.1957 -0.7398
   9923SM  C10S13416   7.977   6.731   3.569  0.5528 -0.4659 -0.1984
   9923SM  H10S13417   7.973   6.620   3.571 -0.6398 -0.4340 -0.0988
   9923SM  H10T13418   7.891   6.767   3.628 -0.7046 -1.8246 -1.1364
   9923SM  C11S13419   8.113   6.753   3.639 -0.4499 -0.0328 -0.3688
   9923SM  H11S13420   8.125   6.863   3.649  1.0677 -0.3623  2.4427
   9923SM  H11T13421   8.190   6.710   3.572 -1.2883 -0.8552 -0.8287
   9923SM  C12S13422   8.121   6.674   3.770  0.3445  0.9579 -0.2241
   9923SM  H12S13423   8.135   6.566   3.747  0.8617  1.3700 -2.0825
   9923SM  H12T13424   8.026   6.684   3.826 -0.8249  0.6189 -2.0325
   9923SM  C13S13425   8.229   6.702   3.873  0.0839 -0.2130 -0.0746
   9923SM  H13S13426   8.319   6.663   3.821  0.9870  0.6860  0.7663
   9923SM  H13T13427   8.213   6.633   3.959  2.1185 -2.8002 -1.6273
   9923SM  C14S13428   8.246   6.846   3.917  0.6097  0.0086 -0.2065
   9923SM  H14S13429   8.277   6.908   3.830 -1.0889  0.6657 -0.3943
   9923SM  H14T13430   8.320   6.863   3.998 -0.7880 -3.5123  2.0687
   9923SM  C15S13431   8.115   6.910   3.967  0.4622 -0.2270  0.4735
   9923SM  H15S13432   8.039   6.920   3.887 -0.1995  0.2342  1.1551
   9923SM  H15T13433   8.130   7.008   4.017 -0.7735 -0.5917  1.6195
   9923SM  C16S13434   8.057   6.819   4.085 -0.2708 -0.3778 -0.1083
   9923SM  H16S13435   8.143   6.767   4.133 -2.1873 -1.4773  2.3845
   9923SM  H16T13436   7.991   6.741   4.040  0.5670  0.2575 -2.6095
   9923SM  C17S13437   7.974   6.893   4.189 -0.3909 -0.3437 -0.7699
   9923SM  H17S13438   7.896   6.957   4.143 -1.2009  0.9755  2.2004
   9923SM  H17T13439   8.035   6.951   4.262  0.7306 -1.0605 -1.1154
   9923SM  C18S13440   7.899   6.793   4.280 -0.0998  0.5054 -0.2635
   9923SM  H18S13441   7.832   6.733   4.216  1.4209 -0.1301 -1.3322
   9923SM  H18T13442   7.843   6.849   4.358 -0.6574 -0.6887  0.2150
   9923SM  H18U13443   7.967   6.723   4.333 -1.6341  1.4123  3.1808
   9923SM   C1F13444   7.225   7.110   3.125 -0.4024 -0.0907 -0.7388
   9923SM    OF13445   7.167   7.001   3.116  0.2592 -0.7995  0.1509
   9923SM   C2F13446   7.163   7.242   3.153  0.6040  0.0573 -0.3931
   9923SM   H2F13447   7.070   7.253   3.094 -1.0006 -1.2078  1.7487
   9923SM   H2G13448   7.230   7.324   3.120 -2.6810  2.4767 -1.6055
   9923SM   C3F13449   7.129   7.258   3.301 -0.3669 -0.5119 -0.4849
   9923SM   H3F13450   7.057   7.175   3.318 -0.4760 -0.2686  0.2514
   9923SM   H3G13451   7.071   7.351   3.319  1.4730  0.5359  0.3356
   9923SM   C4F13452   7.247   7.247   3.397  0.4266  0.6642 -0.1100
   9923SM   H4F13453   7.319   7.328   3.371 -0.6388  2.0415  1.0053
   9923SM   H4G13454   7.303   7.153   3.379 -1.2833 -0.4137 -0.0183
   9923SM   C5F13455   7.214   7.263   3.541 -0.2607  0.1375 -0.5054
   9923SM   H5F13456   7.158   7.177   3.583  0.9891 -0.5078 -0.1100
   9923SM   H5G13457   7.144   7.349   3.551  2.1404  2.1042  0.1797
   9923SM   C6F13458   7.328   7.310   3.622 -0.1959  0.2728 -0.0512
   9923SM   H6F13459   7.365   7.411   3.594 -1.6085  0.6366 -0.6979
   9923SM   H6G13460   7.405   7.230   3.624 -1.0154 -0.5261  1.1105
   9923SM   C7F13461   7.288   7.313   3.775 -0.3276 -0.0734  0.7154
   9923SM   H7F13462   7.246   7.213   3.800 -1.9755  0.6030  0.7360
   9923SM   H7G13463   7.207   7.389   3.774  0.6072  1.0108  2.1452
   9923SM   C8F13464   7.393   7.353   3.878 -0.3092 -0.2539  0.0836
   9923SM   H8F13465   7.428   7.456   3.855  1.0394 -1.1158 -1.9683
   9923SM   H8G13466   7.465   7.269   3.867  0.0001 -0.2380  1.7000
   9923SM   C9F13467   7.326   7.346   4.013  0.6839 -0.1224 -0.6006
   9923SM   H9F13468   7.275   7.250   4.035 -0.0327  0.8942  2.6914
   9923SM   H9G13469   7.249   7.426   4.015  0.6634 -0.1555  0.9006
   9923SM  C10F13470   7.431   7.373   4.131 -0.0569  0.5193  0.5231
   9923SM  H10F13471   7.501   7.454   4.100 -0.9970  1.1083 -0.1192
   9923SM  H10G13472   7.498   7.284   4.126 -0.0647  0.5836 -1.5481
   9923SM  C11F13473   7.364   7.407   4.264 -0.2984 -0.1945  0.4992
   9923SM  H11F13474   7.293   7.323   4.280  0.2093 -0.6118  0.6186
   9923SM  H11G13475   7.306   7.500   4.245  0.0479 -0.3173 -1.4221
   9923SM  C12F13476   7.450   7.440   4.382  0.8526 -0.1247 -0.2748
   9923SM  H12F13477   7.520   7.524   4.361  1.0595  0.6986  3.0667
   9923SM  H12G13478   7.520   7.364   4.423  1.7072  2.1956  2.9341
   9923SM  C13F13479   7.357   7.495   4.496 -0.6212 -0.1437  0.9940
   9923SM  H13F13480   7.304   7.410   4.545 -1.6339 -0.0790  0.0353
   9923SM  H13G13481   7.290   7.568   4.447  0.6799  1.0007  0.8490
   9923SM  C14F13482   7.447   7.576   4.600  0.2648  0.7187  0.3623
   9923SM  H14F13483   7.518   7.646   4.549  0.9616 -1.1953 -1.4606
   9923SM  H14G13484   7.509   7.503   4.657 -0.5565 -0.3521 -0.0811
   9923SM  C15F13485   7.372   7.660   4.709  0.6895 -0.3751  0.5888
   9923SM  H15F13486   7.446   7.696   4.784 -0.9374 -0.6252  2.3854
   9923SM  H15G13487   7.306   7.588   4.761  0.4850  0.5865  1.7036
   9923SM  C16F13488   7.291   7.779   4.654  0.3999  0.0922 -0.1073
   9923SM  H16F13489   7.204   7.725   4.611  0.1820  1.0311 -0.8818
   9923SM  H16G13490   7.335   7.826   4.563  0.5397 -1.6150 -0.9587
   9923SM  C17F13491   7.247   7.873   4.765  0.5854 -0.2024  0.8502
   9923SM  H17F13492   7.336   7.934   4.787  0.6593 -0.3156  0.8679
   9923SM  H17G13493   7.233   7.814   4.859 -1.0652  0.1917  0.8854
   9923SM  C18F13494   7.115   7.958   4.747  1.0802 -0.5607  0.4877
   9923SM  H18F13495   7.031   7.886   4.750  0.2980  0.3642  1.6771
   9923SM  H18G13496   7.128   8.002   4.646  0.6497  0.5215  0.8915
   9923SM  C19F13497   7.093   8.069   4.852  0.5463  0.0219  0.0938
   9923SM  H19F13498   7.094   8.173   4.813 -1.3898 -0.0660 -0.3058
   9923SM  H19G13499   7.184   8.056   4.914  0.6750 -1.7480 -0.4111
   9923SM  C20F13500   6.963   8.050   4.926 -0.1715  1.0418  0.3293
   9923SM  H20F13501   6.873   8.048   4.860 -0.4247 -0.8875  0.6777
   9923SM  H20G13502   6.943   8.136   4.994 -0.3772  0.2342  1.3129
   9923SM  C21F13503   6.961   7.926   5.020 -0.2727  0.5457  0.6702
   9923SM  H21F13504   7.048   7.944   5.087 -0.8563  1.1513  1.2795
   9923SM  H21G13505   6.993   7.835   4.965  0.0741  0.5195  0.9056
   9923SM  C22F13506   6.828   7.905   5.094 -0.2575  0.4305 -0.4231
   9923SM  H22F13507   6.748   7.855   5.036  0.6419  1.6986 -2.8735
   9923SM  H22G13508   6.787   8.003   5.125 -0.6550 -0.5925  2.6790
   9923SM  C23F13509   6.859   7.825   5.221  0.0695 -0.9612 -0.4586
   9923SM  H23F13510   6.902   7.724   5.205 -0.7352 -1.3845  0.0162
   9923SM  H23G13511   6.767   7.809   5.281 -0.5806 -0.4117 -1.2984
   9923SM  H23H13512   6.917   7.890   5.290 -2.6212  0.3742  0.6874
  10023SM     N13513   7.515   7.458   2.386 -1.3598  0.1986  0.9266
  10023SM   C1513514   7.393   7.501   2.314  0.2351  0.2400  0.4016
  10023SM  H15A13515   7.312   7.440   2.351  1.0818 -1.1012  0.1249
  10023SM  H15B13516   7.405   7.488   2.207 -0.4610  1.7576  0.1092
  10023SM  H15C13517   7.366   7.604   2.329 -0.0572  0.4818 -1.5293
  10023SM   C1413518   7.543   7.313   2.362 -0.2912  0.5305 -0.0337
  10023SM  H14A13519   7.639   7.294   2.408 -0.5925 -0.8843  0.0351
  10023SM  H14B13520   7.543   7.289   2.256 -1.3373 -1.2455  0.3326
  10023SM  H14C13521   7.468   7.253   2.411 -1.9883  2.8258  0.3509
  10023SM   C1313522   7.632   7.533   2.335 -0.6305 -0.2885 -0.1751
  10023SM  H13A13523   7.724   7.504   2.383  0.0157 -1.4794 -2.0231
  10023SM  H13B13524   7.621   7.641   2.343 -0.7271 -0.3250  0.2179
  10023SM  H13C13525   7.661   7.523   2.231  0.4177  1.0400 -0.0403
  10023SM   C1213526   7.501   7.487   2.533  1.2426 -0.2240 -0.1011
  10023SM  H12A13527   7.487   7.594   2.546 -0.0273 -0.3929  0.0637
  10023SM  H12B13528   7.593   7.456   2.578  1.2419  0.6184  0.5179
  10023SM   C1113529   7.382   7.420   2.611 -0.3577 -0.2053  0.3457
  10023SM  H11A13530   7.381   7.310   2.595 -0.6931 -0.6069  2.8327
  10023SM  H11B13531   7.286   7.459   2.570  1.1036  2.6151 -0.6496
  10023SM     P13532   7.282   7.518   2.835  0.0033 -0.2782 -0.2752
  10023SM   O1313533   7.244   7.645   2.760  0.2327  0.4289 -0.4521
  10023SM   O1413534   7.176   7.417   2.862 -0.4060  0.6543  0.1328
  10023SM   O1113535   7.342   7.569   2.978 -0.4938  0.1100  0.0813
  10023SM   O1213536   7.401   7.440   2.751 -0.3018 -0.6574 -0.2305
  10023SM   C1S13537   7.485   7.609   2.966  0.0488  0.5041 -0.2095
  10023SM   H1S13538   7.491   7.710   2.920  1.5435  0.1193 -0.9246
  10023SM   H1T13539   7.554   7.547   2.907 -1.1835 -0.8654 -0.2644
  10023SM    NF13540   7.668   7.688   3.115 -0.3135  0.0969 -0.2114
  10023SM   HNF13541   7.751   7.635   3.106 -1.3562 -2.4676  3.1109
  10023SM   C2S13542   7.553   7.604   3.111 -0.1962 -0.1627  0.0190
  10023SM   H2S13543   7.481   7.643   3.185  0.9871 -0.2067  1.2366
  10023SM   C3S13544   7.588   7.466   3.157 -0.2713  0.3721  0.2857
  10023SM   H3S13545   7.669   7.420   3.096  1.0378 -0.2443  2.3852
  10023SM    O313546   7.480   7.370   3.138 -0.0595  0.2264 -0.1497
  10023SM   HO313547   7.415   7.427   3.096  0.4465  0.0872 -1.1537
  10023SM   C4S13548   7.641   7.458   3.296 -0.4919 -0.3411 -0.5944
  10023SM   H4S13549   7.747   7.428   3.301 -0.6405 -0.9328 -0.9079
  10023SM   C5S13550   7.575   7.469   3.409 -0.5304  0.4963 -0.3059
  10023SM   H5S13551   7.468   7.497   3.408 -0.5465  0.6269  1.5262
  10023SM   C6S13552   7.634   7.478   3.546  0.0953 -0.6953  0.6518
  10023SM   H6S13553   7.743   7.483   3.526 -0.1314  2.5395 -0.2950
  10023SM   H6T13554   7.606   7.397   3.618 -0.5982 -1.0497 -0.0003
  10023SM   C7S13555   7.606   7.602   3.626 -0.6836  0.5550  0.5758
  10023SM   H7S13556   7.501   7.597   3.662 -1.8569  0.0603 -2.5960
  10023SM   H7T13557   7.603   7.696   3.567  0.6129  1.3086  1.6545
  10023SM   C8S13558   7.715   7.607   3.729  0.1870 -0.2129  0.3057
  10023SM   H8S13559   7.809   7.640   3.681  0.1886  0.1106  0.5274
  10023SM   H8T13560   7.729   7.506   3.775  0.5490  0.1699  1.0604
  10023SM   C9S13561   7.686   7.710   3.834 -0.0232 -0.2868 -0.0349
  10023SM   H9S13562   7.584   7.699   3.876  0.5426 -1.8536  1.0509
  10023SM   H9T13563   7.685   7.814   3.795 -0.6468 -0.3569 -0.2096
  10023SM  C10S13564   7.788   7.695   3.949  0.4679  0.4445  0.1386
  10023SM  H10S13565   7.891   7.709   3.910  1.1301 -0.6714  1.3757
  10023SM  H10T13566   7.775   7.592   3.989  0.5352 -0.4235 -1.9859
  10023SM  C11S13567   7.749   7.790   4.066  0.1947  0.4149  0.4486
  10023SM  H11S13568   7.685   7.876   4.038 -0.5322  0.3776  1.8612
  10023SM  H11T13569   7.838   7.839   4.113  0.3943  1.6245 -1.1031
  10023SM  C12S13570   7.675   7.711   4.184 -0.0129 -0.4086 -0.5948
  10023SM  H12S13571   7.752   7.644   4.226 -1.7038 -0.3716  2.8814
  10023SM  H12T13572   7.597   7.655   4.128 -0.3674 -0.0256 -0.4903
  10023SM  C13S13573   7.637   7.805   4.300  0.4810  1.1078  0.1639
  10023SM  H13S13574   7.737   7.835   4.338  1.6503 -0.4937 -1.4602
  10023SM  H13T13575   7.604   7.743   4.386  0.3631 -0.4041 -0.9253
  10023SM  C14S13576   7.534   7.917   4.290 -0.2379 -0.0883 -0.0743
  10023SM  H14S13577   7.435   7.870   4.307 -0.0412 -0.1583  0.9423
  10023SM  H14T13578   7.523   7.959   4.188 -0.4561  0.2320  0.0784
  10023SM  C15S13579   7.560   8.033   4.389 -0.3811  0.5703  0.5802
  10023SM  H15S13580   7.669   8.052   4.387 -0.4369  0.8538 -0.3051
  10023SM  H15T13581   7.543   7.998   4.493  0.3927  3.1831  1.6675
  10023SM  C16S13582   7.486   8.160   4.347  0.7805 -0.3887 -0.0683
  10023SM  H16S13583   7.517   8.177   4.242 -1.1760  0.1172 -0.5893
  10023SM  H16T13584   7.528   8.244   4.406  1.2283 -0.4595 -0.2808
  10023SM  C17S13585   7.338   8.163   4.383  0.2713  0.2530  0.3819
  10023SM  H17S13586   7.315   8.143   4.490  0.0332  1.4999  0.5775
  10023SM  H17T13587   7.289   8.079   4.329 -0.8428 -0.4513  2.3796
  10023SM  C18S13588   7.261   8.286   4.333 -1.0745  0.3589  0.0661
  10023SM  H18S13589   7.156   8.257   4.355 -0.0218 -3.9083  0.4207
  10023SM  H18T13590   7.278   8.304   4.225 -1.9510  2.9606  0.2884
  10023SM  H18U13591   7.287   8.378   4.390 -1.9648  1.5965 -1.4525
  10023SM   C1F13592   7.656   7.820   3.125  0.4999  0.0411  1.1285
  10023SM    OF13593   7.542   7.875   3.142 -0.0299 -0.0983 -0.3572
  10023SM   C2F13594   7.776   7.898   3.117 -0.0185 -0.4744  0.0060
  10023SM   H2F13595   7.783   7.951   3.020  2.0761  0.8159  0.7956
  10023SM   H2G13596   7.869   7.836   3.118 -1.1188 -2.4943 -3.8902
  10023SM   C3F13597   7.792   7.986   3.236  0.5208  0.0655 -0.0864
  10023SM   H3F13598   7.708   8.058   3.238  0.7668  0.6885 -4.1325
  10023SM   H3G13599   7.890   8.038   3.238 -0.3673  1.7806  0.9757
  10023SM   C4F13600   7.776   7.919   3.372 -0.0636  0.2073 -0.3834
  10023SM   H4F13601   7.831   7.822   3.374  2.4541  1.5388  0.2506
  10023SM   H4G13602   7.670   7.887   3.373  0.2100 -0.7429 -0.2142
  10023SM   C5F13603   7.814   7.990   3.507 -0.6828 -0.0639 -0.4235
  10023SM   H5F13604   7.755   7.936   3.584 -0.7329  1.2799  0.5078
  10023SM   H5G13605   7.778   8.093   3.489 -0.7515 -0.1899 -1.0564
  10023SM   C6F13606   7.967   7.999   3.521  0.2285 -0.5701  0.0741
  10023SM   H6F13607   7.982   8.077   3.598 -2.8057 -1.0217  1.2669
  10023SM   H6G13608   8.007   8.032   3.423 -0.6287  4.0599  1.0527
  10023SM   C7F13609   8.024   7.866   3.579  0.7078 -0.0240 -0.4968
  10023SM   H7F13610   8.005   7.787   3.504  1.7173  0.1672 -0.9616
  10023SM   H7G13611   7.976   7.846   3.678  1.8146 -0.6675 -0.0677
  10023SM   C8F13612   8.173   7.861   3.611 -0.3428 -0.2342 -0.0310
  10023SM   H8F13613   8.203   7.926   3.696 -1.3313  0.4025 -0.1501
  10023SM   H8G13614   8.224   7.893   3.518 -1.3742  1.7731  0.0271
  10023SM   C9F13615   8.233   7.733   3.657  0.4058  0.7087 -0.3421
  10023SM   H9F13616   8.336   7.764   3.685  0.5950 -0.1240 -0.0773
  10023SM   H9G13617   8.242   7.663   3.572 -0.4153  1.8421 -1.3882
  10023SM  C10F13618   8.176   7.656   3.779 -0.3825 -0.4591 -0.7076
  10023SM  H10F13619   8.237   7.563   3.785  0.4760  0.1551  3.6952
  10023SM  H10G13620   8.066   7.642   3.771 -0.8423  2.9604 -2.0270
  10023SM  C11F13621   8.198   7.733   3.915 -0.1799  0.2763 -0.7504
  10023SM  H11F13622   8.138   7.825   3.904 -2.4430 -1.0022  0.1945
  10023SM  H11G13623   8.303   7.765   3.931  0.0482 -0.7350 -0.1622
  10023SM  C12F13624   8.160   7.658   4.046  0.0746 -0.0205  0.2290
  10023SM  H12F13625   8.242   7.585   4.066 -3.5114 -4.5260  0.1889
  10023SM  H12G13626   8.071   7.594   4.032  1.7642 -2.1855 -1.4291
  10023SM  C13F13627   8.137   7.742   4.169 -0.1871 -0.4776 -0.2190
  10023SM  H13F13628   8.111   7.663   4.243  0.3031 -0.8593 -0.4457
  10023SM  H13G13629   8.060   7.816   4.140  0.6229 -0.4746 -2.6056
  10023SM  C14F13630   8.265   7.811   4.213 -0.2457  0.1949  0.5951
  10023SM  H14F13631   8.296   7.889   4.139 -0.5933 -1.2545 -1.1466
  10023SM  H14G13632   8.348   7.738   4.222 -0.8703 -0.6866 -0.5209
  10023SM  C15F13633   8.242   7.892   4.341  0.4030  0.8529 -0.6543
  10023SM  H15F13634   8.143   7.942   4.341 -0.1890 -0.2490  0.3488
  10023SM  H15G13635   8.316   7.971   4.363 -0.7658  2.2086 -1.3788
  10023SM  C16F13636   8.248   7.788   4.451  0.2547 -0.0259  0.3061
  10023SM  H16F13637   8.348   7.741   4.446  0.9814  1.5546 -1.3131
  10023SM  H16G13638   8.172   7.709   4.434  1.9323 -1.6378  0.0034
  10023SM  C17F13639   8.221   7.845   4.590  0.2632  0.4034 -1.2061
  10023SM  H17F13640   8.119   7.889   4.593  1.0469  2.2457  0.4339
  10023SM  H17G13641   8.289   7.933   4.597  2.8460 -1.5152 -0.7556
  10023SM  C18F13642   8.244   7.740   4.701  0.4378 -0.0446  0.6568
  10023SM  H18F13643   8.336   7.681   4.679 -0.4642 -0.3693 -2.7582
  10023SM  H18G13644   8.168   7.662   4.681  0.5894 -0.6766  2.3705
  10023SM  C19F13645   8.253   7.775   4.852  0.3633 -0.3048 -0.2303
  10023SM  H19F13646   8.350   7.829   4.861  0.2670  0.1179 -1.5610
  10023SM  H19G13647   8.266   7.683   4.913 -0.3138 -0.0697  0.2802
  10023SM  C20F13648   8.142   7.859   4.921  0.2536 -0.4976  0.7689
  10023SM  H20F13649   8.044   7.809   4.935  0.4563 -0.8561  0.9438
  10023SM  H20G13650   8.131   7.952   4.861 -0.1320 -0.9178  0.1737
  10023SM  C21F13651   8.185   7.908   5.059 -0.6840  0.3774  0.2549
  10023SM  H21F13652   8.124   7.993   5.095  0.0630  1.6848 -1.4118
  10023SM  H21G13653   8.289   7.947   5.062 -1.3695  2.3470 -0.2189
  10023SM  C22F13654   8.171   7.792   5.165  0.2153 -0.0359  0.2771
  10023SM  H22F13655   8.234   7.702   5.148 -1.0228 -0.9428  0.4231
  10023SM  H22G13656   8.065   7.760   5.157 -0.2267  0.7293  2.4131
  10023SM  C23F13657   8.206   7.843   5.309  0.2919  0.0669 -0.3234
  10023SM  H23F13658   8.175   7.949   5.322  1.3916  0.7323 -2.5330
  10023SM  H23G13659   8.317   7.837   5.317  0.4963 -2.3925 -3.2327
  10023SM  H23H13660   8.147   7.792   5.387 -1.1772  0.4044 -1.1784
  101CHL1    C313661   2.016   4.031   6.568  0.0979 -0.2910 -0.2906
  101CHL1    H313662   2.064   4.110   6.507  1.8621 -1.1871 -0.1386
  101CHL1    O313663   2.043   4.049   6.708  0.1853  0.0829 -0.0322
  101CHL1   H3'13664   2.137   4.062   6.717  0.0167  0.7748  0.9194
  101CHL1    C413665   1.866   4.041   6.545  1.4334  0.7503  0.5192
  101CHL1   H4A13666   1.800   3.970   6.599  0.9081  1.2207  0.5018
  101CHL1   H4B13667   1.835   4.141   6.581 -0.3145  0.7405 -0.8195
  101CHL1    C513668   1.833   4.031   6.397 -0.4431  0.0557  0.6293
  101CHL1    C613669   1.758   4.120   6.324 -0.0310  0.1467 -0.6582
  101CHL1    H613670   1.725   4.212   6.376 -0.2316 -0.2466 -0.0776
  101CHL1    C713671   1.715   4.110   6.187  0.5623  0.1343  0.2268
  101CHL1   H7A13672   1.606   4.123   6.204  1.0503  1.5450  2.8516
  101CHL1   H7B13673   1.774   4.181   6.126  0.9420  1.4354  2.0123
  101CHL1    C813674   1.723   3.960   6.139 -0.3650 -0.0848  0.5575
  101CHL1    H813675   1.640   3.900   6.182 -1.0199  0.3059 -0.1398
  101CHL1   C1413676   1.705   3.953   5.984  0.0215  0.1887  0.6489
  101CHL1   H1413677   1.783   4.020   5.941 -0.1896 -0.3621 -0.6233
  101CHL1   C1513678   1.571   4.001   5.921 -0.2165  0.9602 -0.7132
  101CHL1  H15A13679   1.485   3.971   5.984  0.5971  0.3460  0.1370
  101CHL1  H15B13680   1.573   4.112   5.920  1.3594  0.9641 -0.2852
  101CHL1   C1613681   1.568   3.944   5.782  0.7105 -0.8665 -0.0470
  101CHL1  H16A13682   1.475   3.884   5.771  1.1181 -1.4570 -0.2807
  101CHL1  H16B13683   1.574   4.013   5.695  2.3181 -1.9327 -0.8327
  101CHL1   C1713684   1.689   3.848   5.764  0.2782 -0.8639  0.1412
  101CHL1   H1713685   1.775   3.905   5.724  0.0738  0.4436  1.4531
  101CHL1   C1313686   1.716   3.814   5.916  0.7023 -0.2472 -0.2998
  101CHL1   C1813687   1.617   3.714   5.975 -0.7094 -0.0194 -0.2369
  101CHL1  H18A13688   1.509   3.743   5.980 -1.0381 -1.2331  0.1169
  101CHL1  H18B13689   1.619   3.616   5.922 -0.4353 -0.3671  0.4092
  101CHL1  H18C13690   1.652   3.688   6.077  0.9038 -2.1768 -1.2521
  101CHL1   C1213691   1.866   3.777   5.947 -0.0252  0.2921  0.2601
  101CHL1  H12A13692   1.886   3.675   5.907  1.6614  0.8200 -0.3611
  101CHL1  H12B13693   1.931   3.840   5.883  0.6216  0.4062  1.0113
  101CHL1   C1113694   1.900   3.777   6.092  0.3679  0.5053 -0.7227
  101CHL1  H11A13695   1.849   3.690   6.137 -0.2101 -0.4164 -3.0331
  101CHL1  H11B13696   2.009   3.758   6.101  0.4578  0.9124 -0.8909
  101CHL1    C913697   1.864   3.904   6.173 -0.3213  0.4612  0.1170
  101CHL1    H913698   1.933   3.984   6.137  0.1033  0.3406  0.6522
  101CHL1   C1013699   1.890   3.905   6.329  0.0472  0.5175 -0.0911
  101CHL1   C1913700   1.807   3.789   6.387  0.0326  0.1482  0.0853
  101CHL1  H19A13701   1.846   3.695   6.343 -0.0745  1.2363 -2.5666
  101CHL1  H19B13702   1.819   3.789   6.497 -0.4869  0.6186  0.1502
  101CHL1  H19C13703   1.700   3.783   6.358  0.1102  0.0062 -0.1734
  101CHL1    C113704   2.038   3.883   6.369  0.5892 -0.2071 -0.0258
  101CHL1   H1A13705   2.064   3.778   6.343  2.2710  0.0630  0.4124
  101CHL1   H1B13706   2.107   3.957   6.323 -1.2561  1.3815 -0.3633
  101CHL1    C213707   2.075   3.899   6.514  0.1250  0.0787  0.2344
  101CHL1   H2A13708   2.186   3.893   6.526  0.0503 -0.4932  0.7051
  101CHL1   H2B13709   2.036   3.817   6.579  2.3823 -1.0112  0.3400
  101CHL1   C2013710   1.656   3.733   5.667  0.0594  0.1114 -0.4049
  101CHL1   H2013711   1.575   3.668   5.709 -0.6967  0.0828 -1.8468
  101CHL1   C2113712   1.777   3.643   5.654 -0.0629 -0.4679  0.3175
  101CHL1  H21A13713   1.772   3.572   5.569  2.0839  1.6123 -1.6884
  101CHL1  H21B13714   1.804   3.583   5.743  0.0665  1.2834  1.5090
  101CHL1  H21C13715   1.857   3.719   5.639 -1.4795  2.3750  4.9751
  101CHL1   C2213716   1.618   3.780   5.522 -1.2678  0.3600 -0.7046
  101CHL1  H22A13717   1.564   3.877   5.525  1.3422  1.9289 -1.5426
  101CHL1  H22B13718   1.713   3.809   5.472 -0.6916 -0.1161  0.0892
  101CHL1   C2313719   1.565   3.675   5.430  0.5086 -0.1449  0.4893
  101CHL1  H23A13720   1.537   3.730   5.338  0.7646 -0.0440  0.4720
  101CHL1  H23B13721   1.639   3.604   5.389 -2.9002 -2.1059 -2.8990
  101CHL1   C2413722   1.443   3.603   5.489  0.4637  0.1606 -0.8012
  101CHL1  H24A13723   1.471   3.561   5.588  1.3509 -0.4160 -1.2813
  101CHL1  H24B13724   1.357   3.672   5.507 -0.0495 -0.9367  1.2662
  101CHL1   C2513725   1.394   3.478   5.408 -0.6111  0.2580  0.1487
  101CHL1   H2513726   1.298   3.442   5.451 -0.9218  0.5178 -0.3243
  101CHL1   C2613727   1.351   3.517   5.271 -0.1515 -0.2626  0.6967
  101CHL1  H26A13728   1.303   3.428   5.226 -1.6378  1.2324 -0.7737
  101CHL1  H26B13729   1.281   3.603   5.279  0.7571  0.4663  1.0212
  101CHL1  H26C13730   1.440   3.551   5.214  0.0397 -1.9604 -0.0513
  101CHL1   C2713731   1.507   3.378   5.422 -0.6853  0.2967 -0.0018
  101CHL1  H27A13732   1.482   3.279   5.378 -2.4531  0.8504 -0.3138
  101CHL1  H27B13733   1.599   3.413   5.371 -0.9894  0.0198 -0.7579
  101CHL1  H27C13734   1.519   3.355   5.530 -1.6328  3.1652  0.8175
  102CHL1    C313735   2.614   3.568   6.485 -0.6215 -0.0603  0.3490
  102CHL1    H313736   2.637   3.671   6.449  0.0884 -0.2559  0.2191
  102CHL1    O313737   2.668   3.568   6.615  0.3992  0.2649 -0.2537
  102CHL1   H3'13738   2.664   3.476   6.643 -0.5216 -0.0040 -1.2096
  102CHL1    C413739   2.466   3.546   6.483  0.0333  0.6427 -0.0500
  102CHL1   H4A13740   2.449   3.461   6.553 -0.8379  1.5922  0.9281
  102CHL1   H4B13741   2.414   3.625   6.542 -0.0186  0.2500  0.4395
  102CHL1    C513742   2.420   3.525   6.341  0.7630  0.4919  0.5074
  102CHL1    C613743   2.311   3.589   6.305  0.2940 -0.4738 -0.6386
  102CHL1    H613744   2.256   3.656   6.373 -1.5181 -2.1236 -0.3973
  102CHL1    C713745   2.256   3.586   6.167 -0.4058 -0.6634  0.1170
  102CHL1   H7A13746   2.145   3.578   6.169 -0.5509 -0.0132 -2.1633
  102CHL1   H7B13747   2.282   3.675   6.105 -3.2081  0.0479 -0.1445
  102CHL1    C813748   2.309   3.469   6.079 -0.2905 -0.3367 -0.6608
  102CHL1    H813749   2.256   3.382   6.124 -0.3472  1.0252  2.1353
  102CHL1   C1413750   2.272   3.496   5.934  0.0852 -0.3613  0.5497
  102CHL1   H1413751   2.323   3.590   5.904 -0.6917 -0.5407 -1.4436
  102CHL1   C1513752   2.121   3.514   5.907  0.0276 -0.6345 -0.4680
  102CHL1  H15A13753   2.055   3.430   5.939  0.4163  0.1513  2.7621
  102CHL1  H15B13754   2.089   3.619   5.926  0.4560 -0.6052  0.1086
  102CHL1   C1613755   2.119   3.490   5.749  0.0551 -0.8578  0.6701
  102CHL1  H16A13756   2.028   3.430   5.729 -1.1199  0.0612  2.9032
  102CHL1  H16B13757   2.112   3.587   5.694 -0.5497 -1.3752 -0.1843
  102CHL1   C1713758   2.259   3.428   5.707 -0.2612  0.4308 -0.0691
  102CHL1   H1713759   2.330   3.505   5.669 -1.0392  1.2308  0.0467
  102CHL1   C1313760   2.324   3.382   5.841 -0.3639  0.4863  0.1914
  102CHL1   C1813761   2.272   3.242   5.879  0.2694  0.4178 -0.0966
  102CHL1  H18A13762   2.294   3.215   5.985 -0.7289  0.2915  0.0811
  102CHL1  H18B13763   2.163   3.233   5.865  0.2372  0.9351 -0.1840
  102CHL1  H18C13764   2.321   3.157   5.827  0.7435  0.9490 -0.5345
  102CHL1   C1213765   2.479   3.394   5.846 -0.3639  0.7153 -0.1457
  102CHL1  H12A13766   2.525   3.314   5.784 -0.8140  1.9473 -2.1420
  102CHL1  H12B13767   2.507   3.497   5.815 -1.4169  1.5953  1.6602
  102CHL1   C1113768   2.536   3.376   5.985 -0.3450 -0.3299  0.2330
  102CHL1  H11A13769   2.524   3.272   6.021  0.4060  0.1522  2.0057
  102CHL1  H11B13770   2.645   3.398   5.985 -0.2106 -0.9822  0.8053
  102CHL1    C913771   2.462   3.466   6.100  0.5011  0.2855 -0.4938
  102CHL1    H913772   2.489   3.571   6.078 -1.6992  0.7181 -1.5034
  102CHL1   C1013773   2.499   3.437   6.244 -0.1992 -0.3114  0.1944
  102CHL1   C1913774   2.486   3.280   6.269 -0.1205  0.2042 -0.5179
  102CHL1  H19A13775   2.511   3.277   6.377 -2.4515  1.2522  0.1316
  102CHL1  H19B13776   2.385   3.234   6.257 -0.0963 -0.0990  0.3890
  102CHL1  H19C13777   2.561   3.226   6.207 -0.4333 -0.5182 -0.2778
  102CHL1    C113778   2.648   3.479   6.262 -0.4127  0.3977  0.0507
  102CHL1   H1A13779   2.721   3.425   6.198  0.5662  1.8640 -0.1039
  102CHL1   H1B13780   2.663   3.583   6.226 -0.4942  0.2900 -0.2960
  102CHL1    C213781   2.706   3.476   6.405  0.1945  0.1404  0.6715
  102CHL1   H2A13782   2.803   3.530   6.402 -0.1497  0.7147 -1.2429
  102CHL1   H2B13783   2.713   3.375   6.451  0.7644  0.7840  2.0585
  102CHL1   C2013784   2.240   3.320   5.598 -0.3660 -0.8124 -0.0235
  102CHL1   H2013785   2.180   3.237   5.643  1.0703 -2.0553 -0.3217
  102CHL1   C2113786   2.374   3.263   5.550 -0.0175  0.2215 -0.4248
  102CHL1  H21A13787   2.438   3.218   5.629  0.5165  0.4968 -0.6961
  102CHL1  H21B13788   2.429   3.338   5.489 -0.6755  0.8399 -0.2574
  102CHL1  H21C13789   2.353   3.179   5.480  3.0275 -1.2575  0.2512
  102CHL1   C2213790   2.176   3.395   5.478 -0.3279 -0.2721  0.4459
  102CHL1  H22A13791   2.084   3.444   5.514  0.8004  1.1083  1.5585
  102CHL1  H22B13792   2.247   3.473   5.443 -2.0016 -0.0920 -2.9557
  102CHL1   C2313793   2.135   3.320   5.344 -0.3996  0.3384 -0.6961
  102CHL1  H23A13794   2.222   3.259   5.310  0.1191 -0.0369  1.1510
  102CHL1  H23B13795   2.051   3.249   5.358 -0.4848 -0.0160 -2.7302
  102CHL1   C2413796   2.097   3.416   5.233 -0.0355 -0.7908  0.2574
  102CHL1  H24A13797   2.176   3.494   5.224 -0.1645 -0.2913  2.8397
  102CHL1  H24B13798   2.099   3.367   5.133  2.0299 -0.7657  0.2485
  102CHL1   C2513799   1.952   3.475   5.255 -0.6153 -0.4345 -0.6026
  102CHL1   H2513800   1.917   3.457   5.359  1.4740  1.7181  0.5685
  102CHL1   C2613801   1.949   3.625   5.223 -0.2359 -0.1815 -0.4801
  102CHL1  H26A13802   1.972   3.647   5.117 -1.0808 -1.3659 -0.9395
  102CHL1  H26B13803   1.850   3.667   5.250 -0.5153 -0.6932 -0.6906
  102CHL1  H26C13804   2.019   3.685   5.284 -0.7125  0.7271 -0.8180
  102CHL1   C2713805   1.855   3.407   5.155 -0.2589 -0.3944  0.0931
  102CHL1  H27A13806   1.756   3.453   5.168  0.5064  1.1620  0.6315
  102CHL1  H27B13807   1.896   3.408   5.052 -0.4530  0.1233  0.0236
  102CHL1  H27C13808   1.857   3.302   5.193  3.1976 -0.0160  1.2975
  103CHL1    C313809   2.937   3.130   6.562  0.5384  0.8954 -0.0103
  103CHL1    H313810   2.833   3.168   6.573  0.4172  0.2650  1.2709
  103CHL1    O313811   2.996   3.131   6.688 -0.3248  1.2185  0.0120
  103CHL1   H3'13812   2.965   3.210   6.733 -0.1686  0.1678  2.0662
  103CHL1    C413813   2.917   2.982   6.507 -0.3289 -0.3111 -0.2495
  103CHL1   H4A13814   3.014   2.928   6.506 -1.1240 -1.8716  1.1234
  103CHL1   H4B13815   2.855   2.929   6.583 -0.1472 -1.1406 -0.6724
  103CHL1    C513816   2.848   2.981   6.369 -0.1836 -0.4578 -0.0197
  103CHL1    C613817   2.736   2.917   6.342 -0.3192  0.5947  0.2236
  103CHL1    H613818   2.692   2.861   6.426 -0.6365  1.4796  0.6608
  103CHL1    C713819   2.662   2.918   6.209  0.1903 -0.5223  0.3012
  103CHL1   H7A13820   2.607   2.824   6.186 -1.1889 -0.8606  4.3227
  103CHL1   H7B13821   2.590   3.003   6.210  0.0982 -0.5826 -0.5102
  103CHL1    C813822   2.757   2.947   6.100 -0.0287  0.3073  0.0420
  103CHL1    H813823   2.835   2.867   6.096  2.2746  2.4119  0.8816
  103CHL1   C1413824   2.677   2.978   5.974 -0.8258  0.6738 -0.4043
  103CHL1   H1413825   2.622   3.073   5.987 -0.7803  0.7410 -0.6975
  103CHL1   C1513826   2.580   2.865   5.933  0.1258  0.0431 -0.5356
  103CHL1  H15A13827   2.615   2.760   5.937 -2.4018 -0.9447 -1.9414
  103CHL1  H15B13828   2.492   2.863   6.001 -0.2581  1.0181 -0.9813
  103CHL1   C1613829   2.557   2.896   5.782 -0.6781 -0.4965 -0.0975
  103CHL1  H16A13830   2.571   2.796   5.734 -0.8886 -0.4493 -0.2596
  103CHL1  H16B13831   2.451   2.927   5.768  0.1894  1.5936 -2.9085
  103CHL1   C1713832   2.660   2.999   5.737 -0.1317 -0.0775  0.0495
  103CHL1   H1713833   2.605   3.092   5.764 -1.8087 -1.3922  1.3573
  103CHL1   C1313834   2.765   2.994   5.849  0.1687 -0.1857  1.1795
  103CHL1   C1813835   2.854   2.870   5.824 -0.0582  0.1170 -0.4466
  103CHL1  H18A13836   2.921   2.854   5.911 -0.0177  0.0471 -0.4911
  103CHL1  H18B13837   2.799   2.777   5.799 -1.3078  0.0712  2.0738
  103CHL1  H18C13838   2.924   2.888   5.740  2.3107 -4.2882  0.3196
  103CHL1   C1213839   2.852   3.116   5.873  0.3348  0.6742  0.1480
  103CHL1  H12A13840   2.924   3.135   5.791  0.0582  0.4544 -0.1476
  103CHL1  H12B13841   2.781   3.201   5.883 -2.1878 -1.3470  0.5661
  103CHL1   C1113842   2.934   3.108   6.007 -0.4530  0.3116  0.3612
  103CHL1  H11A13843   3.017   3.039   5.982  0.1123  0.9569  0.4277
  103CHL1  H11B13844   2.971   3.211   6.028 -1.4330  0.5996  0.7752
  103CHL1    C913845   2.852   3.070   6.126  0.7749  0.1758 -0.0964
  103CHL1    H913846   2.785   3.159   6.132  0.4336 -0.1637  1.7358
  103CHL1   C1013847   2.927   3.058   6.264 -0.0972  0.4166  0.1857
  103CHL1   C1913848   3.062   2.984   6.235  0.2130 -0.0182  0.1264
  103CHL1  H19A13849   3.128   3.034   6.161  0.1091 -0.9887 -0.6585
  103CHL1  H19B13850   3.123   2.964   6.325 -1.7515  0.1311  1.5539
  103CHL1  H19C13851   3.045   2.885   6.186 -1.3898  0.1108  0.3689
  103CHL1    C113852   2.956   3.199   6.322 -0.2813 -0.0591  0.0802
  103CHL1   H1A13853   3.029   3.248   6.254 -0.0556 -0.5042 -0.0031
  103CHL1   H1B13854   2.863   3.258   6.327  0.6643  1.4980 -0.0307
  103CHL1    C213855   3.021   3.200   6.463 -0.2935  0.3391 -0.1101
  103CHL1   H2A13856   3.032   3.305   6.499 -0.9847  0.1776  0.6033
  103CHL1   H2B13857   3.126   3.167   6.452 -0.4997 -0.0459 -0.9969
  103CHL1   C2013858   2.701   2.992   5.591 -0.1606  0.6001 -0.0804
  103CHL1   H2013859   2.767   2.903   5.580  1.4953  1.5264  1.8690
  103CHL1   C2113860   2.771   3.118   5.540  0.1256 -0.0390  0.6307
  103CHL1  H21A13861   2.858   3.146   5.604 -1.9154  2.5195  2.5115
  103CHL1  H21B13862   2.702   3.204   5.526 -0.2424 -0.6950 -2.2371
  103CHL1  H21C13863   2.804   3.101   5.436 -0.6407  1.6698  0.0694
  103CHL1   C2213864   2.577   2.958   5.504  0.1529 -0.0756 -0.6278
  103CHL1  H22A13865   2.539   2.860   5.541  0.4441  0.6315  1.7267
  103CHL1  H22B13866   2.500   3.035   5.523  1.8382  1.0377  2.3882
  103CHL1   C2313867   2.616   2.960   5.350  0.2891 -0.1953 -0.0660
  103CHL1  H23A13868   2.634   3.062   5.311 -1.1831 -0.0401 -0.4197
  103CHL1  H23B13869   2.709   2.900   5.337  0.9390  0.0748  2.7741
  103CHL1   C2413870   2.505   2.894   5.255 -0.7788 -0.5149 -0.2018
  103CHL1  H24A13871   2.563   2.874   5.163  2.1954 -0.8107  1.6133
  103CHL1  H24B13872   2.479   2.798   5.305 -0.5086 -1.3477 -1.6042
  103CHL1   C2513873   2.378   2.978   5.223  0.0788  0.3257  0.3157
  103CHL1   H2513874   2.338   3.009   5.322 -2.1367 -1.1989 -0.0429
  103CHL1   C2613875   2.410   3.104   5.145 -0.3041  0.0829 -0.0590
  103CHL1  H26A13876   2.325   3.174   5.136  0.6645  1.5839  1.8486
  103CHL1  H26B13877   2.494   3.162   5.190  1.0945 -1.6274 -0.3299
  103CHL1  H26C13878   2.447   3.078   5.043  2.8340  4.7586 -0.4504
  103CHL1   C2713879   2.277   2.901   5.133 -0.1414 -0.5112 -0.1404
  103CHL1  H27A13880   2.324   2.881   5.034  1.8231  1.5105  0.2947
  103CHL1  H27B13881   2.244   2.805   5.178  1.0484 -2.0201 -2.2921
  103CHL1  H27C13882   2.191   2.969   5.120  1.3629  1.9117  1.7313
  104CHL1    C313883   4.227   3.586   6.629 -0.4012  0.0927 -0.1200
  104CHL1    H313884   4.119   3.564   6.641 -0.2566  0.8411  3.8982
  104CHL1    O313885   4.278   3.600   6.760  0.0932  0.1625  0.2023
  104CHL1   H3'13886   4.257   3.518   6.806 -0.4839  0.1266 -0.1122
  104CHL1    C413887   4.316   3.485   6.552  0.3513  0.3547  0.1601
  104CHL1   H4A13888   4.424   3.500   6.575 -0.3423  1.2615  3.4650
  104CHL1   H4B13889   4.301   3.392   6.611  2.1742  1.1058  1.9359
  104CHL1    C513890   4.284   3.465   6.406 -0.2152 -0.1482 -0.7147
  104CHL1    C613891   4.252   3.349   6.350  0.5404 -0.1236 -0.0082
  104CHL1    H613892   4.258   3.258   6.412  1.7329 -0.8949 -1.1908
  104CHL1    C713893   4.222   3.333   6.206  0.4249  0.2749 -0.2067
  104CHL1   H7A13894   4.267   3.238   6.169 -1.4639 -0.5015 -0.6476
  104CHL1   H7B13895   4.113   3.318   6.195  0.4768 -0.7755  0.5573
  104CHL1    C813896   4.254   3.458   6.121  0.0568 -0.1027 -0.0465
  104CHL1    H813897   4.365   3.453   6.125  0.1356  1.5144  2.6722
  104CHL1   C1413898   4.186   3.444   5.988 -0.8375  1.0329 -0.1274
  104CHL1   H1413899   4.078   3.427   6.005 -0.4463  0.8153  2.7379
  104CHL1   C1513900   4.213   3.312   5.902 -0.1092  0.3206  0.7378
  104CHL1  H15A13901   4.320   3.292   5.882  0.5477  2.1128  2.1315
  104CHL1  H15B13902   4.159   3.225   5.946 -0.7378  0.5105  0.3553
  104CHL1   C1613903   4.151   3.357   5.766  0.1172 -0.4091 -0.5861
  104CHL1  H16A13904   4.216   3.331   5.680  1.0023  1.5487 -0.5706
  104CHL1  H16B13905   4.053   3.309   5.746 -0.1419 -0.1820  0.1039
  104CHL1   C1713906   4.137   3.514   5.771  0.3419 -0.0564 -0.5960
  104CHL1   H1713907   4.028   3.525   5.792  0.2920  0.2083 -1.0028
  104CHL1   C1313908   4.205   3.563   5.897 -0.2801  0.1626 -0.2545
  104CHL1   C1813909   4.350   3.582   5.864 -0.0217 -0.5354 -0.4337
  104CHL1  H18A13910   4.408   3.490   5.841  0.7421  0.0649 -0.9588
  104CHL1  H18B13911   4.364   3.655   5.781  0.4913 -0.8318 -0.6125
  104CHL1  H18C13912   4.398   3.622   5.956  0.1644  2.9441 -1.8854
  104CHL1   C1213913   4.136   3.685   5.968 -0.7981  0.8652  0.4652
  104CHL1  H12A13914   4.139   3.779   5.908  0.9428  0.3767 -0.3089
  104CHL1  H12B13915   4.032   3.648   5.973  0.2798 -2.3195  1.7648
  104CHL1   C1113916   4.192   3.710   6.110 -0.8127 -0.4315  0.7967
  104CHL1  H11A13917   4.296   3.743   6.089 -2.1416  0.9998 -5.7579
  104CHL1  H11B13918   4.139   3.798   6.151  0.2749  1.0285 -0.7761
  104CHL1    C913919   4.205   3.580   6.191  0.2007 -0.8232 -0.4527
  104CHL1    H913920   4.100   3.554   6.214 -0.3824  1.4832 -0.1797
  104CHL1   C1013921   4.277   3.600   6.328 -0.2381  0.1014  0.0557
  104CHL1   C1913922   4.424   3.651   6.305 -0.3513  0.2592 -0.0402
  104CHL1  H19A13923   4.485   3.578   6.246 -1.4828 -0.5174 -0.2758
  104CHL1  H19B13924   4.438   3.755   6.270  1.6503  0.1905  0.4405
  104CHL1  H19C13925   4.473   3.651   6.405 -0.5900 -1.9554  0.1348
  104CHL1    C113926   4.203   3.710   6.416 -0.0248  0.0212  0.4289
  104CHL1   H1A13927   4.227   3.802   6.358 -1.4100  0.9377  1.2533
  104CHL1   H1B13928   4.092   3.701   6.410  0.0204  0.2451 -3.4067
  104CHL1    C213929   4.246   3.726   6.563 -0.2200  0.0711 -0.0930
  104CHL1   H2A13930   4.186   3.796   6.626 -1.2251 -2.7711  2.3231
  104CHL1   H2B13931   4.355   3.746   6.571  0.0951 -0.8526 -1.7791
  104CHL1   C2013932   4.156   3.588   5.642  0.1200  0.2069 -0.7227
  104CHL1   H2013933   4.158   3.697   5.663  0.7319  0.1190 -0.2991
  104CHL1   C2113934   4.024   3.566   5.558  0.0586 -0.1336 -0.5629
  104CHL1  H21A13935   4.029   3.465   5.510 -2.6321 -0.1343 -1.0069
  104CHL1  H21B13936   4.012   3.638   5.474 -3.6605  0.1110  0.0145
  104CHL1  H21C13937   3.929   3.579   5.613  0.4770  0.6085  0.0013
  104CHL1   C2213938   4.286   3.544   5.568 -0.1803  0.9233 -0.5413
  104CHL1  H22A13939   4.369   3.496   5.624 -1.0845  0.0133  0.0575
  104CHL1  H22B13940   4.258   3.474   5.486  0.0276  2.3381 -1.8736
  104CHL1   C2313941   4.341   3.668   5.496 -0.6860 -0.1281 -0.1029
  104CHL1  H23A13942   4.268   3.711   5.423 -0.8797 -0.5738 -0.1746
  104CHL1  H23B13943   4.358   3.741   5.579 -0.8788 -1.6068  1.2862
  104CHL1   C2413944   4.476   3.639   5.432  0.1299  0.1294  0.2917
  104CHL1  H24A13945   4.523   3.544   5.465  1.9101  0.6648 -0.5538
  104CHL1  H24B13946   4.461   3.606   5.327  2.0401 -1.5948  0.4926
  104CHL1   C2513947   4.570   3.760   5.437 -0.5498 -0.4935  0.1411
  104CHL1   H2513948   4.516   3.849   5.398  0.7269 -0.1097 -0.8130
  104CHL1   C2613949   4.622   3.789   5.576 -0.5568 -0.3696 -0.4412
  104CHL1  H26A13950   4.684   3.880   5.587 -1.0119 -0.3007  1.9376
  104CHL1  H26B13951   4.541   3.805   5.650 -0.9640  0.5567 -1.0670
  104CHL1  H26C13952   4.681   3.703   5.614  0.4358  0.3515 -0.3332
  104CHL1   C2713953   4.699   3.741   5.355  0.3741 -0.3076 -0.2704
  104CHL1  H27A13954   4.752   3.649   5.388 -2.6759 -1.8955  0.6196
  104CHL1  H27B13955   4.666   3.724   5.250  0.1881  1.2629 -0.4879
  104CHL1  H27C13956   4.772   3.822   5.372 -0.8997  0.6466  0.7992
  105CHL1    C313957   4.840   1.557   6.976  0.2957 -0.3299  0.0883
  105CHL1    H313958   4.888   1.645   6.928 -2.6437  1.0513 -0.5769
  105CHL1    O313959   4.855   1.585   7.118 -0.1409  0.0394  0.0254
  105CHL1   H3'13960   4.824   1.507   7.164  1.4781  0.1570  1.3943
  105CHL1    C413961   4.695   1.556   6.933  0.0433 -0.2732 -0.3935
  105CHL1   H4A13962   4.643   1.476   6.989  0.4552 -0.7600 -0.6952
  105CHL1   H4B13963   4.669   1.660   6.964  1.7748  0.1556 -0.2503
  105CHL1    C513964   4.682   1.529   6.782 -0.2814 -0.7556  0.1743
  105CHL1    C613965   4.619   1.619   6.698 -0.1469 -0.2600 -0.4466
  105CHL1    H613966   4.565   1.703   6.745 -1.0472 -1.4182  0.6457
  105CHL1    C713967   4.605   1.607   6.548 -0.6830  0.4600  0.0422
  105CHL1   H7A13968   4.506   1.636   6.505 -1.6493 -1.2795  0.9789
  105CHL1   H7B13969   4.678   1.676   6.500 -1.7946  0.0450 -2.3836
  105CHL1    C813970   4.646   1.464   6.502 -0.3336  0.3255 -0.4374
  105CHL1    H813971   4.566   1.394   6.533  1.1847 -1.4320 -0.2785
  105CHL1   C1413972   4.671   1.469   6.350  0.3945 -0.2158 -0.5985
  105CHL1   H1413973   4.748   1.546   6.324 -0.8178  0.9912 -0.7007
  105CHL1   C1513974   4.548   1.494   6.261  0.1761 -0.7715  0.1685
  105CHL1  H15A13975   4.463   1.430   6.293  1.2014 -2.4283 -0.2869
  105CHL1  H15B13976   4.519   1.601   6.266  0.6668 -0.4847 -2.1778
  105CHL1   C1613977   4.598   1.465   6.119 -0.5521 -0.5667  0.4432
  105CHL1  H16A13978   4.513   1.420   6.062 -1.1205  0.3364  0.5677
  105CHL1  H16B13979   4.632   1.559   6.070  1.8839 -1.3557  0.4925
  105CHL1   C1713980   4.728   1.387   6.135  0.4182  0.0815  0.6834
  105CHL1   H1713981   4.809   1.460   6.116 -0.8956  1.4344  0.0383
  105CHL1   C1313982   4.727   1.336   6.285  0.9978  0.0733 -0.0151
  105CHL1   C1813983   4.619   1.226   6.309  0.6914  0.8817 -0.4667
  105CHL1  H18A13984   4.670   1.130   6.284  0.7284  0.8220 -0.1606
  105CHL1  H18B13985   4.579   1.225   6.413 -0.2938  0.5586 -0.8279
  105CHL1  H18C13986   4.534   1.225   6.237  0.5331 -0.5297 -0.3085
  105CHL1   C1213987   4.856   1.317   6.358 -0.4883 -0.3021 -0.1090
  105CHL1  H12A13988   4.913   1.228   6.325  1.5831  1.4871 -1.7282
  105CHL1  H12B13989   4.923   1.398   6.321 -0.0383 -0.6962 -0.1575
  105CHL1   C1113990   4.852   1.307   6.508  0.4945 -0.5266  0.0659
  105CHL1  H11A13991   4.804   1.212   6.541  1.1647 -0.6529  0.6929
  105CHL1  H11B13992   4.955   1.300   6.548  0.5142 -0.3104  0.0518
  105CHL1    C913993   4.773   1.416   6.572 -0.0443 -0.3571 -0.8816
  105CHL1    H913994   4.844   1.501   6.565  0.9868 -1.0738  0.5201
  105CHL1   C1013995   4.758   1.405   6.728  0.4788 -0.4687 -0.5850
  105CHL1   C1913996   4.675   1.286   6.763  0.2601  0.2655 -0.0548
  105CHL1  H19A13997   4.571   1.285   6.724  0.4442 -1.8777 -0.6329
  105CHL1  H19B13998   4.725   1.190   6.736 -0.0661  0.2864 -0.7626
  105CHL1  H19C13999   4.665   1.264   6.871  1.8856 -1.7280 -0.2570
  105CHL1    C114000   4.900   1.402   6.791 -0.3924 -0.2258  0.3847
  105CHL1   H1A14001   4.952   1.307   6.768  1.2824  0.5878  0.6834
  105CHL1   H1B14002   4.959   1.479   6.739 -1.9223  0.7302 -0.0097
  105CHL1    C214003   4.909   1.428   6.936 -0.7230 -0.5357  0.0406
  105CHL1   H2A14004   5.017   1.443   6.957 -0.8423  0.6499 -0.1078
  105CHL1   H2B14005   4.870   1.339   6.990 -0.8055  0.1336  1.1254
  105CHL1   C2014006   4.757   1.272   6.032 -0.1824 -0.2615 -0.6602
  105CHL1   H2014007   4.692   1.187   6.062 -1.8179  1.3676  0.6706
  105CHL1   C2114008   4.904   1.225   6.047 -0.1878  0.0308  0.4282
  105CHL1  H21A14009   4.950   1.206   5.947 -0.3046  0.1237  0.3575
  105CHL1  H21B14010   4.906   1.132   6.108 -0.1108  0.7641  1.5739
  105CHL1  H21C14011   4.965   1.307   6.090 -0.6843  0.2690  0.6887
  105CHL1   C2214012   4.723   1.310   5.882 -0.9622 -0.0311 -0.6934
  105CHL1  H22A14013   4.706   1.220   5.819 -0.1643  0.7522 -2.0819
  105CHL1  H22B14014   4.622   1.356   5.889 -0.8084  0.0405  3.7539
  105CHL1   C2314015   4.812   1.415   5.819 -0.4671 -0.1870 -0.1805
  105CHL1  H23A14016   4.836   1.504   5.881 -1.0240  0.4912 -0.9256
  105CHL1  H23B14017   4.908   1.360   5.802  0.0988  0.9134 -0.6210
  105CHL1   C2414018   4.777   1.462   5.674  0.0473  0.3472 -0.5735
  105CHL1  H24A14019   4.858   1.529   5.636  0.1713  0.5847  0.0999
  105CHL1  H24B14020   4.759   1.373   5.610 -1.2169  0.5729 -0.5573
  105CHL1   C2514021   4.643   1.544   5.666 -0.1995 -0.5932  0.1763
  105CHL1   H2514022   4.561   1.482   5.707  0.1069 -1.0460  0.1110
  105CHL1   C2614023   4.639   1.666   5.764 -0.5411  0.4382  0.1945
  105CHL1  H26A14024   4.746   1.698   5.769 -0.3301 -0.3650  0.9187
  105CHL1  H26B14025   4.595   1.762   5.730  1.1968  1.1184 -0.2467
  105CHL1  H26C14026   4.608   1.641   5.867  1.4598  2.0405  1.2439
  105CHL1   C2714027   4.628   1.588   5.516  0.3300 -0.1604  0.3766
  105CHL1  H27A14028   4.618   1.501   5.447 -0.8384 -0.0075  0.3394
  105CHL1  H27B14029   4.543   1.658   5.500  0.0995 -0.4258  0.4271
  105CHL1  H27C14030   4.716   1.649   5.487  0.6166  0.5463  2.5671
  106CHL1    C314031   0.709   2.322   6.297 -0.0019  0.6717 -0.8070
  106CHL1    H314032   0.608   2.278   6.311 -0.8268  2.0327 -2.1623
  106CHL1    O314033   0.765   2.348   6.431  0.5205 -0.0509  0.5514
  106CHL1   H3'14034   0.839   2.404   6.408  1.5067 -1.8282 -0.9378
  106CHL1    C414035   0.801   2.221   6.235  0.6178  0.2950  0.4289
  106CHL1   H4A14036   0.904   2.265   6.238  1.0178 -0.4243 -1.4698
  106CHL1   H4B14037   0.797   2.125   6.292 -1.6123 -1.2696 -2.1446
  106CHL1    C514038   0.761   2.197   6.087 -0.5572  0.3312 -0.2878
  106CHL1    C614039   0.735   2.077   6.036 -0.3489 -0.6504 -0.0782
  106CHL1    H614040   0.740   2.002   6.115 -0.8635 -0.6616 -0.0478
  106CHL1    C714041   0.700   2.039   5.892 -0.7098 -0.1755 -0.2993
  106CHL1   H7A14042   0.752   1.948   5.854  0.6171 -0.1562  1.3999
  106CHL1   H7B14043   0.591   2.019   5.894 -1.0554  1.4403 -1.3466
  106CHL1    C814044   0.719   2.156   5.798 -0.1165  0.2764  0.0098
  106CHL1    H814045   0.828   2.150   5.778 -0.0583  0.3760  0.2971
  106CHL1   C1414046   0.649   2.133   5.665 -0.2232 -0.6443 -0.0500
  106CHL1   H1414047   0.543   2.127   5.698 -0.4148  0.0129 -0.5398
  106CHL1   C1514048   0.690   2.001   5.591 -0.2231  0.0124  0.5157
  106CHL1  H15A14049   0.800   2.020   5.597  0.0468 -0.5148 -1.9776
  106CHL1  H15B14050   0.669   1.907   5.647  1.3740 -1.5559 -1.3559
  106CHL1   C1614051   0.646   2.026   5.446 -0.5805  0.2133 -0.1263
  106CHL1  H16A14052   0.735   2.009   5.382 -0.8595 -1.2142 -0.1707
  106CHL1  H16B14053   0.560   1.963   5.415  1.9146 -2.0576 -2.9794
  106CHL1   C1714054   0.594   2.174   5.449 -0.8893 -0.3420  0.6374
  106CHL1   H1714055   0.489   2.169   5.484 -0.8239 -1.9725  0.6675
  106CHL1   C1314056   0.678   2.240   5.560  0.9936 -1.2343 -0.9986
  106CHL1   C1814057   0.823   2.261   5.519 -0.6940  0.0072 -0.6870
  106CHL1  H18A14058   0.871   2.166   5.487  0.2223  0.0174  0.5805
  106CHL1  H18B14059   0.828   2.340   5.441  0.8020 -2.0990 -2.8771
  106CHL1  H18C14060   0.882   2.296   5.606  0.5437 -0.4429 -1.3158
  106CHL1   C1214061   0.619   2.365   5.616  0.0834 -0.6464 -0.0925
  106CHL1  H12A14062   0.649   2.456   5.560  0.6256 -0.2161  0.8659
  106CHL1  H12B14063   0.509   2.350   5.616 -0.2671  1.4071  1.2939
  106CHL1   C1114064   0.665   2.408   5.759 -0.4044 -0.1342 -0.1127
  106CHL1  H11A14065   0.768   2.446   5.740 -0.7512  0.4734 -0.8177
  106CHL1  H11B14066   0.604   2.487   5.808 -0.2060  1.5457 -2.3707
  106CHL1    C914067   0.673   2.286   5.857  0.0971 -0.2278  0.5550
  106CHL1    H914068   0.566   2.260   5.875  0.3273 -1.2161  0.5914
  106CHL1   C1014069   0.742   2.319   5.992 -0.5723 -0.4233 -0.2979
  106CHL1   C1914070   0.881   2.378   5.971 -0.0654  0.8761 -0.7475
  106CHL1  H19A14071   0.950   2.303   5.926 -0.5424 -0.8105  1.2150
  106CHL1  H19B14072   0.874   2.465   5.902  0.6178  1.0262 -0.6408
  106CHL1  H19C14073   0.923   2.415   6.067 -0.9714 -1.9627  0.8655
  106CHL1    C114074   0.649   2.413   6.070  0.0450 -0.3579 -0.0136
  106CHL1   H1A14075   0.654   2.513   6.021 -0.5242 -0.4069 -0.1739
  106CHL1   H1B14076   0.545   2.374   6.069  0.2293 -0.8596 -1.0480
  106CHL1    C214077   0.699   2.449   6.216 -0.4805  0.0550  0.5542
  106CHL1   H2A14078   0.630   2.524   6.260 -3.4678 -0.3235 -2.9954
  106CHL1   H2B14079   0.797   2.501   6.200  0.8857 -1.9390  1.9307
  106CHL1   C2014080   0.593   2.250   5.309 -0.2119 -0.7232 -0.1230
  106CHL1   H2014081   0.688   2.304   5.290 -1.0551  1.4964  1.4664
  106CHL1   C2114082   0.486   2.358   5.312  0.9248 -0.0806  0.1503
  106CHL1  H21A14083   0.390   2.325   5.356  0.2943  0.0917 -1.0330
  106CHL1  H21B14084   0.458   2.386   5.208  1.5827 -1.9433 -0.5696
  106CHL1  H21C14085   0.513   2.448   5.371 -2.4587  0.7521  0.6345
  106CHL1   C2214086   0.569   2.161   5.183  0.2566 -0.3855 -0.5856
  106CHL1  H22A14087   0.603   2.056   5.190 -0.8737 -0.7851 -0.9427
  106CHL1  H22B14088   0.462   2.138   5.168  0.4528 -1.2912 -0.6336
  106CHL1   C2314089   0.624   2.228   5.051  0.5525  0.3413  0.3064
  106CHL1  H23A14090   0.589   2.333   5.059 -3.4042 -0.9014  2.2288
  106CHL1  H23B14091   0.734   2.215   5.053  0.4728 -0.4032  0.2049
  106CHL1   C2414092   0.564   2.171   4.921  0.6597  0.2093 -0.1325
  106CHL1  H24A14093   0.593   2.064   4.911 -0.9031 -0.5419  2.4630
  106CHL1  H24B14094   0.454   2.181   4.927  0.6388  1.8775 -2.3544
  106CHL1   C2514095   0.593   2.242   4.788 -0.0812 -0.3608  0.1167
  106CHL1   H2514096   0.704   2.247   4.797 -0.1607  0.7129  0.6551
  106CHL1   C2614097   0.557   2.160   4.664 -1.5086 -0.1197  0.7763
  106CHL1  H26A14098   0.446   2.155   4.668 -1.4334 -1.3642  2.1236
  106CHL1  H26B14099   0.596   2.202   4.569  0.1200 -1.2070  0.9234
  106CHL1  H26C14100   0.601   2.060   4.684 -0.0955  0.2268 -0.4505
  106CHL1   C2714101   0.544   2.384   4.778 -0.2723 -0.6194  0.4208
  106CHL1  H27A14102   0.439   2.380   4.741 -0.0683 -1.0268 -0.1261
  106CHL1  H27B14103   0.544   2.438   4.875 -1.1683  0.8985 -0.3793
  106CHL1  H27C14104   0.602   2.446   4.705  0.3405  1.1447  2.3197
  107CHL1    C314105   3.099   5.589   6.795  0.4856  0.1591 -0.0166
  107CHL1    H314106   3.210   5.584   6.788  0.3534 -1.1697 -2.1572
  107CHL1    O314107   3.069   5.556   6.924  0.0003  0.1358 -0.0934
  107CHL1   H3'14108   2.976   5.577   6.937  0.0349 -0.7928  2.1865
  107CHL1    C414109   3.032   5.720   6.762 -0.3794  0.5532  0.2005
  107CHL1   H4A14110   2.925   5.711   6.789  0.0325 -1.9974  1.2981
  107CHL1   H4B14111   3.070   5.808   6.819  0.6025  1.7041 -2.1086
  107CHL1    C514112   3.033   5.758   6.616 -0.4363 -0.0229 -0.1022
  107CHL1    C614113   3.085   5.876   6.583  0.6470 -0.5736  0.1869
  107CHL1    H614114   3.114   5.946   6.662  0.6485  1.4081 -1.4800
  107CHL1    C714115   3.093   5.926   6.440 -0.5302  0.1351 -0.5172
  107CHL1   H7A14116   3.062   6.033   6.438 -2.7144 -0.4221  0.5936
  107CHL1   H7B14117   3.193   5.907   6.395  0.6634  0.4788  1.8127
  107CHL1    C814118   2.995   5.849   6.344 -0.2358 -0.5168  0.5144
  107CHL1    H814119   2.895   5.890   6.371 -1.0965 -1.7838 -0.5959
  107CHL1   C1414120   3.027   5.876   6.196 -0.0347  0.2572  0.1202
  107CHL1   H1414121   3.123   5.829   6.169  0.7887  2.3975 -0.8642
  107CHL1   C1514122   3.060   6.022   6.160 -0.3068 -0.5775  0.1934
  107CHL1  H15A14123   2.976   6.083   6.200 -0.6677 -0.8883 -0.0784
  107CHL1  H15B14124   3.161   6.059   6.190 -0.2183  0.7887 -1.6550
  107CHL1   C1614125   3.032   6.012   6.004  0.1075  0.4777 -0.9635
  107CHL1  H16A14126   2.959   6.093   5.982 -0.9217 -0.5380 -1.3465
  107CHL1  H16B14127   3.123   6.029   5.942  1.6735  1.2694  1.3810
  107CHL1   C1714128   2.982   5.874   5.973 -0.9250  0.2900  0.4653
  107CHL1   H1714129   3.063   5.808   5.936 -1.1388  1.6359 -2.6673
  107CHL1   C1314130   2.933   5.814   6.105  0.9670 -0.2611  0.5293
  107CHL1   C1814131   2.797   5.878   6.131  0.1481 -0.2916 -0.6694
  107CHL1  H18A14132   2.794   5.988   6.145 -0.4206 -0.0688 -2.4127
  107CHL1  H18B14133   2.722   5.865   6.050 -0.9434 -0.0989  0.2835
  107CHL1  H18C14134   2.741   5.835   6.217 -1.4316  2.3028 -0.2778
  107CHL1   C1214135   2.942   5.661   6.123 -0.0285  0.0911 -0.4625
  107CHL1  H12A14136   2.886   5.611   6.041  1.4530  0.6311 -1.8761
  107CHL1  H12B14137   3.044   5.634   6.087 -0.0957  0.4415 -0.9212
  107CHL1   C1114138   2.935   5.617   6.264 -0.1714  0.0924  0.1017
  107CHL1  H11A14139   2.831   5.636   6.297 -0.8221 -1.5533 -0.8607
  107CHL1  H11B14140   2.958   5.508   6.267 -3.0151 -0.6345 -0.8274
  107CHL1    C914141   3.010   5.701   6.373 -0.1116  0.0833 -0.1758
  107CHL1    H914142   3.119   5.687   6.356  0.3988  2.9494  0.2458
  107CHL1   C1014143   2.975   5.653   6.519 -0.7215 -0.2004  0.2886
  107CHL1   C1914144   2.823   5.638   6.537  0.0039 -0.1744  0.0769
  107CHL1  H19A14145   2.786   5.548   6.484 -1.8429 -0.8112  2.2820
  107CHL1  H19B14146   2.796   5.627   6.644 -1.6684 -2.7200 -0.5194
  107CHL1  H19C14147   2.778   5.734   6.504 -0.4169  0.1346  1.4754
  107CHL1    C114148   3.050   5.516   6.553 -0.1163 -0.3053  0.3200
  107CHL1   H1A14149   3.001   5.443   6.485 -1.3396 -1.0278  1.8811
  107CHL1   H1B14150   3.155   5.522   6.518 -0.3377  3.8978 -0.0797
  107CHL1    C214151   3.035   5.472   6.703  0.1339 -0.5575  0.0692
  107CHL1   H2A14152   3.081   5.373   6.723  0.5251 -0.3223  0.3389
  107CHL1   H2B14153   2.929   5.445   6.726 -0.0237 -1.0760 -1.2440
  107CHL1   C2014154   2.890   5.876   5.851 -0.3367 -0.3717 -0.4864
  107CHL1   H2014155   2.805   5.940   5.882 -0.9310 -0.7726 -1.2531
  107CHL1   C2114156   2.847   5.731   5.802 -0.4656 -0.4875 -0.3329
  107CHL1  H21A14157   2.784   5.668   5.867 -1.5580 -0.7096 -1.5598
  107CHL1  H21B14158   2.939   5.683   5.762  0.2130  1.1172 -0.7812
  107CHL1  H21C14159   2.774   5.751   5.720  0.6821  1.8477 -0.8758
  107CHL1   C2214160   2.962   5.952   5.731 -0.0536  0.4270  0.0183
  107CHL1  H22A14161   2.984   6.055   5.767  0.2191  0.4179 -0.1259
  107CHL1  H22B14162   3.065   5.912   5.723 -0.3175 -0.0757 -1.0822
  107CHL1   C2314163   2.884   5.948   5.597 -0.2707 -0.2175  0.3802
  107CHL1  H23A14164   2.877   5.842   5.565 -0.0658 -0.7803  2.0807
  107CHL1  H23B14165   2.783   5.985   5.627 -0.0229  1.0143 -0.2437
  107CHL1   C2414166   2.956   6.037   5.494 -0.6371 -0.0057  0.3541
  107CHL1  H24A14167   2.958   6.140   5.535 -3.0006  0.2160  0.0733
  107CHL1  H24B14168   3.057   5.991   5.495 -0.6465 -0.0163  0.9841
  107CHL1   C2514169   2.889   6.046   5.358 -0.3646  0.2592 -0.2527
  107CHL1   H2514170   2.786   6.085   5.373  0.1904  1.0143  1.9839
  107CHL1   C2614171   2.975   6.137   5.261 -0.9438 -0.1011 -0.5076
  107CHL1  H26A14172   2.920   6.149   5.165 -0.6952 -1.8597 -0.9018
  107CHL1  H26B14173   2.985   6.239   5.305 -1.3934  0.5154 -1.7768
  107CHL1  H26C14174   3.071   6.089   5.233 -0.7769 -1.2479  1.7951
  107CHL1   C2714175   2.886   5.908   5.294  0.2489 -0.2011  0.3062
  107CHL1  H27A14176   2.816   5.841   5.348 -2.5337  1.6533 -0.8047
  107CHL1  H27B14177   2.842   5.924   5.193  1.2222 -1.0654 -0.2754
  107CHL1  H27C14178   2.988   5.865   5.289 -0.5880 -2.3081  0.1925
  108CHL1    C314179   5.340   1.953   6.234 -0.1116  0.0181 -0.1265
  108CHL1    H314180   5.231   1.965   6.251  0.0364  2.4009 -0.4811
  108CHL1    O314181   5.412   1.962   6.357 -0.3759 -0.3836 -0.3066
  108CHL1   H3'14182   5.486   1.900   6.348  1.0840  1.0293  1.2288
  108CHL1    C414183   5.364   1.817   6.157 -0.0036 -0.0377  0.9000
  108CHL1   H4A14184   5.474   1.806   6.156  0.1021  0.9251  0.2855
  108CHL1   H4B14185   5.333   1.731   6.220  1.0095 -0.4837  0.8029
  108CHL1    C514186   5.313   1.813   6.017  0.1869 -0.1395  0.4620
  108CHL1    C614187   5.236   1.713   5.981 -0.2109  0.2099 -0.2275
  108CHL1    H614188   5.228   1.632   6.056 -0.8193  0.1356 -0.3661
  108CHL1    C714189   5.167   1.697   5.844 -0.8246 -0.1813 -0.0727
  108CHL1   H7A14190   5.175   1.595   5.801  3.6596 -0.0002 -0.1676
  108CHL1   H7B14191   5.060   1.714   5.867 -0.6893  0.3917  0.1784
  108CHL1    C814192   5.227   1.799   5.740 -0.9148  0.1643  0.1886
  108CHL1    H814193   5.326   1.757   5.712 -1.3839  0.0351 -1.3427
  108CHL1   C1414194   5.143   1.820   5.622 -0.2722 -1.8951  0.2072
  108CHL1   H1414195   5.042   1.858   5.647  0.0860 -0.9425  0.2404
  108CHL1   C1514196   5.100   1.700   5.538  0.0454  0.0458 -0.5533
  108CHL1  H15A14197   5.184   1.633   5.510  1.3307  1.3756  0.0215
  108CHL1  H15B14198   5.018   1.649   5.594  0.2912  0.3228  0.0735
  108CHL1   C1614199   5.041   1.769   5.405 -0.2122  0.1647 -0.4533
  108CHL1  H16A14200   5.087   1.708   5.325  0.4569  1.0053 -0.7222
  108CHL1  H16B14201   4.930   1.764   5.403 -0.3293  2.1483 -1.5437
  108CHL1   C1714202   5.082   1.916   5.413  0.1472 -0.2605  0.2114
  108CHL1   H1714203   4.999   1.968   5.464 -1.3552 -1.9835 -0.3647
  108CHL1   C1314204   5.195   1.922   5.519 -0.4714  0.9401 -0.5912
  108CHL1   C1814205   5.322   1.873   5.450  0.0589 -1.4520  0.3199
  108CHL1  H18A14206   5.310   1.784   5.384 -0.4778 -1.5948  0.6000
  108CHL1  H18B14207   5.371   1.951   5.388  1.0862 -1.1297  1.5053
  108CHL1  H18C14208   5.396   1.837   5.523  0.7228  0.6322  0.7347
  108CHL1   C1214209   5.210   2.062   5.586 -0.1448  0.2910 -0.2590
  108CHL1  H12A14210   5.247   2.135   5.511  0.1724  1.0347  0.6111
  108CHL1  H12B14211   5.107   2.093   5.614 -0.2886  1.3601 -1.8484
  108CHL1   C1114212   5.312   2.045   5.697 -0.2239 -0.5854  0.0936
  108CHL1  H11A14213   5.411   2.013   5.657  0.1245 -1.3457  1.4971
  108CHL1  H11B14214   5.323   2.140   5.753  2.5119 -0.2165 -0.9136
  108CHL1    C914215   5.257   1.935   5.798 -0.1387 -0.3606  0.4136
  108CHL1    H914216   5.155   1.966   5.828  0.0792  0.3406  0.4554
  108CHL1   C1014217   5.339   1.935   5.929  0.3527  0.5215  0.2321
  108CHL1   C1914218   5.484   1.918   5.895  0.0688  0.8127  0.3701
  108CHL1  H19A14219   5.518   2.015   5.854 -0.1046  1.5323  1.8750
  108CHL1  H19B14220   5.549   1.896   5.982 -0.2642  0.1897  0.4736
  108CHL1  H19C14221   5.502   1.848   5.810  0.2018 -0.4478  1.4120
  108CHL1    C114222   5.316   2.066   6.005 -0.4427  0.6897  0.1314
  108CHL1   H1A14223   5.354   2.157   5.954 -0.2732  1.0985  0.9611
  108CHL1   H1B14224   5.208   2.087   6.006 -0.3726  1.2192 -1.3049
  108CHL1    C214225   5.384   2.072   6.149  0.0241 -0.3920  0.3579
  108CHL1   H2A14226   5.353   2.169   6.193  1.2652 -0.5519  1.6570
  108CHL1   H2B14227   5.493   2.076   6.127 -0.3242 -1.9556 -2.0299
  108CHL1   C2014228   5.106   1.974   5.271  0.6565  0.1516  0.6862
  108CHL1   H2014229   5.202   1.934   5.231  0.6725  0.6057  0.2670
  108CHL1   C2114230   5.116   2.121   5.278 -0.0177 -0.3903 -0.2003
  108CHL1  H21A14231   5.037   2.164   5.344  1.3376 -0.4064  1.4981
  108CHL1  H21B14232   5.108   2.164   5.176 -0.6209 -1.6345 -0.7031
  108CHL1  H21C14233   5.215   2.146   5.322 -0.4171 -1.5316  1.4651
  108CHL1   C2214234   4.989   1.952   5.170 -0.2435 -0.6796 -0.2827
  108CHL1  H22A14235   4.932   1.861   5.198 -1.0351 -0.7205 -1.8892
  108CHL1  H22B14236   4.914   2.033   5.180  1.0613  0.5059  0.2782
  108CHL1   C2314237   5.037   1.942   5.026  0.5414 -0.4942 -0.3427
  108CHL1  H23A14238   5.095   2.033   4.998  0.9739 -1.2781 -2.0599
  108CHL1  H23B14239   5.102   1.853   5.023  0.6135 -0.5482  1.5443
  108CHL1   C2414240   4.924   1.933   4.920 -0.6852  0.3531 -0.0053
  108CHL1  H24A14241   4.857   2.021   4.936 -1.1657  0.2743 -1.4533
  108CHL1  H24B14242   4.972   1.959   4.824 -1.1502  0.7978 -0.1237
  108CHL1   C2514243   4.858   1.797   4.910  0.4659 -0.3670  0.8555
  108CHL1   H2514244   4.816   1.762   5.007 -1.9912 -1.5131 -0.5258
  108CHL1   C2614245   4.743   1.802   4.805 -0.1775 -0.4550  0.1547
  108CHL1  H26A14246   4.784   1.781   4.704 -0.1277 -0.4642  0.1764
  108CHL1  H26B14247   4.662   1.727   4.815 -1.3411  0.4113 -1.9461
  108CHL1  H26C14248   4.697   1.903   4.794 -0.9298 -1.0287 -3.0496
  108CHL1   C2714249   4.958   1.685   4.866  0.2080  0.2848 -0.7247
  108CHL1  H27A14250   5.030   1.667   4.949 -1.6097 -0.0146  0.8552
  108CHL1  H27B14251   4.902   1.590   4.855  3.5409 -1.9127 -0.2347
  108CHL1  H27C14252   5.001   1.734   4.777 -1.2813  1.7006 -0.7133
  109CHL1    C314253   1.777   5.012   6.511  0.7409  0.7018 -0.3220
  109CHL1    H314254   1.864   5.075   6.481 -0.0219  2.8311  1.6612
  109CHL1    O314255   1.792   4.973   6.648 -0.2308  0.5642  1.2272
  109CHL1   H3'14256   1.747   4.888   6.649 -2.3790  1.5592 -0.4549
  109CHL1    C414257   1.643   5.092   6.495  0.9204  0.2715  0.2172
  109CHL1   H4A14258   1.560   5.025   6.527 -0.2516  2.5936  2.3456
  109CHL1   H4B14259   1.634   5.182   6.559 -0.2635  0.4096 -0.1250
  109CHL1    C514260   1.614   5.139   6.354 -0.9420  0.1731 -0.1387
  109CHL1    C614261   1.613   5.263   6.317 -0.1715 -0.3744  0.0528
  109CHL1    H614262   1.627   5.342   6.392 -0.3515  1.2024 -1.5326
  109CHL1    C714263   1.585   5.309   6.174 -0.0604 -0.4630 -0.3101
  109CHL1   H7A14264   1.492   5.370   6.173 -0.0539 -0.4609 -0.8879
  109CHL1   H7B14265   1.669   5.370   6.136 -1.3512  3.8514  2.9366
  109CHL1    C814266   1.551   5.191   6.078  0.4084 -0.3025 -0.1683
  109CHL1    H814267   1.446   5.154   6.079  0.1967  0.2796 -0.3525
  109CHL1   C1414268   1.556   5.241   5.935  0.1049  0.1541  0.3855
  109CHL1   H1414269   1.662   5.272   5.922 -0.3789  2.1041  0.7727
  109CHL1   C1514270   1.476   5.367   5.890 -0.5522  0.4720 -0.3510
  109CHL1  H15A14271   1.386   5.370   5.955 -0.5218 -0.6837 -0.2352
  109CHL1  H15B14272   1.524   5.466   5.906 -3.4308  1.7741  1.0068
  109CHL1   C1614273   1.446   5.348   5.740 -0.1562  0.3321 -1.5860
  109CHL1  H16A14274   1.338   5.326   5.730  0.0351 -1.3313 -0.4661
  109CHL1  H16B14275   1.470   5.438   5.679  0.5050  2.1364  1.0999
  109CHL1   C1714276   1.520   5.218   5.698 -0.4597  0.6926 -0.1664
  109CHL1   H1714277   1.623   5.254   5.677 -0.0870 -0.3717 -0.2194
  109CHL1   C1314278   1.527   5.131   5.831  0.4364 -0.2967  0.3568
  109CHL1   C1814279   1.378   5.079   5.848  0.0691  0.2262 -0.4161
  109CHL1  H18A14280   1.356   5.044   5.950  1.9189 -1.1022 -0.4080
  109CHL1  H18B14281   1.304   5.157   5.821 -0.2671  0.1377  0.2486
  109CHL1  H18C14282   1.357   4.996   5.776  0.6185  1.4112 -2.0178
  109CHL1   C1214283   1.641   5.026   5.850  0.3739  0.1184 -0.1227
  109CHL1  H12A14284   1.642   4.939   5.781  0.7391  0.6866 -0.8550
  109CHL1  H12B14285   1.738   5.077   5.832  0.9017 -0.7844  0.0762
  109CHL1   C1114286   1.632   4.971   5.994  1.4158  1.4663 -0.0030
  109CHL1  H11A14287   1.533   4.920   6.001  1.8045  0.8843  2.0011
  109CHL1  H11B14288   1.697   4.881   6.004 -2.3485 -1.6509 -0.7252
  109CHL1    C914289   1.637   5.078   6.104 -0.0393 -0.4868  0.6115
  109CHL1    H914290   1.742   5.113   6.096  0.6853 -2.5872  0.2859
  109CHL1   C1014291   1.619   5.026   6.248  0.8831  0.1010  0.3295
  109CHL1   C1914292   1.488   4.945   6.265  0.1554  0.3852 -0.0423
  109CHL1  H19A14293   1.497   4.856   6.199 -1.2098 -1.4884  2.1519
  109CHL1  H19B14294   1.464   4.917   6.369 -1.6786 -0.3614 -0.6286
  109CHL1  H19C14295   1.397   4.999   6.230  1.3119  3.2823  1.1012
  109CHL1    C114296   1.738   4.929   6.276 -0.0427  0.1151 -0.1798
  109CHL1   H1A14297   1.745   4.837   6.215  2.7875  0.0240  0.1387
  109CHL1   H1B14298   1.826   4.988   6.243 -0.3958  2.1461  2.1900
  109CHL1    C214299   1.771   4.885   6.424 -0.2819  0.4333  0.2061
  109CHL1   H2A14300   1.857   4.815   6.435 -0.6078  0.0595  0.4009
  109CHL1   H2B14301   1.685   4.830   6.467  0.4155  0.3777  1.5874
  109CHL1   C2014302   1.462   5.150   5.575 -0.3581 -0.5416 -0.2594
  109CHL1   H2014303   1.370   5.097   5.608 -0.5389 -1.3650 -1.9656
  109CHL1   C2114304   1.561   5.059   5.513  0.1280 -0.3725 -0.0043
  109CHL1  H21A14305   1.524   5.028   5.413  2.0386  0.5674 -1.0840
  109CHL1  H21B14306   1.584   4.966   5.569 -1.1775 -1.2968 -0.9561
  109CHL1  H21C14307   1.654   5.116   5.490  1.0909 -1.6016  0.7029
  109CHL1   C2214308   1.416   5.251   5.462  0.2550  0.5363 -0.1956
  109CHL1  H22A14309   1.339   5.312   5.514 -0.1122  1.9452 -2.2614
  109CHL1  H22B14310   1.498   5.317   5.426  0.3842  0.9729  0.8773
  109CHL1   C2314311   1.356   5.191   5.330  0.6706  0.1629  0.5857
  109CHL1  H23A14312   1.442   5.158   5.268  0.4562 -0.6664  0.7164
  109CHL1  H23B14313   1.295   5.102   5.355 -2.3990  2.2648  1.1625
  109CHL1   C2414314   1.276   5.292   5.259 -0.0414  0.0472 -0.0002
  109CHL1  H24A14315   1.194   5.342   5.314  0.3811  1.6260 -0.7486
  109CHL1  H24B14316   1.348   5.370   5.228 -1.7071  2.4746  1.8880
  109CHL1   C2514317   1.207   5.239   5.128  0.2686 -0.5367 -0.1207
  109CHL1   H2514318   1.293   5.209   5.064  1.3212  1.0914  0.4627
  109CHL1   C2614319   1.127   5.109   5.149  0.1352 -0.0854  0.1282
  109CHL1  H26A14320   1.081   5.067   5.056  1.7775 -0.9923 -0.3149
  109CHL1  H26B14321   1.198   5.031   5.184 -2.4475 -2.4211  0.5563
  109CHL1  H26C14322   1.057   5.128   5.234 -0.7174  0.3907 -0.6601
  109CHL1   C2714323   1.117   5.356   5.085 -0.6216 -0.0117  0.0385
  109CHL1  H27A14324   1.048   5.386   5.167 -0.0492  0.6029  0.2978
  109CHL1  H27B14325   1.180   5.446   5.066 -1.5186  1.2357  2.4707
  109CHL1  H27C14326   1.049   5.335   5.000 -2.7948 -0.6321  1.8172
  110CHL1    C314327   0.089   3.612   6.072  0.0094  0.3267  0.0499
  110CHL1    H314328   0.028   3.543   6.009 -0.9438  0.8149  0.4096
  110CHL1    O314329   0.104   3.560   6.202  0.5545 -0.0843 -0.0386
  110CHL1   H3'14330   0.184   3.601   6.236  1.4347 -3.1237  1.9064
  110CHL1    C414331   0.228   3.632   6.004  0.2799  0.2580 -0.1021
  110CHL1   H4A14332   0.285   3.695   6.075 -1.5701  1.7628  0.1197
  110CHL1   H4B14333   0.281   3.534   6.000  1.8116  1.1091 -1.5168
  110CHL1    C514334   0.211   3.677   5.859 -0.3521  0.5368  0.3630
  110CHL1    C614335   0.247   3.604   5.752 -0.2699 -0.8227  0.8487
  110CHL1    H614336   0.291   3.506   5.773  2.1476  0.2296  0.9678
  110CHL1    C714337   0.231   3.650   5.605  0.3593  0.2690  0.1988
  110CHL1   H7A14338   0.314   3.618   5.539  0.1584  1.2249 -0.5440
  110CHL1   H7B14339   0.146   3.594   5.562  1.5977 -1.3087 -0.2855
  110CHL1    C814340   0.211   3.803   5.597  0.8374  0.6089 -0.2143
  110CHL1    H814341   0.307   3.853   5.623  2.1716 -1.6257 -0.5941
  110CHL1   C1414342   0.160   3.833   5.459  0.1117 -0.6023  0.3343
  110CHL1   H1414343   0.064   3.778   5.448  0.1487 -0.6392  0.1911
  110CHL1   C1514344   0.243   3.795   5.341  0.0498  0.2272  0.2200
  110CHL1  H15A14345   0.349   3.827   5.349 -0.6675  2.8523  0.1748
  110CHL1  H15B14346   0.248   3.685   5.326 -2.4389  0.0830 -0.0723
  110CHL1   C1614347   0.192   3.873   5.220  0.3488  0.4273  0.2658
  110CHL1  H16A14348   0.278   3.925   5.172  0.9286  1.9793  2.7734
  110CHL1  H16B14349   0.145   3.811   5.142  0.4647 -0.2769  0.7464
  110CHL1   C1714350   0.092   3.973   5.284  0.0278  0.6726  0.4918
  110CHL1   H1714351  -0.009   3.927   5.290  0.3106  0.2483  3.3981
  110CHL1   C1314352   0.130   3.983   5.432  0.1433 -0.3577 -1.1341
  110CHL1   C1814353   0.262   4.064   5.460 -0.1908 -0.1502 -0.2785
  110CHL1  H18A14354   0.341   4.047   5.384  0.0491  4.3395 -1.3284
  110CHL1  H18B14355   0.236   4.172   5.451  1.3863  0.6418  3.1531
  110CHL1  H18C14356   0.302   4.038   5.560 -2.2490 -0.2134  0.5813
  110CHL1   C1214357   0.017   4.023   5.535  0.4909 -0.5653  0.1281
  110CHL1  H12A14358   0.015   4.134   5.536 -0.7477 -0.5734 -0.3017
  110CHL1  H12B14359  -0.085   3.986   5.511 -0.1095  0.2571  1.3796
  110CHL1   C1114360   0.047   3.986   5.676  0.6938  0.2325 -1.0122
  110CHL1  H11A14361   0.126   4.053   5.715  2.5644 -1.9012 -0.9429
  110CHL1  H11B14362  -0.042   3.989   5.743  1.4677 -2.2950  0.2618
  110CHL1    C914363   0.107   3.844   5.703  0.3441 -0.0205 -0.1347
  110CHL1    H914364   0.018   3.788   5.668 -0.4928  1.4882 -0.5118
  110CHL1   C1014365   0.141   3.813   5.853 -0.3126  0.5969 -0.0946
  110CHL1   C1914366   0.225   3.922   5.910  0.0720  0.7246  0.6076
  110CHL1  H19A14367   0.169   4.018   5.916 -0.7703  0.1616  4.2498
  110CHL1  H19B14368   0.248   3.891   6.014 -0.3645  0.5574  0.6548
  110CHL1  H19C14369   0.322   3.943   5.859  0.6409 -1.4121  0.7267
  110CHL1    C114370   0.006   3.808   5.936  0.2352  0.4879 -0.5600
  110CHL1   H1A14371  -0.050   3.904   5.937 -0.3725  0.1479 -0.7905
  110CHL1   H1B14372  -0.058   3.736   5.880 -1.6745  1.1047  0.7116
  110CHL1    C214373   0.022   3.749   6.080 -0.1251  0.1979 -0.7246
  110CHL1   H2A14374  -0.071   3.732   6.138 -0.1832 -1.0631 -1.1594
  110CHL1   H2B14375   0.087   3.817   6.139  0.9130 -2.3292  1.2139
  110CHL1   C2014376   0.063   4.096   5.196 -0.4819 -0.0806  0.7296
  110CHL1   H2014377   0.156   4.156   5.194  0.4088 -1.4208  0.7953
  110CHL1   C2114378  -0.041   4.187   5.255  0.4720  0.4698  0.5355
  110CHL1  H21A14379  -0.023   4.218   5.360 -0.5527  2.4511  0.1770
  110CHL1  H21B14380  -0.135   4.129   5.247  1.2618 -1.1690  2.2763
  110CHL1  H21C14381  -0.051   4.274   5.188  0.9603 -0.3717 -0.6675
  110CHL1   C2214382   0.044   4.073   5.043 -0.5533  0.3706  0.6338
  110CHL1  H22A14383   0.137   4.027   5.003 -0.0306  2.5453 -0.7908
  110CHL1  H22B14384  -0.032   3.993   5.029 -0.3068  0.2477 -0.0277
  110CHL1   C2314385   0.019   4.205   4.962  0.1640  0.1724  0.4358
  110CHL1  H23A14386  -0.068   4.265   4.997  0.7824  2.0799 -1.1113
  110CHL1  H23B14387   0.106   4.269   4.986  0.4644  0.2829 -0.8894
  110CHL1   C2414388   0.021   4.187   4.815 -0.1683  0.3180  0.1328
  110CHL1  H24A14389   0.112   4.128   4.792 -0.5962 -0.3811  0.2004
  110CHL1  H24B14390  -0.066   4.123   4.789 -0.6829 -0.0841  2.6164
  110CHL1   C2514391   0.002   4.316   4.736 -0.7758  0.2258 -0.0512
  110CHL1   H2514392  -0.083   4.379   4.771  1.2300  3.7098 -0.8883
  110CHL1   C2614393   0.124   4.414   4.752  0.4976  0.5308 -0.5354
  110CHL1  H26A14394   0.211   4.351   4.723  0.3487 -0.4376  0.9954
  110CHL1  H26B14395   0.124   4.501   4.684  2.4017  1.4618  0.5424
  110CHL1  H26C14396   0.144   4.450   4.856  0.4834 -1.0578  0.0544
  110CHL1   C2714397  -0.023   4.285   4.590  0.5093  0.6431  0.5620
  110CHL1  H27A14398  -0.121   4.238   4.570  1.8376 -1.4792 -1.4390
  110CHL1  H27B14399  -0.017   4.383   4.538  2.2626 -0.4912 -1.4913
  110CHL1  H27C14400   0.052   4.217   4.545  0.3691  0.6383  0.3346
  111CHL1    C314401   2.586   0.640   6.349  0.2826  0.4758  0.2318
  111CHL1    H314402   2.487   0.684   6.326  0.3535  0.6919  0.3379
  111CHL1    O314403   2.623   0.659   6.484 -0.5055  0.2574 -0.3614
  111CHL1   H3'14404   2.700   0.603   6.482  0.2314  1.2459 -0.1806
  111CHL1    C414405   2.581   0.489   6.331  0.3768  0.1245 -0.4189
  111CHL1   H4A14406   2.677   0.443   6.362  0.8891  1.3205 -0.1611
  111CHL1   H4B14407   2.505   0.449   6.402  0.3111  0.1642 -0.4669
  111CHL1    C514408   2.547   0.464   6.185  0.1184 -0.5257  0.2802
  111CHL1    C614409   2.443   0.383   6.149 -0.0940  0.0535  0.5908
  111CHL1    H614410   2.377   0.346   6.229 -4.3504 -3.1180 -3.8193
  111CHL1    C714411   2.404   0.345   6.008  0.4857 -0.2895  0.2847
  111CHL1   H7A14412   2.386   0.235   6.012  2.1251 -0.7089 -2.0171
  111CHL1   H7B14413   2.309   0.391   5.974  0.9559 -0.5939 -1.5249
  111CHL1    C814414   2.514   0.381   5.903  0.7805 -0.1179 -0.7961
  111CHL1    H814415   2.586   0.297   5.912  0.3744 -0.3007  1.4681
  111CHL1   C1414416   2.448   0.376   5.765 -0.1995 -0.6816 -0.0939
  111CHL1   H1414417   2.372   0.458   5.765  0.6337  0.1046  0.0406
  111CHL1   C1514418   2.382   0.252   5.723 -0.3331 -0.1053 -0.6779
  111CHL1  H15A14419   2.433   0.160   5.760  0.4390  0.6856  0.2462
  111CHL1  H15B14420   2.276   0.240   5.756 -0.4241 -0.5806 -1.1274
  111CHL1   C1614421   2.382   0.246   5.567 -0.0661 -0.0099  0.1372
  111CHL1  H16A14422   2.434   0.150   5.545  0.3968 -0.2733  2.2249
  111CHL1  H16B14423   2.277   0.252   5.531 -0.1576  0.7605  0.5086
  111CHL1   C1714424   2.463   0.379   5.525 -0.1754  0.0906 -0.2441
  111CHL1   H1714425   2.389   0.462   5.520  0.5263  0.6878 -1.0000
  111CHL1   C1314426   2.547   0.412   5.652  0.1883  0.3729  0.1102
  111CHL1   C1814427   2.672   0.314   5.642  0.6314  0.4191 -0.4050
  111CHL1  H18A14428   2.728   0.316   5.738 -1.3104  0.6083  0.7642
  111CHL1  H18B14429   2.648   0.209   5.616 -0.5455  0.5336  0.1793
  111CHL1  H18C14430   2.740   0.365   5.570  1.8735  0.3819  0.7018
  111CHL1   C1214431   2.600   0.562   5.679 -0.3972  0.0307  0.2166
  111CHL1  H12A14432   2.679   0.586   5.605 -1.6021 -2.5479 -2.0953
  111CHL1  H12B14433   2.511   0.628   5.671 -0.5664 -0.1277  0.7604
  111CHL1   C1114434   2.670   0.572   5.818  0.3712 -0.0320  0.4100
  111CHL1  H11A14435   2.761   0.508   5.812 -0.6290 -1.3813 -3.2769
  111CHL1  H11B14436   2.699   0.677   5.839 -0.7791  0.3363  0.2590
  111CHL1    C914437   2.575   0.518   5.933 -0.7114 -0.1416 -0.0884
  111CHL1    H914438   2.487   0.587   5.933 -0.0992  0.6646  0.6384
  111CHL1   C1014439   2.632   0.530   6.078 -0.3747 -0.2373 -0.6453
  111CHL1   C1914440   2.766   0.452   6.077  0.4632 -0.4139  0.0191
  111CHL1  H19A14441   2.752   0.347   6.041 -1.1819 -0.0218 -0.5717
  111CHL1  H19B14442   2.831   0.510   6.008 -0.7433  1.3563  0.3234
  111CHL1  H19C14443   2.808   0.441   6.179  1.3756 -0.2153 -0.3287
  111CHL1    C114444   2.645   0.679   6.118 -1.0653  0.3676 -0.2509
  111CHL1   H1A14445   2.723   0.729   6.056 -0.7799  1.0869  0.6550
  111CHL1   H1B14446   2.548   0.730   6.102 -0.2872  2.6512  1.7289
  111CHL1    C214447   2.693   0.701   6.263  0.0478  0.2988  0.5021
  111CHL1   H2A14448   2.711   0.809   6.278  1.6529 -0.0809  1.6365
  111CHL1   H2B14449   2.791   0.654   6.287 -0.8707 -1.2630  1.3650
  111CHL1   C2014450   2.529   0.362   5.387 -0.3153  0.5652 -0.1929
  111CHL1   H2014451   2.605   0.282   5.399 -1.3803 -0.3392  0.6657
  111CHL1   C2114452   2.612   0.493   5.348 -0.3141 -0.4719  0.7275
  111CHL1  H21A14453   2.549   0.583   5.363  0.5481  0.0881  1.0401
  111CHL1  H21B14454   2.651   0.487   5.244 -1.6692 -1.1781  0.2426
  111CHL1  H21C14455   2.705   0.503   5.408  0.8296  0.4879 -1.1071
  111CHL1   C2214456   2.422   0.319   5.285 -0.2880  0.4296  0.4338
  111CHL1  H22A14457   2.317   0.342   5.310 -0.0062  1.3911  0.7675
  111CHL1  H22B14458   2.443   0.386   5.199  0.2509 -0.1068  0.1349
  111CHL1   C2314459   2.439   0.180   5.223 -0.1668  0.1380  0.6030
  111CHL1  H23A14460   2.545   0.165   5.195 -0.3256 -2.2504  1.1101
  111CHL1  H23B14461   2.427   0.098   5.297  0.9417 -0.6541 -0.0646
  111CHL1   C2414462   2.356   0.164   5.094 -0.2134 -0.7137  0.2507
  111CHL1  H24A14463   2.367   0.250   5.025  1.8553 -0.1367  1.2249
  111CHL1  H24B14464   2.404   0.081   5.038 -0.7804  0.4633 -2.1373
  111CHL1   C2514465   2.215   0.142   5.130  0.7474  0.2483 -0.3216
  111CHL1   H2514466   2.176   0.212   5.207 -0.6666 -2.5949  1.7779
  111CHL1   C2614467   2.139   0.154   5.001  0.5111 -0.3071  0.5790
  111CHL1  H26A14468   2.037   0.112   5.018 -0.4487  1.0983 -1.4359
  111CHL1  H26B14469   2.125   0.259   4.969 -0.0371 -0.7907 -0.8553
  111CHL1  H26C14470   2.200   0.103   4.924  1.4204  1.7812 -0.1333
  111CHL1   C2714471   2.198   0.005   5.196 -0.6526  0.0414 -0.1826
  111CHL1  H27A14472   2.224  -0.078   5.127  2.8625  1.2344 -0.4884
  111CHL1  H27B14473   2.270  -0.008   5.280  0.6744  0.2081 -1.2560
  111CHL1  H27C14474   2.095  -0.006   5.236 -1.0648 -2.1753 -1.7091
  112CHL1    C314475   3.299   7.467   6.159 -0.8946 -0.5716 -0.0367
  112CHL1    H314476   3.191   7.456   6.138 -0.9962 -2.3975  1.1480
  112CHL1    O314477   3.321   7.423   6.298  0.6812 -0.4194  0.4017
  112CHL1   H3'14478   3.275   7.340   6.307  1.6986 -0.9505  0.8645
  112CHL1    C414479   3.378   7.382   6.062 -0.8166  0.7737  0.2974
  112CHL1   H4A14480   3.486   7.388   6.088 -0.2333 -1.1391 -1.3946
  112CHL1   H4B14481   3.346   7.279   6.086 -0.7645  0.9981  1.3685
  112CHL1    C514482   3.355   7.430   5.919 -0.6163 -0.7579 -0.6727
  112CHL1    C614483   3.309   7.346   5.830 -0.0443 -0.2659 -0.2632
  112CHL1    H614484   3.311   7.239   5.855  0.1544 -0.1853  0.0803
  112CHL1    C714485   3.299   7.373   5.684  0.3680  0.4768  0.0954
  112CHL1   H7A14486   3.335   7.290   5.621 -1.0555  0.0927 -0.2511
  112CHL1   H7B14487   3.194   7.400   5.660 -0.0427  0.2346  1.4967
  112CHL1    C814488   3.379   7.502   5.645  0.1768 -0.5183 -0.6962
  112CHL1    H814489   3.484   7.470   5.659  0.1319 -0.2179  0.3736
  112CHL1   C1414490   3.341   7.550   5.505  0.1567 -0.8078 -0.8582
  112CHL1   H1414491   3.233   7.576   5.507  0.2301 -0.5201 -0.6028
  112CHL1   C1514492   3.351   7.459   5.381 -0.2930  0.3316 -0.9621
  112CHL1  H15A14493   3.447   7.403   5.388 -0.5542 -0.0153  0.0140
  112CHL1  H15B14494   3.276   7.378   5.379  0.5760 -0.5606  0.6107
  112CHL1   C1614495   3.347   7.558   5.264  1.0679  0.4856  1.4860
  112CHL1  H16A14496   3.427   7.516   5.200 -0.4657 -2.4492  1.2701
  112CHL1  H16B14497   3.248   7.541   5.216  1.8567  1.0962 -0.4144
  112CHL1   C1714498   3.356   7.702   5.318  0.6048 -0.0371 -0.2025
  112CHL1   H1714499   3.254   7.739   5.344  0.5723 -0.6027  0.5205
  112CHL1   C1314500   3.409   7.683   5.464 -0.7748  0.2012  0.4828
  112CHL1   C1814501   3.564   7.663   5.463 -0.7419  0.1031 -0.0072
  112CHL1  H18A14502   3.614   7.761   5.447  3.3455 -2.1097 -2.7706
  112CHL1  H18B14503   3.593   7.614   5.558 -0.3148  1.3789  0.5411
  112CHL1  H18C14504   3.602   7.604   5.377  0.9461  1.4329 -0.2329
  112CHL1   C1214505   3.360   7.792   5.562 -1.1023  0.2621 -0.3617
  112CHL1  H12A14506   3.408   7.889   5.538  0.6875  0.1398  2.3374
  112CHL1  H12B14507   3.252   7.810   5.542 -0.9445  2.9499  0.7788
  112CHL1   C1114508   3.395   7.757   5.708  0.0667  0.2137 -0.8520
  112CHL1  H11A14509   3.505   7.747   5.717 -0.0113  0.6422  0.9270
  112CHL1  H11B14510   3.370   7.845   5.771 -1.2891  1.2139 -2.6722
  112CHL1    C914511   3.346   7.615   5.750  0.3513  0.3378  0.2734
  112CHL1    H914512   3.237   7.623   5.734  0.3838 -0.8007 -0.6185
  112CHL1   C1014513   3.384   7.577   5.893  0.5145 -0.1595 -0.2964
  112CHL1   C1914514   3.539   7.591   5.907  0.5200  0.7919 -1.2291
  112CHL1  H19A14515   3.596   7.547   5.823  0.5108 -1.0139 -0.3528
  112CHL1  H19B14516   3.564   7.699   5.908 -0.4802  1.1131  1.9639
  112CHL1  H19C14517   3.577   7.551   6.004 -1.3529  0.1959 -0.7094
  112CHL1    C114518   3.314   7.664   6.004  0.1023  0.2736  0.6320
  112CHL1   H1A14519   3.340   7.771   5.987  0.3892  0.0259 -0.6120
  112CHL1   H1B14520   3.206   7.664   5.978  0.0051  0.6925  1.0175
  112CHL1    C214521   3.337   7.618   6.149  0.3332  0.2123 -0.1968
  112CHL1   H2A14522   3.270   7.682   6.210 -0.0793 -0.3163 -0.0860
  112CHL1   H2B14523   3.439   7.646   6.183 -0.4042  2.0609  0.5855
  112CHL1   C2014524   3.407   7.812   5.223  0.2597  0.3125  0.2153
  112CHL1   H2014525   3.405   7.904   5.284  0.1735  1.1855 -1.0697
  112CHL1   C2114526   3.298   7.822   5.108 -0.5892 -0.3647 -0.5048
  112CHL1  H21A14527   3.284   7.716   5.078  0.4235 -0.6561  0.0060
  112CHL1  H21B14528   3.325   7.895   5.029  1.2583 -0.5464 -0.0858
  112CHL1  H21C14529   3.202   7.861   5.148 -0.6572  0.2197 -1.2094
  112CHL1   C2214530   3.541   7.791   5.151 -0.3505  0.0200  0.0770
  112CHL1  H22A14531   3.612   7.731   5.212 -2.8805 -1.5524  1.6811
  112CHL1  H22B14532   3.509   7.720   5.071  1.5363  0.3905 -1.0662
  112CHL1   C2314533   3.601   7.919   5.099  0.2467 -0.5919 -0.4293
  112CHL1  H23A14534   3.521   7.986   5.059 -0.6913 -1.2467  0.2951
  112CHL1  H23B14535   3.649   7.974   5.182 -0.4330 -1.3846  0.5118
  112CHL1   C2414536   3.701   7.902   4.979  0.0287  0.4458 -0.3965
  112CHL1  H24A14537   3.757   7.998   4.983 -0.4630  0.7130  1.9312
  112CHL1  H24B14538   3.774   7.823   5.007  0.6155  0.6778 -1.2414
  112CHL1   C2514539   3.651   7.874   4.831 -0.2356  0.1692  0.0397
  112CHL1   H2514540   3.544   7.898   4.812 -0.2576 -1.9048 -3.1992
  112CHL1   C2614541   3.734   7.942   4.725  0.0120  0.8750  0.4972
  112CHL1  H26A14542   3.835   7.897   4.714 -1.5970 -2.6909 -1.5887
  112CHL1  H26B14543   3.686   7.912   4.629  0.6092  0.5245  0.3031
  112CHL1  H26C14544   3.743   8.052   4.738  1.5378  0.8741 -0.3068
  112CHL1   C2714545   3.657   7.719   4.801  0.1045  0.0777  0.1862
  112CHL1  H27A14546   3.600   7.689   4.711  0.9528 -0.8487 -0.0517
  112CHL1  H27B14547   3.761   7.694   4.771  0.3565  1.2740 -0.0161
  112CHL1  H27C14548   3.634   7.659   4.892  1.7370 -0.7057  0.1089
  113CHL1    C314549   6.658   3.143   6.478  0.6184 -0.1912  0.5711
  113CHL1    H314550   6.577   3.215   6.501 -0.2176 -1.1511  0.6567
  113CHL1    O314551   6.677   3.059   6.590 -0.1420  0.0651  0.6177
  113CHL1   H3'14552   6.662   2.966   6.574 -0.7346 -0.2860  2.8927
  113CHL1    C414553   6.623   3.045   6.363 -0.0730 -0.2612  0.8538
  113CHL1   H4A14554   6.697   2.962   6.356 -0.7137 -0.8355  0.8514
  113CHL1   H4B14555   6.523   2.999   6.377 -1.4607  1.7688 -1.6164
  113CHL1    C514556   6.623   3.116   6.229 -0.7494  0.0697 -0.5070
  113CHL1    C614557   6.519   3.105   6.142 -0.4139  0.1686 -0.0483
  113CHL1    H614558   6.440   3.041   6.183  0.1676  0.3897  1.4621
  113CHL1    C714559   6.516   3.165   6.002 -0.0144  0.1784  0.1586
  113CHL1   H7A14560   6.478   3.093   5.927 -2.2282 -0.5783  1.8979
  113CHL1   H7B14561   6.436   3.241   5.988  1.6053  1.5617 -2.3814
  113CHL1    C814562   6.651   3.228   5.966  0.0730 -0.6664 -0.0828
  113CHL1    H814563   6.714   3.142   5.937 -0.4808 -1.5837  1.3463
  113CHL1   C1414564   6.635   3.330   5.845 -0.5942  0.3150 -0.3880
  113CHL1   H1414565   6.582   3.423   5.877  1.3670  1.1265  0.7354
  113CHL1   C1514566   6.562   3.287   5.727 -0.0484 -0.7375 -0.4397
  113CHL1  H15A14567   6.603   3.191   5.689  2.3149  0.0034  0.0927
  113CHL1  H15B14568   6.457   3.278   5.763  0.1252  1.7854  0.9058
  113CHL1   C1614569   6.579   3.406   5.627  0.2060 -0.0689  0.0084
  113CHL1  H16A14570   6.575   3.381   5.519  0.5738 -0.5945  0.1110
  113CHL1  H16B14571   6.498   3.478   5.650  0.3461  0.9968 -2.4905
  113CHL1   C1714572   6.714   3.481   5.672  0.5154  1.1892 -0.0197
  113CHL1   H1714573   6.682   3.581   5.709 -1.4864  0.4206  0.5015
  113CHL1   C1314574   6.771   3.393   5.795  0.2844  0.5012 -0.0616
  113CHL1   C1814575   6.857   3.287   5.737 -0.7043 -0.7022  0.0655
  113CHL1  H18A14576   6.811   3.232   5.652 -3.5703  0.5426  0.6860
  113CHL1  H18B14577   6.958   3.321   5.707  0.0611 -2.0679  0.9878
  113CHL1  H18C14578   6.872   3.196   5.799 -0.1534 -0.2548  0.5946
  113CHL1   C1214579   6.835   3.469   5.913 -0.0788  0.5743 -0.2711
  113CHL1  H12A14580   6.932   3.516   5.888  0.3341 -0.0026  0.2075
  113CHL1  H12B14581   6.769   3.552   5.947 -1.2198 -0.3291 -0.1975
  113CHL1   C1114582   6.858   3.366   6.031 -0.2769 -0.2854  0.4519
  113CHL1  H11A14583   6.933   3.291   5.997 -1.8064 -1.7353  0.1279
  113CHL1  H11B14584   6.906   3.429   6.109 -0.4972  0.3650  0.0709
  113CHL1    C914585   6.726   3.303   6.079  0.7057  0.5636 -0.0903
  113CHL1    H914586   6.654   3.381   6.112  0.0361  0.9631 -2.3400
  113CHL1   C1014587   6.748   3.212   6.199  0.1310  0.3250 -0.2049
  113CHL1   C1914588   6.864   3.113   6.168  0.0509 -0.6014  0.1840
  113CHL1  H19A14589   6.962   3.164   6.182 -1.5746  2.1644  2.6386
  113CHL1  H19B14590   6.864   3.020   6.229 -0.8787 -0.7807 -0.0677
  113CHL1  H19C14591   6.848   3.079   6.064 -1.5503 -1.2141  0.5984
  113CHL1    C114592   6.783   3.294   6.321  1.0910  0.7862  0.0639
  113CHL1   H1A14593   6.885   3.338   6.316 -0.1538  3.9213  0.0794
  113CHL1   H1B14594   6.710   3.375   6.343  1.0318  0.1091  2.5736
  113CHL1    C214595   6.787   3.215   6.451  0.2638 -0.4328 -0.0503
  113CHL1   H2A14596   6.796   3.297   6.525 -0.6016 -0.7475  0.4203
  113CHL1   H2B14597   6.875   3.148   6.453 -0.3829 -1.2940  1.1758
  113CHL1   C2014598   6.808   3.518   5.563  0.1083 -0.1395  0.0628
  113CHL1   H2014599   6.851   3.423   5.524 -0.7962 -0.5749  0.1178
  113CHL1   C2114600   6.914   3.622   5.604  0.3163  0.7055  0.0474
  113CHL1  H21A14601   7.006   3.625   5.541  0.6086  1.1005  0.4826
  113CHL1  H21B14602   6.957   3.590   5.701 -3.7077 -0.5171  1.6235
  113CHL1  H21C14603   6.868   3.722   5.616  0.1371  0.8349 -1.5546
  113CHL1   C2214604   6.741   3.574   5.440 -0.2988  0.2802  0.3363
  113CHL1  H22A14605   6.677   3.504   5.382  0.1579  0.9936 -1.0876
  113CHL1  H22B14606   6.681   3.659   5.477 -0.8435 -0.2976  0.8060
  113CHL1   C2314607   6.839   3.645   5.343 -0.1742 -0.6535 -0.0212
  113CHL1  H23A14608   6.884   3.731   5.396  1.3235 -1.6966  0.4814
  113CHL1  H23B14609   6.924   3.580   5.312  1.1252  1.6137 -1.5150
  113CHL1   C2414610   6.765   3.706   5.225 -0.9449 -0.3290  0.5614
  113CHL1  H24A14611   6.727   3.637   5.147  2.8970 -0.3126 -1.5481
  113CHL1  H24B14612   6.688   3.784   5.247 -0.4960  1.2729 -2.8927
  113CHL1   C2514613   6.867   3.781   5.135 -0.0074 -0.8376 -0.2466
  113CHL1   H2514614   6.942   3.846   5.184 -1.7502  1.1021  0.0300
  113CHL1   C2614615   6.946   3.686   5.040  0.6007 -0.1411  0.1276
  113CHL1  H26A14616   6.885   3.601   5.003  1.1655 -0.3740 -0.2876
  113CHL1  H26B14617   6.983   3.752   4.959  2.4538  0.2805  1.2327
  113CHL1  H26C14618   7.039   3.654   5.092  2.4643  1.4099 -2.0656
  113CHL1   C2714619   6.781   3.868   5.044  0.2845  0.6172 -0.6514
  113CHL1  H27A14620   6.835   3.945   4.984 -1.5867  2.1138 -0.4861
  113CHL1  H27B14621   6.723   3.797   4.982  1.4039 -1.0962  0.1801
  113CHL1  H27C14622   6.711   3.918   5.113 -1.4758 -2.6651  0.1168
  114CHL1    C314623   5.561   6.489   6.527 -0.7662 -0.0401 -0.6174
  114CHL1    H314624   5.615   6.568   6.471 -0.5219 -0.1672 -0.5645
  114CHL1    O314625   5.561   6.516   6.664 -0.1195 -0.3205 -0.7722
  114CHL1   H3'14626   5.518   6.442   6.707 -0.4528 -0.7479 -1.8297
  114CHL1    C414627   5.414   6.470   6.485  1.0680 -0.3954 -0.0987
  114CHL1   H4A14628   5.357   6.409   6.558  0.1671 -1.0651 -1.3343
  114CHL1   H4B14629   5.369   6.569   6.468  0.3699 -0.5046  0.9880
  114CHL1    C514630   5.401   6.392   6.355 -0.3196  0.5975  0.0688
  114CHL1    C614631   5.335   6.440   6.248 -0.2820 -0.1698 -0.7630
  114CHL1    H614632   5.282   6.535   6.270 -0.3177 -0.4195  0.2860
  114CHL1    C714633   5.329   6.368   6.115 -0.2388  0.2234 -0.3241
  114CHL1   H7A14634   5.228   6.367   6.069 -0.3531  3.6813 -0.4198
  114CHL1   H7B14635   5.395   6.428   6.049 -1.3904  1.8139 -0.0867
  114CHL1    C814636   5.371   6.223   6.119 -0.6251  0.0101  0.4060
  114CHL1    H814637   5.289   6.167   6.169  0.1112 -2.7328 -1.2416
  114CHL1   C1414638   5.384   6.168   5.975 -0.5017 -0.7698 -0.4408
  114CHL1   H1414639   5.467   6.232   5.938  0.0250 -1.4822 -0.5109
  114CHL1   C1514640   5.268   6.184   5.883  0.0426  0.1303 -0.1386
  114CHL1  H15A14641   5.177   6.165   5.943 -0.8204 -0.1854 -1.4879
  114CHL1  H15B14642   5.248   6.286   5.842 -0.7218 -0.4147 -1.1797
  114CHL1   C1614643   5.288   6.080   5.769  0.2870 -0.4735  0.2738
  114CHL1  H16A14644   5.195   6.019   5.770 -0.6220  0.8190  2.5580
  114CHL1  H16B14645   5.301   6.129   5.670 -0.4734  1.5401  1.1209
  114CHL1   C1714646   5.419   6.010   5.816 -0.7315 -0.3104  0.5616
  114CHL1   H1714647   5.501   6.074   5.778  1.0745 -2.6027  0.4371
  114CHL1   C1314648   5.431   6.023   5.965  0.1345  0.0912  0.0881
  114CHL1   C1814649   5.333   5.925   6.029  0.0884  0.3726  0.2284
  114CHL1  H18A14650   5.231   5.927   5.986 -0.3096  2.2305  1.1197
  114CHL1  H18B14651   5.368   5.820   6.024 -1.0083 -0.3200  3.8794
  114CHL1  H18C14652   5.313   5.954   6.135 -0.6920  1.6972 -0.2598
  114CHL1   C1214653   5.567   6.012   6.045  0.2901 -0.3977  0.3349
  114CHL1  H12A14654   5.603   5.907   6.036  2.0108  0.2081 -0.3470
  114CHL1  H12B14655   5.639   6.081   5.997  1.1697 -0.3760  1.6387
  114CHL1   C1114656   5.550   6.063   6.190 -0.1532  0.9159 -0.2128
  114CHL1  H11A14657   5.493   5.993   6.256  0.8164 -0.3498 -0.6841
  114CHL1  H11B14658   5.655   6.050   6.224 -0.6110  0.7522  1.2125
  114CHL1    C914659   5.495   6.196   6.204  0.2148  0.2029  0.1087
  114CHL1    H914660   5.569   6.261   6.152  0.3369  0.0170  0.0478
  114CHL1   C1014661   5.484   6.261   6.348  0.1438  0.5388 -0.0408
  114CHL1   C1914662   5.424   6.160   6.447 -0.5295 -0.3965 -0.3680
  114CHL1  H19A14663   5.486   6.068   6.452  0.2899  0.1766  0.5134
  114CHL1  H19B14664   5.417   6.197   6.551 -1.1670 -1.6400  0.0549
  114CHL1  H19C14665   5.325   6.119   6.418  0.5880 -3.1068 -0.6286
  114CHL1    C114666   5.628   6.303   6.388  0.3327  0.6801  0.1964
  114CHL1   H1A14667   5.697   6.216   6.379 -1.0928 -0.3924 -0.5909
  114CHL1   H1B14668   5.661   6.371   6.307  0.4137 -2.2715 -2.4153
  114CHL1    C214669   5.644   6.365   6.517 -0.1805  0.4295 -0.9385
  114CHL1   H2A14670   5.751   6.389   6.536  0.3182 -0.2558 -2.6916
  114CHL1   H2B14671   5.620   6.300   6.604  0.8469  0.2640 -0.7657
  114CHL1   C2014672   5.451   5.865   5.757 -0.2159 -0.1406  0.3324
  114CHL1   H2014673   5.438   5.789   5.837 -1.0832 -0.0485  0.2811
  114CHL1   C2114674   5.599   5.872   5.711  0.2456  0.3036 -0.5469
  114CHL1  H21A14675   5.660   5.899   5.800 -0.7404  3.6671 -0.7444
  114CHL1  H21B14676   5.611   5.957   5.641 -0.6996  1.0248  0.1473
  114CHL1  H21C14677   5.642   5.779   5.669  2.4841  0.4405  1.2551
  114CHL1   C2214678   5.359   5.827   5.641 -0.2812 -0.5677 -0.5439
  114CHL1  H22A14679   5.258   5.830   5.689  0.0613 -0.0526  0.1527
  114CHL1  H22B14680   5.371   5.907   5.566 -0.4664 -0.1068 -0.0847
  114CHL1   C2314681   5.393   5.682   5.585 -0.1961  0.6845 -0.0947
  114CHL1  H23A14682   5.486   5.686   5.524 -0.0055 -1.9189 -0.0574
  114CHL1  H23B14683   5.383   5.596   5.654  1.6391 -3.7189 -4.7756
  114CHL1   C2414684   5.297   5.654   5.473 -0.4674 -0.0109  0.5829
  114CHL1  H24A14685   5.192   5.635   5.503 -0.5448 -0.3765  0.1053
  114CHL1  H24B14686   5.298   5.733   5.395  3.1966 -0.4129  0.0283
  114CHL1   C2514687   5.332   5.521   5.392 -0.0922 -0.4196 -0.1408
  114CHL1   H2514688   5.428   5.525   5.336 -0.0573 -2.9284 -0.3868
  114CHL1   C2614689   5.349   5.390   5.476 -0.6329  0.0367 -0.4016
  114CHL1  H26A14690   5.263   5.367   5.543  0.4531 -1.1564  0.6330
  114CHL1  H26B14691   5.376   5.308   5.406  1.3792 -1.1009  1.5679
  114CHL1  H26C14692   5.441   5.382   5.537 -0.2122 -0.7778 -1.1101
  114CHL1   C2714693   5.222   5.499   5.285  0.2557  0.5436 -0.1432
  114CHL1  H27A14694   5.254   5.431   5.203  1.4600  3.5692 -2.3708
  114CHL1  H27B14695   5.126   5.467   5.329 -0.3909  0.5455 -1.4823
  114CHL1  H27C14696   5.205   5.593   5.228 -2.2870 -0.7128 -1.6361
  115CHL1    C314697   1.814   7.188   6.421 -0.8208 -0.3803 -0.1321
  115CHL1    H314698   1.717   7.219   6.467 -0.1558  1.5986 -0.0065
  115CHL1    O314699   1.913   7.143   6.516  0.1219  0.3869 -0.6140
  115CHL1   H3'14700   1.921   7.214   6.580 -0.8663 -0.0983  0.0661
  115CHL1    C414701   1.789   7.079   6.314 -0.5621 -0.2312 -0.6606
  115CHL1   H4A14702   1.890   7.047   6.278 -0.2509  0.4514 -0.4128
  115CHL1   H4B14703   1.750   6.988   6.364 -0.4842  0.2706  0.3315
  115CHL1    C514704   1.700   7.134   6.199 -0.6218 -0.2193  0.0470
  115CHL1    C614705   1.579   7.074   6.170  0.1621  0.0724 -0.4361
  115CHL1    H614706   1.552   6.974   6.206  1.7429 -0.8648 -1.7160
  115CHL1    C714707   1.485   7.116   6.057 -0.1309  0.0686  0.0197
  115CHL1   H7A14708   1.446   7.026   6.003 -2.1557  1.0327 -0.2316
  115CHL1   H7B14709   1.401   7.179   6.093  0.1804  0.5819 -0.1398
  115CHL1    C814710   1.562   7.209   5.959  0.1959 -0.0945  0.6518
  115CHL1    H814711   1.628   7.147   5.895 -1.6551  1.4674 -3.0446
  115CHL1   C1414712   1.460   7.277   5.866 -0.7234  0.2039  0.3634
  115CHL1   H1414713   1.394   7.335   5.935  0.6286  0.1082  1.7951
  115CHL1   C1514714   1.359   7.193   5.784 -0.4989  0.0917 -0.2316
  115CHL1  H15A14715   1.416   7.116   5.726  1.0205 -0.4595  1.8780
  115CHL1  H15B14716   1.296   7.136   5.855 -0.7181  1.2125  0.4863
  115CHL1   C1614717   1.290   7.296   5.699  0.2608  0.1599  0.3219
  115CHL1  H16A14718   1.276   7.255   5.597  2.2313  0.0384  0.0631
  115CHL1  H16B14719   1.183   7.320   5.720 -0.7431 -3.0523 -0.6283
  115CHL1   C1714720   1.385   7.427   5.707 -0.3672 -0.1270  0.1738
  115CHL1   H1714721   1.335   7.484   5.787  1.0133 -0.7450  1.5388
  115CHL1   C1314722   1.516   7.387   5.771 -0.3510 -0.4321  0.6362
  115CHL1   C1814723   1.604   7.322   5.669 -0.2997  0.3043  0.3741
  115CHL1  H18A14724   1.678   7.254   5.717  1.6290  1.9815 -0.1002
  115CHL1  H18B14725   1.550   7.250   5.604 -0.1208 -0.3469  0.9261
  115CHL1  H18C14726   1.643   7.400   5.601 -1.5067  2.1210  1.6809
  115CHL1   C1214727   1.582   7.492   5.862  0.2191  0.2276  0.5024
  115CHL1  H12A14728   1.624   7.573   5.799 -0.0693  0.6700  0.8627
  115CHL1  H12B14729   1.499   7.540   5.919  0.2995  0.8378  0.1174
  115CHL1   C1114730   1.686   7.424   5.941 -0.6771  0.1109  0.5522
  115CHL1  H11A14731   1.775   7.411   5.876  0.9948 -1.7359  2.9770
  115CHL1  H11B14732   1.717   7.508   6.007 -0.8095 -0.3180  1.1750
  115CHL1    C914733   1.637   7.310   6.040 -0.0119 -0.4446 -0.6034
  115CHL1    H914734   1.553   7.348   6.101  0.1367  0.8321 -1.1676
  115CHL1   C1014735   1.749   7.257   6.129  0.0050 -0.2493  0.7105
  115CHL1   C1914736   1.872   7.231   6.040 -0.4182  0.1654  0.0924
  115CHL1  H19A14737   1.859   7.168   5.949  3.1515  0.2094 -0.6069
  115CHL1  H19B14738   1.924   7.323   6.005  0.0983 -0.3147 -0.4310
  115CHL1  H19C14739   1.943   7.174   6.103 -1.4057  0.2232  1.2836
  115CHL1    C114740   1.776   7.362   6.238  0.1268 -0.0023 -0.4077
  115CHL1   H1A14741   1.815   7.456   6.193 -0.7713  1.0335  0.9347
  115CHL1   H1B14742   1.680   7.385   6.289 -0.0636 -1.7482  0.0856
  115CHL1    C214743   1.870   7.314   6.352 -0.5996  0.1944 -0.1374
  115CHL1   H2A14744   1.886   7.405   6.414  1.9446 -0.3783  0.1630
  115CHL1   H2B14745   1.970   7.292   6.307  0.3969  0.8012  1.6877
  115CHL1   C2014746   1.396   7.527   5.590  0.4305 -0.1373 -0.0389
  115CHL1   H2014747   1.494   7.579   5.577 -0.6340  2.0024  0.0927
  115CHL1   C2114748   1.288   7.636   5.607 -0.0900 -0.2075  0.0666
  115CHL1  H21A14749   1.189   7.596   5.574  1.7478 -4.1844 -1.1865
  115CHL1  H21B14750   1.314   7.719   5.537  1.9645 -0.4484  0.4902
  115CHL1  H21C14751   1.297   7.678   5.710  0.9182  0.5512 -0.3129
  115CHL1   C2214752   1.369   7.458   5.451 -0.4248  0.8663  0.0377
  115CHL1  H22A14753   1.444   7.377   5.434 -0.0564  0.9936  1.0062
  115CHL1  H22B14754   1.269   7.410   5.454  0.2162 -0.4866  1.8118
  115CHL1   C2314755   1.375   7.560   5.329  0.6717  0.5232 -0.4467
  115CHL1  H23A14756   1.336   7.506   5.240  0.9456 -0.1669 -0.1501
  115CHL1  H23B14757   1.307   7.645   5.348 -0.8659 -0.6203 -0.6767
  115CHL1   C2414758   1.515   7.630   5.309 -0.2339 -0.3707 -0.3680
  115CHL1  H24A14759   1.531   7.698   5.396  0.6425 -1.1027  0.0649
  115CHL1  H24B14760   1.599   7.559   5.323 -2.0815 -2.7069 -0.5409
  115CHL1   C2514761   1.542   7.707   5.173  0.1712  0.0440  0.2672
  115CHL1   H2514762   1.645   7.747   5.163  0.1803 -0.3789 -1.7929
  115CHL1   C2614763   1.536   7.604   5.057  0.3654 -0.2716 -0.1001
  115CHL1  H26A14764   1.433   7.574   5.029  1.1881 -2.5224 -0.8627
  115CHL1  H26B14765   1.586   7.648   4.967  0.3157  0.1537  0.0798
  115CHL1  H26C14766   1.595   7.514   5.084  1.7442  0.3133 -1.0074
  115CHL1   C2714767   1.446   7.822   5.146 -0.5639  0.0166 -0.0273
  115CHL1  H27A14768   1.484   7.881   5.061  1.5006 -0.1854  0.6929
  115CHL1  H27B14769   1.342   7.786   5.134  0.0881 -1.4868 -1.6160
  115CHL1  H27C14770   1.457   7.884   5.237 -1.2835 -1.2094  0.9300
  116CHL1    C314771   2.792   7.647   6.171  0.1058  0.8014 -0.4686
  116CHL1    H314772   2.711   7.719   6.149 -0.3443  0.2044 -0.7818
  116CHL1    O314773   2.798   7.622   6.311 -0.0733 -1.1832  0.0805
  116CHL1   H3'14774   2.747   7.541   6.316 -0.0959 -1.3935 -2.4920
  116CHL1    C414775   2.751   7.515   6.104 -0.0403  0.6854  0.4376
  116CHL1   H4A14776   2.838   7.449   6.123  0.7549  0.9967 -1.8436
  116CHL1   H4B14777   2.661   7.470   6.152  0.1568 -0.4996 -0.2696
  116CHL1    C514778   2.721   7.536   5.950 -1.0298  0.2646 -0.3000
  116CHL1    C614779   2.599   7.531   5.891 -0.8985  0.6471  0.3670
  116CHL1    H614780   2.512   7.498   5.949 -1.5878  3.2673  0.9367
  116CHL1    C714781   2.579   7.539   5.744  0.2986 -0.6808 -1.2289
  116CHL1   H7A14782   2.505   7.467   5.704 -0.4395 -0.8310  0.3264
  116CHL1   H7B14783   2.539   7.642   5.729  1.6363  0.0175 -0.2190
  116CHL1    C814784   2.710   7.523   5.669 -0.7115 -0.0642 -0.2523
  116CHL1    H814785   2.743   7.418   5.683  1.7563  0.4162 -1.8670
  116CHL1   C1414786   2.690   7.572   5.527 -0.3605  1.0242  0.6369
  116CHL1   H1414787   2.646   7.674   5.529 -1.3891  0.6275 -0.5284
  116CHL1   C1514788   2.588   7.481   5.445 -0.3546 -0.5883  0.6060
  116CHL1  H15A14789   2.612   7.374   5.464  3.2950 -0.3863 -1.8466
  116CHL1  H15B14790   2.488   7.513   5.481 -0.1675  1.2557 -0.3958
  116CHL1   C1614791   2.623   7.505   5.291  0.5515  0.2746  0.7181
  116CHL1  H16A14792   2.652   7.409   5.244  0.5528 -0.7030  2.5979
  116CHL1  H16B14793   2.539   7.550   5.234  2.3038  2.0084 -0.6134
  116CHL1   C1714794   2.742   7.610   5.302  0.2700 -0.7686  0.1684
  116CHL1   H1714795   2.700   7.713   5.305  0.1359 -0.8459  1.5528
  116CHL1   C1314796   2.819   7.582   5.434  0.5891  0.3706  0.0426
  116CHL1   C1814797   2.876   7.437   5.433  0.4026  0.0617 -0.4598
  116CHL1  H18A14798   2.880   7.389   5.533  0.6669  0.9925 -0.0112
  116CHL1  H18B14799   2.811   7.366   5.376  0.3468 -0.6159  0.4403
  116CHL1  H18C14800   2.977   7.425   5.389  1.1520 -0.5034  1.3739
  116CHL1   C1214801   2.914   7.680   5.500  0.3504  0.0992  0.2523
  116CHL1  H12A14802   3.012   7.684   5.448  1.5289  0.3291  2.3673
  116CHL1  H12B14803   2.875   7.784   5.511 -1.3350 -0.1360 -2.6043
  116CHL1   C1114804   2.953   7.639   5.645  0.5398 -0.3704 -0.0691
  116CHL1  H11A14805   3.027   7.556   5.651  1.7199  0.5262 -1.4830
  116CHL1  H11B14806   3.011   7.721   5.694 -2.0768  0.7305  1.3765
  116CHL1    C914807   2.826   7.610   5.733  0.1196 -0.4062  0.0058
  116CHL1    H914808   2.781   7.712   5.743 -2.1802 -1.1768 -1.7263
  116CHL1   C1014809   2.858   7.569   5.883 -0.0295  0.2256 -0.5791
  116CHL1   C1914810   2.966   7.461   5.879  0.0089 -0.2098 -0.0474
  116CHL1  H19A14811   2.925   7.391   5.803 -0.9751  1.0655 -0.7137
  116CHL1  H19B14812   3.069   7.492   5.849 -0.1298 -1.4153 -1.9326
  116CHL1  H19C14813   2.987   7.407   5.974 -0.9485 -0.8646 -0.1943
  116CHL1    C114814   2.912   7.691   5.963  0.2709 -0.0979 -0.7081
  116CHL1   H1A14815   3.007   7.727   5.919  1.4631  2.0107  3.1440
  116CHL1   H1B14816   2.852   7.783   5.943 -0.7885 -0.4335  0.8221
  116CHL1    C214817   2.927   7.685   6.112 -0.2563  0.0934  0.0023
  116CHL1   H2A14818   2.966   7.782   6.147  0.5085  0.4410 -1.6820
  116CHL1   H2B14819   3.003   7.608   6.138 -0.8733 -0.0934  1.2996
  116CHL1   C2014820   2.836   7.625   5.182  0.3151 -0.2514  0.0767
  116CHL1   H2014821   2.935   7.663   5.216 -0.2714  0.5835  0.8927
  116CHL1   C2114822   2.783   7.742   5.102  0.2553  0.3976  0.5863
  116CHL1  H21A14823   2.782   7.826   5.174  0.9351 -0.5098  1.6955
  116CHL1  H21B14824   2.683   7.713   5.063 -0.6746  1.9616  1.7260
  116CHL1  H21C14825   2.858   7.761   5.023  2.2379 -2.1234  1.7222
  116CHL1   C2214826   2.863   7.498   5.097 -0.0021  0.5883 -0.2951
  116CHL1  H22A14827   2.877   7.409   5.163  1.2604  1.1341  0.2225
  116CHL1  H22B14828   2.782   7.472   5.027 -0.6380 -1.1414  0.9996
  116CHL1   C2314829   3.001   7.521   5.034 -0.0630  0.2163  0.7919
  116CHL1  H23A14830   2.991   7.600   4.957 -0.0459 -1.0119 -0.5270
  116CHL1  H23B14831   3.080   7.551   5.107  1.8869 -0.2732 -1.0097
  116CHL1   C2414832   3.054   7.398   4.967 -0.4979  0.5231  0.1663
  116CHL1  H24A14833   3.107   7.341   5.047 -0.3270 -2.6887 -2.0389
  116CHL1  H24B14834   2.977   7.328   4.929 -1.1047  0.6165  1.2038
  116CHL1   C2514835   3.153   7.419   4.851 -0.2735  0.4030  0.0008
  116CHL1   H2514836   3.108   7.502   4.792  0.4945  0.9272  0.1344
  116CHL1   C2614837   3.288   7.463   4.904  0.0691  0.1610  0.1769
  116CHL1  H26A14838   3.351   7.492   4.818 -3.5548 -1.6050 -3.3857
  116CHL1  H26B14839   3.276   7.559   4.960  2.4847  1.9318 -2.1132
  116CHL1  H26C14840   3.356   7.390   4.952  1.9937 -1.8241 -4.8958
  116CHL1   C2714841   3.153   7.297   4.756 -0.0546 -0.3893  0.7539
  116CHL1  H27A14842   3.051   7.301   4.713 -0.7647  4.0007  2.2589
  116CHL1  H27B14843   3.232   7.326   4.684 -2.1419 -0.2833 -1.6032
  116CHL1  H27C14844   3.172   7.202   4.810 -0.1682 -1.3041 -0.7751
  117CHL1    C314845   5.596   6.978   6.341 -0.1369 -0.1527  0.3558
  117CHL1    H314846   5.697   6.941   6.370 -0.6883 -1.9824  0.0505
  117CHL1    O314847   5.520   7.022   6.453 -0.0572  0.7538  0.5126
  117CHL1   H3'14848   5.584   7.076   6.501  0.7793  1.6242 -1.5071
  117CHL1    C414849   5.625   7.094   6.239  0.2040 -0.0198 -0.0127
  117CHL1   H4A14850   5.531   7.150   6.224  0.8221  0.7899 -1.0371
  117CHL1   H4B14851   5.699   7.164   6.282 -1.4590  0.1874  2.6901
  117CHL1    C514852   5.683   7.042   6.105 -0.2355  0.0648 -0.2706
  117CHL1    C614853   5.799   7.086   6.045 -0.1614  0.3216  0.0073
  117CHL1    H614854   5.849   7.175   6.088  0.2634 -0.7397  1.7962
  117CHL1    C714855   5.850   7.037   5.917 -0.8577  0.3317 -0.7729
  117CHL1   H7A14856   5.898   7.113   5.853 -0.2595 -0.8455 -1.7674
  117CHL1   H7B14857   5.927   6.959   5.938 -0.6351  0.9237  0.7408
  117CHL1    C814858   5.745   6.966   5.832  0.0702  0.5805 -0.5017
  117CHL1    H814859   5.677   7.048   5.803  1.9930  2.4670  0.1007
  117CHL1   C1414860   5.806   6.898   5.710  0.5691 -0.4986 -0.5946
  117CHL1   H1414861   5.890   6.837   5.752  1.9325  2.7130  1.7344
  117CHL1   C1514862   5.884   6.993   5.613  0.6707 -0.0148  0.0288
  117CHL1  H15A14863   5.821   7.084   5.607 -1.6552 -1.5428 -0.2392
  117CHL1  H15B14864   5.987   7.015   5.647  0.2875  1.9845 -0.0200
  117CHL1   C1614865   5.889   6.912   5.485 -0.0558  0.1323 -0.0316
  117CHL1  H16A14866   5.843   6.971   5.403  1.8430  0.5063 -0.8958
  117CHL1  H16B14867   5.989   6.868   5.464  0.1023  0.9820 -1.2166
  117CHL1   C1714868   5.804   6.783   5.509  0.1401 -0.0270  0.7205
  117CHL1   H1714869   5.873   6.717   5.565 -1.8605 -0.3421  2.9710
  117CHL1   C1314870   5.710   6.817   5.627 -0.1001 -0.1499  0.0016
  117CHL1   C1814871   5.599   6.906   5.561 -0.5760  0.1781 -0.5125
  117CHL1  H18A14872   5.537   6.848   5.489 -4.1927  0.3174  2.1570
  117CHL1  H18B14873   5.519   6.931   5.634  0.0728  2.6537 -0.5874
  117CHL1  H18C14874   5.634   7.001   5.517 -1.6315  1.3604  1.0986
  117CHL1   C1214875   5.656   6.699   5.708  0.4375 -0.0657 -0.5053
  117CHL1  H12A14876   5.592   6.640   5.639  0.7832 -0.1010 -0.8005
  117CHL1  H12B14877   5.748   6.641   5.733  0.7417  0.1363 -1.1478
  117CHL1   C1114878   5.588   6.754   5.829  0.5027  0.6290 -0.0171
  117CHL1  H11A14879   5.496   6.805   5.792 -0.3830 -1.3216 -0.5983
  117CHL1  H11B14880   5.567   6.671   5.899  1.6251  0.3887  0.0592
  117CHL1    C914881   5.676   6.854   5.912  0.2844 -0.0067  0.5176
  117CHL1    H914882   5.754   6.786   5.952 -0.9445 -1.6613  0.1815
  117CHL1   C1014883   5.607   6.916   6.042 -0.1404 -0.3682  0.0175
  117CHL1   C1914884   5.468   6.968   5.999 -0.1882  0.7759 -0.1909
  117CHL1  H19A14885   5.400   6.884   5.975  0.5845  0.5301 -1.6807
  117CHL1  H19B14886   5.427   7.029   6.081 -1.0498  1.0226 -0.7980
  117CHL1  H19C14887   5.475   7.040   5.915 -0.9805 -2.6447 -3.5168
  117CHL1    C114888   5.587   6.804   6.152  0.2910 -0.4090 -0.2105
  117CHL1   H1A14889   5.525   6.724   6.105  0.0775  0.5017 -1.5449
  117CHL1   H1B14890   5.686   6.767   6.183 -0.1863  0.3809  2.5543
  117CHL1    C214891   5.520   6.856   6.279 -0.0379  1.0509 -0.9983
  117CHL1   H2A14892   5.519   6.778   6.357 -1.7265  0.9775 -1.0632
  117CHL1   H2B14893   5.418   6.890   6.254  0.1169  1.2583 -1.3605
  117CHL1   C2014894   5.747   6.711   5.388 -0.3810  0.2559  0.3799
  117CHL1   H2014895   5.665   6.642   5.418 -1.3000  0.5764 -1.2750
  117CHL1   C2114896   5.873   6.621   5.346  0.0490  0.1966  0.2624
  117CHL1  H21A14897   5.894   6.541   5.419  2.6167  0.3777 -0.2122
  117CHL1  H21B14898   5.954   6.690   5.314 -0.7646  0.4122 -1.5184
  117CHL1  H21C14899   5.833   6.568   5.257 -0.4239 -0.0831  0.6397
  117CHL1   C2214900   5.691   6.789   5.271 -0.4902 -0.3392 -0.1890
  117CHL1  H22A14901   5.635   6.880   5.300  0.7688  0.0172  1.2896
  117CHL1  H22B14902   5.770   6.835   5.207 -1.9164  2.3451 -0.1505
  117CHL1   C2314903   5.584   6.717   5.190  0.7482  0.5108 -0.0346
  117CHL1  H23A14904   5.624   6.643   5.118 -1.9611  0.8854 -2.1319
  117CHL1  H23B14905   5.505   6.675   5.255  2.0349 -0.2440  1.0722
  117CHL1   C2414906   5.504   6.805   5.087 -0.5584 -0.4256  0.4605
  117CHL1  H24A14907   5.461   6.892   5.139  0.1507  1.4781 -1.9456
  117CHL1  H24B14908   5.569   6.842   5.005 -1.8425 -0.2466 -0.5078
  117CHL1   C2514909   5.390   6.728   5.011 -0.8124 -0.2299  0.2047
  117CHL1   H2514910   5.311   6.695   5.081 -0.2135  0.6865  1.3562
  117CHL1   C2614911   5.325   6.819   4.902 -0.0304  0.0826  0.4196
  117CHL1  H26A14912   5.396   6.876   4.838 -0.2622  0.5336  0.5638
  117CHL1  H26B14913   5.262   6.758   4.835 -1.1657  1.2735  0.3691
  117CHL1  H26C14914   5.256   6.885   4.959  2.4595  0.1112  3.7255
  117CHL1   C2714915   5.444   6.599   4.932  1.0158 -0.1518 -0.2442
  117CHL1  H27A14916   5.497   6.633   4.840 -0.7865  1.2796 -0.7893
  117CHL1  H27B14917   5.501   6.532   5.000  1.5878 -1.2811 -1.7547
  117CHL1  H27C14918   5.352   6.542   4.907 -0.8274  2.5254  0.1135
  118CHL1    C314919   6.174   0.355   6.238 -0.4469  0.0921 -0.0942
  118CHL1    H314920   6.178   0.441   6.308  2.7530  0.8939 -1.0861
  118CHL1    O314921   6.167   0.240   6.313 -0.1653  0.2126 -0.8538
  118CHL1   H3'14922   6.237   0.180   6.283 -1.0630 -1.9843  1.1652
  118CHL1    C414923   6.054   0.355   6.135 -0.1304 -0.2253 -0.7457
  118CHL1   H4A14924   6.052   0.250   6.099 -2.3917 -0.7073  0.5910
  118CHL1   H4B14925   5.971   0.360   6.208  1.6887 -0.1504  1.4050
  118CHL1    C514926   6.064   0.460   6.023 -0.1781 -0.5314  0.0158
  118CHL1    C614927   5.970   0.549   5.986 -0.0692 -0.2925 -0.1168
  118CHL1    H614928   5.869   0.542   6.030 -0.5734 -1.2162 -1.3360
  118CHL1    C714929   5.979   0.651   5.877  0.0471 -0.0864  0.0988
  118CHL1   H7A14930   5.891   0.638   5.810  0.1133 -1.7818  0.2933
  118CHL1   H7B14931   5.987   0.752   5.921 -3.0235  0.7128 -0.8979
  118CHL1    C814932   6.099   0.630   5.780  0.4186 -0.3694 -0.2573
  118CHL1    H814933   6.079   0.543   5.714 -1.8421 -0.2053  0.1243
  118CHL1   C1414934   6.119   0.750   5.702  0.3488 -0.5557  0.4691
  118CHL1   H1414935   6.138   0.831   5.776  3.3425 -0.5304 -0.2027
  118CHL1   C1514936   5.995   0.804   5.619  0.5487 -0.4016 -0.0899
  118CHL1  H15A14937   5.942   0.717   5.576  0.9394 -1.1001  0.8156
  118CHL1  H15B14938   5.921   0.864   5.676 -2.3404 -2.1143 -1.8363
  118CHL1   C1614939   6.061   0.889   5.505  0.1393  0.6493  0.2008
  118CHL1  H16A14940   6.018   0.871   5.404 -0.4561 -0.6396  0.6671
  118CHL1  H16B14941   6.044   0.998   5.517  0.0288  0.6582 -0.0368
  118CHL1   C1714942   6.216   0.872   5.520  0.0829 -0.7742 -0.1857
  118CHL1   H1714943   6.251   0.950   5.592  1.8105 -3.2567  1.8178
  118CHL1   C1314944   6.235   0.741   5.599 -0.1080  0.0044  0.5108
  118CHL1   C1814945   6.229   0.619   5.499  0.6309  0.2808  0.2568
  118CHL1  H18A14946   6.330   0.609   5.455  0.5226  0.7597 -0.1093
  118CHL1  H18B14947   6.212   0.528   5.560  0.9576  0.5088  0.6958
  118CHL1  H18C14948   6.147   0.618   5.424 -0.1999  0.1217  1.1304
  118CHL1   C1214949   6.368   0.722   5.683  0.0016 -0.2801 -0.0672
  118CHL1  H12A14950   6.445   0.691   5.609 -1.2565 -2.4027 -0.5828
  118CHL1  H12B14951   6.409   0.811   5.736 -1.9857 -0.4653  1.9212
  118CHL1   C1114952   6.356   0.595   5.772  0.6482  0.1959  0.2133
  118CHL1  H11A14953   6.357   0.506   5.706  0.3840  0.2551  0.1273
  118CHL1  H11B14954   6.450   0.593   5.831  0.8202 -1.9190 -0.0580
  118CHL1    C914955   6.230   0.603   5.864  0.4270 -0.4821  0.5839
  118CHL1    H914956   6.232   0.691   5.931 -1.4160 -0.2466  0.3884
  118CHL1   C1014957   6.206   0.471   5.958  0.5272 -0.1839  0.6254
  118CHL1   C1914958   6.235   0.339   5.870 -0.5634  0.3043  0.3687
  118CHL1  H19A14959   6.165   0.354   5.785  1.1163  4.3568 -0.5509
  118CHL1  H19B14960   6.336   0.337   5.825 -1.2113 -0.2604 -1.1054
  118CHL1  H19C14961   6.219   0.242   5.921  1.1329 -0.3797 -0.3611
  118CHL1    C114962   6.307   0.481   6.079 -0.7281 -0.2847 -0.0987
  118CHL1   H1A14963   6.408   0.487   6.034 -0.4673 -1.1119  0.3593
  118CHL1   H1B14964   6.292   0.574   6.139  1.4324 -0.1641  0.3313
  118CHL1    C214965   6.317   0.365   6.176  0.2826  0.2048  0.8465
  118CHL1   H2A14966   6.399   0.393   6.245  0.1468 -0.8981  1.4925
  118CHL1   H2B14967   6.333   0.275   6.113 -1.4343  0.4500 -0.0114
  118CHL1   C2014968   6.301   0.894   5.396  0.5599  0.1020 -0.3026
  118CHL1   H2014969   6.293   0.809   5.325 -0.2783 -0.2896  0.2421
  118CHL1   C2114970   6.443   0.915   5.437 -0.4869 -0.1686 -0.9980
  118CHL1  H21A14971   6.495   0.832   5.488 -0.5469 -0.2048 -0.9953
  118CHL1  H21B14972   6.461   1.001   5.504  3.5412 -0.7797 -1.0786
  118CHL1  H21C14973   6.504   0.933   5.346 -1.8653  1.4667 -1.6635
  118CHL1   C2214974   6.253   1.021   5.308  0.9578  0.1283 -0.1795
  118CHL1  H22A14975   6.148   0.998   5.277  0.2017 -0.7106  2.6769
  118CHL1  H22B14976   6.250   1.113   5.369  0.7301  0.4299 -0.6350
  118CHL1   C2314977   6.331   1.046   5.178 -0.2423 -0.6356 -0.4076
  118CHL1  H23A14978   6.436   1.073   5.199  0.3034 -1.7522 -1.6060
  118CHL1  H23B14979   6.349   0.945   5.134  1.0690 -0.5022 -0.2032
  118CHL1   C2414980   6.271   1.149   5.077 -0.2806  0.5205  0.4579
  118CHL1  H24A14981   6.188   1.097   5.025 -1.1400  0.2900  2.0134
  118CHL1  H24B14982   6.232   1.235   5.135 -3.3788 -1.4459  1.5426
  118CHL1   C2514983   6.374   1.198   4.973  0.0079  0.3125  0.2851
  118CHL1   H2514984   6.462   1.229   5.034  0.0458 -2.3845  1.7267
  118CHL1   C2614985   6.413   1.086   4.882  0.1001  0.5058  1.0918
  118CHL1  H26A14986   6.484   1.137   4.814  0.3413 -2.1803 -0.8415
  118CHL1  H26B14987   6.464   1.000   4.931 -3.2130 -1.8092  0.8804
  118CHL1  H26C14988   6.325   1.043   4.829  0.7922 -0.1340  0.4441
  118CHL1   C2714989   6.310   1.320   4.896 -0.2557  0.2362 -0.0482
  118CHL1  H27A14990   6.221   1.285   4.839  0.9247 -1.3928 -0.9806
  118CHL1  H27B14991   6.287   1.393   4.976  2.8837 -1.6051  2.7650
  118CHL1  H27C14992   6.379   1.372   4.827 -1.0881  0.1243 -0.9890
  119CHL1    C314993   1.617   6.306   6.195 -0.0393 -0.9268  0.0538
  119CHL1    H314994   1.535   6.257   6.140 -1.7001  2.6929 -0.9807
  119CHL1    O314995   1.598   6.293   6.338 -0.5038 -0.6188 -0.0937
  119CHL1   H3'14996   1.631   6.377   6.370 -3.5835  0.6223  0.2316
  119CHL1    C414997   1.754   6.251   6.168 -0.0244  0.3909  0.6649
  119CHL1   H4A14998   1.834   6.299   6.228  0.0988  0.6921  0.2699
  119CHL1   H4B14999   1.749   6.145   6.200 -0.4410 -0.2930 -1.5037
  119CHL1    C515000   1.785   6.265   6.021 -0.2752  0.1761 -0.0096
  119CHL1    C615001   1.805   6.161   5.937 -0.5991  0.6167  0.2199
  119CHL1    H615002   1.822   6.064   5.986  0.1029  0.9878  0.7197
  119CHL1    C715003   1.831   6.155   5.786 -0.4676 -0.8538 -1.1158
  119CHL1   H7A15004   1.916   6.089   5.760  0.0223 -0.1492 -1.3357
  119CHL1   H7B15005   1.731   6.132   5.743 -1.0787 -0.8144  0.2326
  119CHL1    C815006   1.878   6.297   5.745  0.7013 -0.0397 -0.5631
  119CHL1    H815007   1.980   6.309   5.788  1.0059  0.5621 -1.4329
  119CHL1   C1415008   1.872   6.311   5.598  0.0582  0.4595 -0.3353
  119CHL1   H1415009   1.765   6.289   5.578 -0.1618  0.6027  0.6436
  119CHL1   C1515010   1.934   6.206   5.511 -0.5605  0.4349  0.6607
  119CHL1  H15A15011   2.032   6.176   5.553 -0.2008 -1.0067 -1.0864
  119CHL1  H15B15012   1.869   6.116   5.511  1.7349 -1.3217  0.0344
  119CHL1   C1615013   1.950   6.267   5.372 -1.1138 -0.0243 -0.1385
  119CHL1  H16A15014   2.059   6.271   5.353 -0.6926  1.7699  2.2555
  119CHL1  H16B15015   1.901   6.213   5.288 -0.5441 -0.9726  0.1270
  119CHL1   C1715016   1.898   6.414   5.384  0.3306  0.5604 -0.3303
  119CHL1   H1715017   1.793   6.413   5.349  0.7632 -0.6392 -1.7152
  119CHL1   C1315018   1.902   6.443   5.534 -0.0198 -0.8161 -0.0183
  119CHL1   C1815019   2.054   6.472   5.564 -0.0444 -0.6312 -0.1017
  119CHL1  H18A15020   2.116   6.393   5.517 -0.4911 -0.2454 -1.3729
  119CHL1  H18B15021   2.092   6.574   5.540  1.4725 -1.3815 -0.9883
  119CHL1  H18C15022   2.070   6.471   5.674 -1.2930  2.6291  0.2157
  119CHL1   C1215023   1.807   6.548   5.603  0.0818 -0.2145 -0.2337
  119CHL1  H12A15024   1.834   6.652   5.574  1.2045 -0.5170 -0.2860
  119CHL1  H12B15025   1.708   6.527   5.557  0.5560 -2.8098 -0.2129
  119CHL1   C1115026   1.824   6.542   5.753  0.2582 -0.3291 -0.5827
  119CHL1  H11A15027   1.927   6.577   5.776 -0.5681  3.3157 -1.7135
  119CHL1  H11B15028   1.760   6.619   5.801 -0.3070 -0.0110 -1.8198
  119CHL1    C915029   1.789   6.406   5.807  0.0599  0.0640  1.0773
  119CHL1    H915030   1.685   6.383   5.774  1.2012 -2.4549 -1.0522
  119CHL1   C1015031   1.772   6.406   5.965  0.2204  0.2639 -0.3171
  119CHL1   C1915032   1.894   6.487   6.027  0.2715 -0.0275 -0.5641
  119CHL1  H19A15033   1.883   6.596   6.010 -0.1568 -0.0014 -0.1419
  119CHL1  H19B15034   1.910   6.471   6.136  0.5061  1.7523 -0.3208
  119CHL1  H19C15035   1.987   6.462   5.971  1.5447  2.3243  0.3861
  119CHL1    C115036   1.634   6.464   6.007  0.4212  0.6069  0.1597
  119CHL1   H1A15037   1.634   6.570   5.973  1.6792  0.4285 -0.4266
  119CHL1   H1B15038   1.552   6.419   5.947  0.6406 -0.9640  0.9859
  119CHL1    C215039   1.601   6.454   6.158  0.2303 -0.0249  0.0068
  119CHL1   H2A15040   1.497   6.486   6.176  0.5258  0.5123  0.8177
  119CHL1   H2B15041   1.667   6.522   6.217  1.7176 -0.0909 -1.4956
  119CHL1   C2015042   1.960   6.511   5.280 -0.4330  0.1499 -0.3994
  119CHL1   H2015043   2.060   6.543   5.318 -1.2793  0.8485  1.3516
  119CHL1   C2115044   1.875   6.644   5.274 -0.2752  0.6025  0.1180
  119CHL1  H21A15045   1.873   6.689   5.376  1.1698 -0.7620  0.7680
  119CHL1  H21B15046   1.767   6.633   5.247 -0.5077  3.1425 -0.2405
  119CHL1  H21C15047   1.906   6.724   5.203 -1.6695  0.2651 -0.9195
  119CHL1   C2215048   1.971   6.451   5.139  0.4708 -0.0135 -0.1081
  119CHL1  H22A15049   2.008   6.534   5.076 -1.3223 -0.9634 -2.5587
  119CHL1  H22B15050   2.031   6.358   5.137 -0.5284 -0.7666  1.9079
  119CHL1   C2315051   1.844   6.406   5.069  0.5189  0.0274 -0.6626
  119CHL1  H23A15052   1.791   6.343   5.143 -0.5079  0.8371 -0.6801
  119CHL1  H23B15053   1.775   6.483   5.028 -0.5888 -0.8218 -0.4417
  119CHL1   C2415054   1.883   6.314   4.953  0.1800  0.2169  0.1801
  119CHL1  H24A15055   1.920   6.217   4.992  0.4335  0.6257  0.9790
  119CHL1  H24B15056   1.788   6.290   4.900  0.7971  0.0119 -0.8504
  119CHL1   C2515057   1.980   6.362   4.848  0.1471 -0.4651 -0.1687
  119CHL1   H2515058   2.075   6.394   4.896 -0.4498  0.4614  0.4373
  119CHL1   C2615059   2.013   6.263   4.745 -0.2763 -0.0921 -0.3974
  119CHL1  H26A15060   1.919   6.212   4.716 -1.0650  1.2982 -0.3855
  119CHL1  H26B15061   2.062   6.307   4.656  0.6352 -0.6845 -0.2034
  119CHL1  H26C15062   2.092   6.200   4.791 -0.9246 -1.4298 -1.0858
  119CHL1   C2715063   1.920   6.487   4.783  0.4356 -0.1176  0.7992
  119CHL1  H27A15064   1.895   6.560   4.862 -2.3591  0.5922 -0.5983
  119CHL1  H27B15065   1.982   6.538   4.706  0.4823  0.3379  1.1377
  119CHL1  H27C15066   1.831   6.449   4.728  1.5106 -0.2542 -0.9462
  120CHL1    C315067   7.416   0.039   6.431  0.8243 -0.2949  0.2577
  120CHL1    H315068   7.451   0.144   6.417 -3.4767  1.3522  0.1649
  120CHL1    O315069   7.430   0.018   6.571  0.5008 -0.2428 -0.0704
  120CHL1   H3'15070   7.494  -0.050   6.593  0.6644  0.3061  1.1896
  120CHL1    C415071   7.262   0.028   6.401  0.3937  0.3898  0.0554
  120CHL1   H4A15072   7.220  -0.068   6.436 -0.5278  0.4038 -0.9618
  120CHL1   H4B15073   7.217   0.101   6.472 -1.0393 -1.4594  1.1230
  120CHL1    C515074   7.237   0.057   6.252  0.0704  0.5274 -0.2506
  120CHL1    C615075   7.149   0.156   6.208 -0.2016 -0.7672 -0.4071
  120CHL1    H615076   7.093   0.215   6.282  2.1081 -0.9645  1.6161
  120CHL1    C715077   7.128   0.189   6.061  0.5377 -0.5240  0.9567
  120CHL1   H7A15078   7.021   0.209   6.040  0.9410  1.9285  0.9907
  120CHL1   H7B15079   7.178   0.281   6.025 -2.3099  0.3816 -1.0434
  120CHL1    C815080   7.171   0.071   5.968 -0.3867  0.2722 -0.2201
  120CHL1    H815081   7.110  -0.019   5.987 -1.6948  1.2698  0.4747
  120CHL1   C1415082   7.169   0.112   5.825  0.0562  0.4931 -0.1183
  120CHL1   H1415083   7.241   0.196   5.813  1.8659 -1.1023 -0.9402
  120CHL1   C1515084   7.038   0.158   5.767 -0.3310 -0.4364 -1.1316
  120CHL1  H15A15085   6.953   0.096   5.805 -0.0713  0.5539  1.2627
  120CHL1  H15B15086   7.016   0.259   5.806 -2.0072 -1.8368  1.9740
  120CHL1   C1615087   7.053   0.156   5.615 -0.1667  0.1815 -0.8352
  120CHL1  H16A15088   6.971   0.090   5.579  0.2451  0.6057 -2.6230
  120CHL1  H16B15089   7.035   0.257   5.573 -0.1542  0.5149 -0.0631
  120CHL1   C1715090   7.188   0.085   5.590  0.2878 -0.0392  0.8852
  120CHL1   H1715091   7.260   0.169   5.592 -0.7859  0.9844 -0.7842
  120CHL1   C1315092   7.219   0.012   5.721  0.2173 -0.7470  0.1253
  120CHL1   C1815093   7.140  -0.120   5.725  0.6555  0.5366 -0.1510
  120CHL1  H18A15094   7.033  -0.112   5.696  0.4792  1.6454  0.7564
  120CHL1  H18B15095   7.201  -0.187   5.659  0.9025 -1.2893  1.8084
  120CHL1  H18C15096   7.149  -0.180   5.818 -0.2221  0.0515 -0.3731
  120CHL1   C1215097   7.365  -0.011   5.746  0.4924  0.6874 -0.7525
  120CHL1  H12A15098   7.421  -0.072   5.672  0.3152  0.0230 -0.3530
  120CHL1  H12B15099   7.415   0.088   5.744  0.5124  0.7646  1.3313
  120CHL1   C1115100   7.382  -0.069   5.887  0.4300  0.4139 -0.2223
  120CHL1  H11A15101   7.329  -0.166   5.900 -0.1019  0.5397 -1.3416
  120CHL1  H11B15102   7.491  -0.082   5.903  0.5217 -1.0291 -1.6994
  120CHL1    C915103   7.312   0.019   6.003  0.0337  0.6087 -0.3804
  120CHL1    H915104   7.371   0.113   6.009  0.5273  0.2381  1.1621
  120CHL1   C1015105   7.323  -0.028   6.148  0.1178 -0.1509 -0.8642
  120CHL1   C1915106   7.263  -0.168   6.158 -0.0458 -0.1216  0.1380
  120CHL1  H19A15107   7.249  -0.210   6.260  2.9585  1.3818  1.2790
  120CHL1  H19B15108   7.161  -0.164   6.113 -0.1028  1.0075  0.3479
  120CHL1  H19C15109   7.330  -0.237   6.103 -2.4371 -1.1008 -1.7331
  120CHL1    C115110   7.475  -0.029   6.190 -0.0633  0.1898 -0.2899
  120CHL1   H1A15111   7.523  -0.115   6.139 -0.9558  0.3087 -1.3550
  120CHL1   H1B15112   7.522   0.070   6.168  0.4806  0.5754  2.2681
  120CHL1    C215113   7.497  -0.055   6.345 -0.2529 -0.5681 -0.3668
  120CHL1   H2A15114   7.601  -0.032   6.377 -1.1594  1.8741  1.0780
  120CHL1   H2B15115   7.466  -0.158   6.372 -0.3832 -0.4057  0.1034
  120CHL1   C2015116   7.223   0.025   5.450  0.3044  0.6852 -0.2598
  120CHL1   H2015117   7.310  -0.039   5.476 -0.8029 -1.0100 -0.5576
  120CHL1   C2115118   7.245   0.147   5.350  0.0191  0.9126 -0.1337
  120CHL1  H21A15119   7.340   0.204   5.363  0.7424 -0.1604 -0.5262
  120CHL1  H21B15120   7.155   0.207   5.374  0.4188  0.6056  2.3276
  120CHL1  H21C15121   7.247   0.108   5.246  1.1247  1.3486 -0.2890
  120CHL1   C2215122   7.115  -0.070   5.397 -0.2008  0.3504  0.7665
  120CHL1  H22A15123   7.101  -0.159   5.462  0.4099 -2.3666 -2.5454
  120CHL1  H22B15124   7.018  -0.016   5.405 -0.5835 -0.0910 -0.7395
  120CHL1   C2315125   7.134  -0.131   5.257 -0.3287 -0.1442  0.3051
  120CHL1  H23A15126   7.100  -0.062   5.177  0.9547  0.2308  0.0601
  120CHL1  H23B15127   7.241  -0.146   5.234 -0.7799  0.3003 -2.4256
  120CHL1   C2415128   7.062  -0.264   5.240  0.1648  0.2529  0.3125
  120CHL1  H24A15129   7.097  -0.339   5.314  1.5106 -0.9238 -1.4282
  120CHL1  H24B15130   6.957  -0.239   5.264  0.7618  1.5673  1.6956
  120CHL1   C2515131   7.031  -0.315   5.091 -0.1967 -0.3342 -0.3956
  120CHL1   H2515132   6.985  -0.237   5.027  0.2769  0.9745  0.7910
  120CHL1   C2615133   7.161  -0.358   5.013  0.0384  0.5118 -0.2413
  120CHL1  H26A15134   7.198  -0.458   5.045 -1.9017 -0.3139 -0.4400
  120CHL1  H26B15135   7.133  -0.370   4.906  2.6815 -0.8350 -0.8709
  120CHL1  H26C15136   7.241  -0.285   5.035  0.8388 -1.0646  2.4891
  120CHL1   C2715137   6.933  -0.436   5.096 -0.6020  0.1379 -0.2950
  120CHL1  H27A15138   6.932  -0.497   5.003 -0.2757 -2.1898  1.1468
  120CHL1  H27B15139   6.979  -0.501   5.173  2.1838  1.5962 -0.5843
  120CHL1  H27C15140   6.836  -0.386   5.119 -0.3402  0.1215  0.8978
  121CHL1    C315141   4.569   3.345   3.462  0.8397  0.1585 -0.7981
  121CHL1    H315142   4.511   3.262   3.509  1.7529  0.3390  0.7046
  121CHL1    O315143   4.562   3.334   3.321  0.0721 -0.5359  0.1209
  121CHL1   H3'15144   4.612   3.411   3.293  2.3607 -1.0614  2.3354
  121CHL1    C415145   4.500   3.476   3.508  0.1343 -0.5624 -0.2147
  121CHL1   H4A15146   4.556   3.565   3.472 -0.3695 -0.2244 -0.1738
  121CHL1   H4B15147   4.395   3.471   3.470  0.0988  0.6125 -0.2963
  121CHL1    C515148   4.499   3.494   3.660  0.3755  0.2925  0.0728
  121CHL1    C615149   4.379   3.505   3.727 -0.3875  0.5195  0.2720
  121CHL1    H615150   4.288   3.519   3.668 -0.0510 -1.3201 -0.7522
  121CHL1    C715151   4.355   3.526   3.869 -0.0938  0.0928 -0.0593
  121CHL1   H7A15152   4.272   3.600   3.877  1.4632  1.7846  0.8546
  121CHL1   H7B15153   4.316   3.429   3.908 -1.0125  0.1661 -0.7430
  121CHL1    C815154   4.485   3.556   3.937 -0.1127 -0.5909  0.3207
  121CHL1    H815155   4.515   3.659   3.909 -2.8357  0.2399  0.2134
  121CHL1   C1415156   4.476   3.542   4.089 -0.4301  0.2827  0.6984
  121CHL1   H1415157   4.458   3.434   4.104  2.7802 -0.3069  0.9313
  121CHL1   C1515158   4.356   3.609   4.153 -0.2224 -0.7452 -0.3780
  121CHL1  H15A15159   4.350   3.716   4.123  0.1469 -0.6001  0.0606
  121CHL1  H15B15160   4.255   3.565   4.135 -0.3895  0.5105 -3.1681
  121CHL1   C1615161   4.389   3.600   4.300 -0.1219  0.0401 -0.4203
  121CHL1  H16A15162   4.376   3.699   4.349 -0.5471 -0.0584 -0.3339
  121CHL1  H16B15163   4.319   3.534   4.356 -1.5458  2.1805  0.4462
  121CHL1   C1715164   4.541   3.562   4.321 -0.9791  0.6143  0.3957
  121CHL1   H1715165   4.546   3.452   4.340  2.6282  0.5149 -0.4047
  121CHL1   C1315166   4.598   3.570   4.170 -0.4910  0.5064 -0.5805
  121CHL1   C1815167   4.644   3.707   4.144 -0.4425 -0.0806  0.0897
  121CHL1  H18A15168   4.670   3.724   4.038 -0.2855 -2.1118 -0.2189
  121CHL1  H18B15169   4.552   3.768   4.160  0.2778  1.1469 -0.3466
  121CHL1  H18C15170   4.716   3.745   4.220  0.2581  1.6789 -1.3805
  121CHL1   C1215171   4.701   3.461   4.133  0.2442  0.6029  0.1794
  121CHL1  H12A15172   4.794   3.488   4.188  1.2887 -1.7681 -0.2905
  121CHL1  H12B15173   4.661   3.361   4.161 -2.8729  1.6759 -0.0906
  121CHL1   C1115174   4.737   3.462   3.981  0.7309  0.1085 -0.0825
  121CHL1  H11A15175   4.797   3.555   3.969  1.1149 -0.4136 -2.9454
  121CHL1  H11B15176   4.795   3.376   3.941 -3.4361 -1.8407 -2.6028
  121CHL1    C915177   4.606   3.463   3.882 -0.2038 -0.0533 -0.7588
  121CHL1    H915178   4.559   3.364   3.898 -1.3068  0.0440 -3.0210
  121CHL1   C1015179   4.639   3.478   3.733 -0.0432 -0.1441 -0.2220
  121CHL1   C1915180   4.733   3.598   3.720 -0.4051  0.6172 -0.6541
  121CHL1  H19A15181   4.691   3.688   3.769 -1.5628 -0.9174  1.3161
  121CHL1  H19B15182   4.827   3.558   3.765 -0.6962 -0.8822 -1.3136
  121CHL1  H19C15183   4.774   3.607   3.617 -0.4018  0.4283 -0.6703
  121CHL1    C115184   4.708   3.350   3.677 -0.0222 -1.0301 -1.0563
  121CHL1   H1A15185   4.814   3.351   3.710 -0.1419 -2.2367 -0.5633
  121CHL1   H1B15186   4.654   3.259   3.710  0.6477 -0.8133  0.7249
  121CHL1    C215187   4.713   3.346   3.518 -0.1943 -0.1012 -0.2876
  121CHL1   H2A15188   4.761   3.251   3.487  0.0324 -0.2938  0.6218
  121CHL1   H2B15189   4.756   3.440   3.478 -1.8287  0.7486 -0.1507
  121CHL1   C2015190   4.610   3.625   4.437  0.8649 -0.3189 -0.7019
  121CHL1   H2015191   4.614   3.736   4.429 -0.4834 -0.2223 -0.2205
  121CHL1   C2115192   4.766   3.588   4.441  0.1142  0.4436 -0.1681
  121CHL1  H21A15193   4.822   3.636   4.358 -0.3730 -1.0668 -1.4208
  121CHL1  H21B15194   4.786   3.479   4.448 -1.7804  0.1124  0.7964
  121CHL1  H21C15195   4.807   3.626   4.536 -2.0620  1.4451  0.4507
  121CHL1   C2215196   4.551   3.592   4.576  0.0523 -0.7547 -0.3087
  121CHL1  H22A15197   4.441   3.608   4.571  0.1864 -0.2134 -2.4675
  121CHL1  H22B15198   4.562   3.485   4.605  0.5457 -0.8635 -0.8800
  121CHL1   C2315199   4.596   3.699   4.680  0.4384  0.1185 -0.7574
  121CHL1  H23A15200   4.703   3.685   4.706  0.2491  0.0765  0.0455
  121CHL1  H23B15201   4.581   3.800   4.636  0.9063  1.2488  1.5148
  121CHL1   C2415202   4.523   3.693   4.817  0.6063  0.3313  0.0718
  121CHL1  H24A15203   4.413   3.694   4.798  0.3247 -2.3155  1.0941
  121CHL1  H24B15204   4.523   3.590   4.859 -2.0833 -0.2848 -1.1957
  121CHL1   C2515205   4.559   3.804   4.915  0.3897  0.3362 -0.3717
  121CHL1   H2515206   4.540   3.900   4.863 -1.5951  0.6316  0.8109
  121CHL1   C2615207   4.471   3.800   5.041  0.4634  0.0430 -0.1933
  121CHL1  H26A15208   4.482   3.894   5.100  1.0463 -0.5156  0.6118
  121CHL1  H26B15209   4.362   3.796   5.024  0.2788 -1.9732  1.2092
  121CHL1  H26C15210   4.512   3.709   5.089  0.8765 -1.5376 -3.3022
  121CHL1   C2715211   4.701   3.799   4.965 -0.6355 -0.0838  0.1398
  121CHL1  H27A15212   4.737   3.697   4.990  2.6724  0.2497 -2.6179
  121CHL1  H27B15213   4.772   3.827   4.884 -0.4522 -0.0993  0.2923
  121CHL1  H27C15214   4.720   3.871   5.048 -0.4129 -0.1590  0.1567
  122CHL1    C315215   2.347   3.579   3.798 -0.0720  0.3722  0.1896
  122CHL1    H315216   2.340   3.666   3.867  0.4625  0.5420  0.0352
  122CHL1    O315217   2.254   3.585   3.685 -0.5835 -0.3659  1.0000
  122CHL1   H3'15218   2.265   3.672   3.645  1.5724 -0.1719  1.9116
  122CHL1    C415219   2.494   3.565   3.760 -0.3235  0.3044 -0.2919
  122CHL1   H4A15220   2.491   3.477   3.691 -2.6752  0.4221 -0.4487
  122CHL1   H4B15221   2.523   3.651   3.696 -0.6367  0.9943  0.4741
  122CHL1    C515222   2.586   3.542   3.879 -0.1777  0.2456  0.0554
  122CHL1    C615223   2.695   3.622   3.910  0.2750 -0.4837  0.4186
  122CHL1    H615224   2.711   3.715   3.853 -1.1928  0.7376  1.9103
  122CHL1    C715225   2.788   3.596   4.027  0.8335  0.0463 -0.1784
  122CHL1   H7A15226   2.892   3.631   4.011  0.4642  0.7953 -1.0691
  122CHL1   H7B15227   2.755   3.658   4.114  1.7162  1.2681 -0.6858
  122CHL1    C815228   2.783   3.448   4.072  0.3307 -0.4722  0.0969
  122CHL1    H815229   2.837   3.383   4.000 -2.9161  0.7568 -3.7836
  122CHL1   C1415230   2.845   3.442   4.207 -0.0232 -0.1786  0.3866
  122CHL1   H1415231   2.782   3.502   4.276 -2.3720 -0.8589 -1.0401
  122CHL1   C1515232   2.987   3.501   4.215  0.8007 -0.1894 -0.2732
  122CHL1  H15A15233   3.046   3.467   4.127 -0.3270 -3.1225  0.0199
  122CHL1  H15B15234   2.991   3.612   4.224 -2.3354  0.0839 -1.1967
  122CHL1   C1615235   3.036   3.437   4.343 -0.6016  0.6862  0.2620
  122CHL1  H16A15236   3.130   3.382   4.324 -0.7986  0.6143 -0.5033
  122CHL1  H16B15237   3.059   3.512   4.423  2.5361 -1.6215  1.7290
  122CHL1   C1715238   2.928   3.343   4.398  0.3344  0.1748  0.1082
  122CHL1   H1715239   2.855   3.402   4.459  1.3107  0.9522  0.5492
  122CHL1   C1315240   2.846   3.306   4.276 -0.4877 -0.7216 -0.3740
  122CHL1   C1815241   2.931   3.200   4.199  0.1796 -0.4568  0.2612
  122CHL1  H18A15242   2.938   3.099   4.244  0.7458 -0.7983 -0.5796
  122CHL1  H18B15243   2.886   3.186   4.098 -0.8239  0.9604  0.4661
  122CHL1  H18C15244   3.029   3.248   4.178 -0.7587  1.6969  0.4959
  122CHL1   C1215245   2.699   3.257   4.297  0.1584  0.0913  0.3622
  122CHL1  H12A15246   2.700   3.150   4.328  2.6722  0.4464  1.8499
  122CHL1  H12B15247   2.657   3.325   4.374  0.2800 -0.1742  0.6644
  122CHL1   C1115248   2.621   3.273   4.165  0.3148  0.1997 -0.0999
  122CHL1  H11A15249   2.650   3.188   4.100  0.3799 -0.5423  0.8628
  122CHL1  H11B15250   2.516   3.254   4.196  1.0537 -1.7500  1.4165
  122CHL1    C915251   2.635   3.405   4.086 -0.0743 -0.9545  0.1360
  122CHL1    H915252   2.595   3.483   4.154 -0.8111 -1.4661  0.2970
  122CHL1   C1015253   2.550   3.418   3.964 -0.0948  0.1786  0.2271
  122CHL1   C1915254   2.581   3.294   3.879  0.1673  0.6047  0.1953
  122CHL1  H19A15255   2.536   3.295   3.778  0.3154 -1.6001  0.0703
  122CHL1  H19B15256   2.690   3.289   3.862  0.2400 -1.5578  1.0018
  122CHL1  H19C15257   2.540   3.208   3.936  0.4350  0.5208  0.2602
  122CHL1    C115258   2.403   3.435   4.001  0.2001  0.2511  0.9890
  122CHL1   H1A15259   2.373   3.337   4.042  0.6630 -0.2393  0.1651
  122CHL1   H1B15260   2.389   3.523   4.069  4.4343  3.5421 -1.8823
  122CHL1    C215261   2.312   3.456   3.877  0.2510  0.1374  0.4591
  122CHL1   H2A15262   2.208   3.458   3.918  0.3797 -2.0536  0.9989
  122CHL1   H2B15263   2.318   3.374   3.802  0.4666  3.1321 -3.0856
  122CHL1   C2015264   2.982   3.238   4.496 -1.1416 -0.5074 -0.1184
  122CHL1   H2015265   3.034   3.156   4.443  0.8122 -0.1864  1.2248
  122CHL1   C2115266   2.861   3.171   4.568 -0.4363 -0.4368 -0.8209
  122CHL1  H21A15267   2.893   3.090   4.637 -0.6182 -1.4428 -1.8796
  122CHL1  H21B15268   2.794   3.110   4.503 -0.7943 -2.3093  1.1654
  122CHL1  H21C15269   2.809   3.250   4.626 -0.4013 -0.2784 -1.0060
  122CHL1   C2215270   3.089   3.290   4.599  0.0796 -0.0240  0.5451
  122CHL1  H22A15271   3.144   3.201   4.636  0.1487  0.0363  0.5871
  122CHL1  H22B15272   3.164   3.347   4.540  1.7718  0.6912  3.2268
  122CHL1   C2315273   3.040   3.380   4.721 -0.7206  0.2396 -0.1793
  122CHL1  H23A15274   2.986   3.456   4.660  1.7248 -0.2881 -3.2481
  122CHL1  H23B15275   2.969   3.328   4.788  0.9001 -1.3564  0.3784
  122CHL1   C2415276   3.150   3.437   4.808 -0.1472 -0.1288 -0.4693
  122CHL1  H24A15277   3.181   3.370   4.891 -0.5531 -1.0203 -1.0251
  122CHL1  H24B15278   3.231   3.475   4.742  1.2411 -4.1718 -1.3191
  122CHL1   C2515279   3.105   3.561   4.889 -0.2184 -0.2484 -0.1596
  122CHL1   H2515280   3.197   3.589   4.946 -0.0772 -0.1552 -0.4313
  122CHL1   C2615281   3.065   3.679   4.794 -0.0508  0.6147 -0.4014
  122CHL1  H26A15282   2.975   3.651   4.734 -0.5631  2.3674 -0.4964
  122CHL1  H26B15283   3.040   3.768   4.855 -2.5868 -0.5384  0.3947
  122CHL1  H26C15284   3.151   3.704   4.728  0.7353  1.0188  0.7601
  122CHL1   C2715285   2.998   3.536   4.996 -0.7341  0.2119 -0.0932
  122CHL1  H27A15286   2.904   3.503   4.948 -1.4283  1.8184  0.0938
  122CHL1  H27B15287   3.030   3.461   5.071  0.9928  1.7578  0.7994
  122CHL1  H27C15288   2.972   3.629   5.050 -0.5640  0.9218 -1.1913
  123CHL1    C315289   5.165   3.946   3.726 -0.6700  0.3034  0.4323
  123CHL1    H315290   5.211   4.047   3.732 -1.2407  0.5478  0.7634
  123CHL1    O315291   5.183   3.900   3.593  0.3864  0.2173  0.1893
  123CHL1   H3'15292   5.272   3.931   3.575 -0.0648  1.5683  0.1754
  123CHL1    C415293   5.235   3.851   3.826 -0.2618  0.4692 -0.7006
  123CHL1   H4A15294   5.195   3.749   3.810 -1.1262  0.8184 -0.8267
  123CHL1   H4B15295   5.344   3.849   3.802 -0.2191 -0.0922 -0.4713
  123CHL1    C515296   5.219   3.901   3.970 -0.1903  0.5367  0.9340
  123CHL1    C615297   5.327   3.935   4.045 -0.9105  0.3658 -0.3239
  123CHL1    H615298   5.429   3.922   4.006  0.1741  0.4406  2.2785
  123CHL1    C715299   5.322   3.984   4.184  0.2693 -0.3111  0.2401
  123CHL1   H7A15300   5.407   3.943   4.242 -1.1831 -1.6451  1.5133
  123CHL1   H7B15301   5.351   4.091   4.179  0.4232 -0.4032 -1.3823
  123CHL1    C815302   5.188   3.960   4.247 -0.0817  0.3284 -0.4544
  123CHL1    H815303   5.177   3.853   4.277  1.1856  0.0415 -0.9397
  123CHL1   C1415304   5.181   4.041   4.378 -0.1840  0.3121  0.5361
  123CHL1   H1415305   5.192   4.146   4.344  0.3260  0.6417  1.6882
  123CHL1   C1515306   5.282   4.005   4.482 -0.2633 -0.0692 -0.4604
  123CHL1  H15A15307   5.274   3.895   4.499 -1.3853  0.2192  1.1129
  123CHL1  H15B15308   5.387   4.037   4.462 -0.1185  0.8514  1.5009
  123CHL1   C1615309   5.226   4.069   4.608  0.4296 -0.2829  0.5153
  123CHL1  H16A15310   5.243   4.007   4.699 -0.0180 -0.8099  0.2489
  123CHL1  H16B15311   5.286   4.162   4.617  0.9035 -0.3657 -1.3538
  123CHL1   C1715312   5.073   4.093   4.584  0.0885  0.7914  0.7730
  123CHL1   H1715313   5.066   4.202   4.559 -2.6263  0.3833 -0.6154
  123CHL1   C1315314   5.042   4.026   4.447 -1.0251  0.7265 -0.4956
  123CHL1   C1815315   5.005   3.882   4.478 -0.6710 -0.3673  0.1046
  123CHL1  H18A15316   5.074   3.822   4.541  0.4488  0.1432 -0.5983
  123CHL1  H18B15317   4.907   3.881   4.530 -0.6984  2.5012  0.2746
  123CHL1  H18C15318   5.002   3.815   4.390  1.1068 -1.6320  0.9505
  123CHL1   C1215319   4.939   4.090   4.361  0.1206  0.3843  0.4405
  123CHL1  H12A15320   4.836   4.093   4.402 -0.9964  0.5142 -2.1644
  123CHL1  H12B15321   4.974   4.195   4.350 -0.2182  0.3482 -1.3713
  123CHL1   C1115322   4.940   4.035   4.215  0.2924  0.4359 -0.3402
  123CHL1  H11A15323   4.888   3.937   4.226  1.6263 -0.0785  2.6280
  123CHL1  H11B15324   4.873   4.098   4.153 -0.8769 -1.0795 -0.6660
  123CHL1    C915325   5.079   4.009   4.151  0.3971 -0.3902  0.0178
  123CHL1    H915326   5.106   4.110   4.112 -1.4462 -0.5743 -1.9348
  123CHL1   C1015327   5.072   3.927   4.013  0.2328  0.3003 -0.2441
  123CHL1   C1915328   5.014   3.785   4.034  0.2089  0.3211  0.5532
  123CHL1  H19A15329   5.063   3.716   4.106 -1.7393 -0.8733  0.8149
  123CHL1  H19B15330   4.906   3.794   4.058 -0.0732 -1.8249  0.2912
  123CHL1  H19C15331   5.025   3.729   3.939 -1.1322  0.6967  0.1595
  123CHL1    C115332   4.999   4.004   3.903 -0.2138 -0.0537  0.3411
  123CHL1   H1A15333   4.892   4.024   3.926 -0.4862 -1.6303  0.5848
  123CHL1   H1B15334   5.042   4.106   3.900  0.8786 -0.5203 -0.4007
  123CHL1    C215335   5.014   3.952   3.754 -0.1068 -1.1827  0.0047
  123CHL1   H2A15336   4.963   4.015   3.679  0.1841  0.1818  0.9170
  123CHL1   H2B15337   4.975   3.851   3.728 -1.6630 -0.0104 -2.5441
  123CHL1   C2015338   4.987   4.061   4.710  0.7842  0.3492 -0.2062
  123CHL1   H2015339   4.985   3.953   4.736 -0.2696  0.4378  0.1466
  123CHL1   C2115340   4.839   4.098   4.682 -0.6172 -0.0743  0.1193
  123CHL1  H21A15341   4.781   4.091   4.777  1.5687 -0.9425  1.4545
  123CHL1  H21B15342   4.790   4.020   4.620  2.5461 -1.6074 -0.6244
  123CHL1  H21C15343   4.848   4.203   4.647 -1.6303  0.3455  1.0479
  123CHL1   C2215344   5.040   4.157   4.826 -0.3422 -0.5319 -0.0577
  123CHL1  H22A15345   5.141   4.109   4.832 -0.4219 -0.6054  0.9643
  123CHL1  H22B15346   5.048   4.264   4.799  0.9172 -0.2117  1.4006
  123CHL1   C2315347   4.975   4.127   4.959  0.6870  0.7283  0.4083
  123CHL1  H23A15348   4.870   4.163   4.950 -0.1161 -1.9459 -2.7403
  123CHL1  H23B15349   4.984   4.016   4.969  0.9232  0.6422 -0.7029
  123CHL1   C2415350   5.038   4.196   5.078 -0.3804 -0.5162  0.7629
  123CHL1  H24A15351   5.143   4.168   5.099 -0.0691  0.6473  0.8316
  123CHL1  H24B15352   5.032   4.304   5.050 -0.0448 -0.9861 -1.2748
  123CHL1   C2515353   4.955   4.189   5.211  0.4646  0.7170 -0.4399
  123CHL1   H2515354   4.857   4.240   5.202 -0.5610 -0.7098  1.6991
  123CHL1   C2615355   4.902   4.038   5.231  0.0104  0.6123 -0.0639
  123CHL1  H26A15356   4.806   4.030   5.174  1.7766  0.2553 -3.2162
  123CHL1  H26B15357   4.971   3.963   5.188 -1.8487 -0.5157 -1.2336
  123CHL1  H26C15358   4.881   4.023   5.339 -1.2597  1.4479 -0.1719
  123CHL1   C2715359   5.039   4.242   5.328 -0.1656  0.1250  0.7345
  123CHL1  H27A15360   4.974   4.237   5.418  0.0825  0.2683  0.9224
  123CHL1  H27B15361   5.133   4.184   5.344  1.3778  2.6679  1.5334
  123CHL1  H27C15362   5.063   4.349   5.313 -0.6728  0.2888  1.0650
  124CHL1    C315363   3.425   3.894   3.546 -0.4207 -1.1541 -1.1507
  124CHL1    H315364   3.534   3.883   3.531  0.0087 -0.3445  1.0092
  124CHL1    O315365   3.365   3.939   3.425 -0.4536 -0.4692 -0.1958
  124CHL1   H3'15366   3.380   3.867   3.364  0.4570 -1.0155  0.6304
  124CHL1    C415367   3.365   3.767   3.603 -0.1439 -0.0309 -0.6343
  124CHL1   H4A15368   3.255   3.779   3.615 -0.0239 -0.1060  0.7705
  124CHL1   H4B15369   3.383   3.689   3.527 -1.8403 -0.1379 -0.9503
  124CHL1    C515370   3.401   3.737   3.750 -1.1544  0.1112  0.4376
  124CHL1    C615371   3.469   3.624   3.784  0.5904  0.8646  0.0419
  124CHL1    H615372   3.494   3.556   3.701 -1.7478  1.2699 -1.0744
  124CHL1    C715373   3.523   3.598   3.923 -0.0736  0.7145  0.2760
  124CHL1   H7A15374   3.505   3.491   3.949 -3.1515  0.9677 -0.3741
  124CHL1   H7B15375   3.629   3.631   3.927 -0.3510  1.6037  0.4243
  124CHL1    C815376   3.442   3.686   4.026 -0.1889  0.3984 -0.5290
  124CHL1    H815377   3.341   3.640   4.029  0.4977 -1.2299 -0.9024
  124CHL1   C1415378   3.503   3.671   4.163 -0.3072  0.7159  0.3613
  124CHL1   H1415379   3.605   3.716   4.161  0.9602 -1.8866  1.0940
  124CHL1   C1515380   3.530   3.531   4.213 -0.0902  0.3424  0.2035
  124CHL1  H15A15381   3.461   3.453   4.175  2.4670 -1.4696 -1.0760
  124CHL1  H15B15382   3.632   3.498   4.181 -0.2090  0.4876 -0.3315
  124CHL1   C1615383   3.522   3.549   4.368  0.0329  0.7172  0.1459
  124CHL1  H16A15384   3.426   3.502   4.398 -0.3576  1.2784 -0.2102
  124CHL1  H16B15385   3.608   3.499   4.418 -0.8502  0.4560  1.4526
  124CHL1   C1715386   3.511   3.701   4.393  0.2271  0.4119  0.1853
  124CHL1   H1715387   3.609   3.753   4.401 -0.4011  1.5226  0.9414
  124CHL1   C1315388   3.440   3.759   4.274  0.7323 -0.2375  0.0915
  124CHL1   C1815389   3.285   3.718   4.282 -0.3262 -0.4281 -0.0948
  124CHL1  H18A15390   3.223   3.774   4.356 -0.0706 -1.8508  1.2400
  124CHL1  H18B15391   3.235   3.743   4.186  0.9396 -0.9502 -0.9138
  124CHL1  H18C15392   3.275   3.610   4.304  0.9349 -0.1412  2.2145
  124CHL1   C1215393   3.453   3.904   4.232  0.1086 -0.1140  0.1070
  124CHL1  H12A15394   3.407   3.980   4.299  0.6818 -1.0109  1.5719
  124CHL1  H12B15395   3.558   3.939   4.225 -0.0876  0.4085 -0.2722
  124CHL1   C1115396   3.390   3.932   4.092 -0.4176 -0.0309  0.2324
  124CHL1  H11A15397   3.280   3.941   4.102 -0.5706 -0.3107 -1.1000
  124CHL1  H11B15398   3.415   4.036   4.064  0.4891  0.0735  1.3391
  124CHL1    C915399   3.440   3.831   3.983 -0.0237 -0.0071 -0.0734
  124CHL1    H915400   3.547   3.861   3.974  0.5571 -1.6088  1.0554
  124CHL1   C1015401   3.377   3.851   3.849  0.5892 -0.2876  0.0165
  124CHL1   C1915402   3.225   3.864   3.868  0.4210  1.5145  0.1829
  124CHL1  H19A15403   3.184   3.951   3.924 -1.1910  0.7531  0.2364
  124CHL1  H19B15404   3.173   3.871   3.770  2.0435 -0.2472 -0.8525
  124CHL1  H19C15405   3.189   3.771   3.915 -1.7615  1.9360 -0.5266
  124CHL1    C115406   3.449   3.980   3.793  0.4383 -0.6800 -0.0600
  124CHL1   H1A15407   3.419   4.069   3.852 -0.6695 -1.2036  0.1841
  124CHL1   H1B15408   3.559   3.961   3.788  0.1983 -1.8970 -1.3747
  124CHL1    C215409   3.409   4.008   3.648  0.1900 -0.1697  0.4031
  124CHL1   H2A15410   3.465   4.096   3.610 -0.1321  1.6173  3.6712
  124CHL1   H2B15411   3.303   4.041   3.641  0.9810  2.3985 -0.4648
  124CHL1   C2015412   3.455   3.716   4.531 -0.7822 -0.2287 -0.9730
  124CHL1   H2015413   3.351   3.678   4.534 -0.5274 -0.9729  2.5386
  124CHL1   C2115414   3.440   3.872   4.565 -0.5499  0.5922  0.1380
  124CHL1  H21A15415   3.406   3.882   4.671 -0.1542  1.6228  0.1772
  124CHL1  H21B15416   3.362   3.930   4.511 -0.6935  1.3959  1.1746
  124CHL1  H21C15417   3.535   3.927   4.553 -1.2713  2.0687  0.8677
  124CHL1   C2215418   3.541   3.640   4.647  0.1701 -0.1005 -0.1903
  124CHL1  H22A15419   3.496   3.663   4.746  0.8331 -0.8959  0.3059
  124CHL1  H22B15420   3.531   3.530   4.637  4.2442 -0.4094 -3.8087
  124CHL1   C2315421   3.693   3.673   4.655  0.5447 -0.7580  0.2029
  124CHL1  H23A15422   3.740   3.660   4.555  0.6429 -1.1153  0.2968
  124CHL1  H23B15423   3.699   3.781   4.681  1.4673 -0.7743  0.0818
  124CHL1   C2415424   3.760   3.582   4.760 -0.2494 -0.0332  0.0446
  124CHL1  H24A15425   3.701   3.605   4.851  1.0953 -0.8841  1.1602
  124CHL1  H24B15426   3.745   3.474   4.737  1.8641 -0.5982  1.0807
  124CHL1   C2515427   3.907   3.615   4.785 -0.6061 -0.1479 -0.7487
  124CHL1   H2515428   3.966   3.592   4.694 -0.0506  1.6324 -0.8685
  124CHL1   C2615429   3.942   3.762   4.820  0.2248  0.5678 -0.6403
  124CHL1  H26A15430   3.895   3.787   4.917  1.6969 -1.2944  0.6283
  124CHL1  H26B15431   4.049   3.785   4.840  0.2101 -0.2671  0.4756
  124CHL1  H26C15432   3.906   3.825   4.736 -1.9718 -2.0316 -1.8125
  124CHL1   C2715433   3.971   3.531   4.902 -0.1969  0.0040 -0.2967
  124CHL1  H27A15434   3.935   3.564   5.002  1.8195  0.8736  0.1893
  124CHL1  H27B15435   3.966   3.422   4.882 -1.3988  0.1874 -1.0611
  124CHL1  H27C15436   4.081   3.546   4.898 -0.3533  1.2134 -0.4834
  125CHL1    C315437   4.585   5.077   3.965 -0.0640 -0.2714  0.5537
  125CHL1    H315438   4.652   4.988   3.960  1.0840  0.6320 -1.5333
  125CHL1    O315439   4.510   5.078   3.843  0.0473  0.0827 -0.0551
  125CHL1   H3'15440   4.470   5.165   3.838 -0.3931 -0.1249 -0.2518
  125CHL1    C415441   4.480   5.059   4.089  0.6516  0.1244  0.6627
  125CHL1   H4A15442   4.403   5.137   4.067  1.0975  0.5332  0.5358
  125CHL1   H4B15443   4.440   4.956   4.080  1.0187  0.0373 -0.1436
  125CHL1    C515444   4.541   5.087   4.223 -0.4311  0.3311  0.5222
  125CHL1    C615445   4.528   4.999   4.324  0.1332  0.6834  0.3485
  125CHL1    H615446   4.459   4.919   4.296  0.2404  0.9941 -0.8399
  125CHL1    C715447   4.577   5.013   4.466  0.0858  0.0373 -0.0247
  125CHL1   H7A15448   4.497   4.994   4.540 -0.5323 -1.5649 -1.0578
  125CHL1   H7B15449   4.661   4.944   4.490 -0.6112 -0.9695 -0.4402
  125CHL1    C815450   4.629   5.157   4.490 -0.1298  0.5434 -0.3317
  125CHL1    H815451   4.539   5.221   4.498 -0.2702  0.4268 -0.9105
  125CHL1   C1415452   4.708   5.158   4.618  0.1663  0.3978  0.4191
  125CHL1   H1415453   4.792   5.088   4.599  0.3446  1.0520 -1.4200
  125CHL1   C1515454   4.645   5.109   4.755  0.2315  0.6389 -0.3900
  125CHL1  H15A15455   4.538   5.134   4.768 -0.0260 -1.0987  1.4210
  125CHL1  H15B15456   4.645   4.998   4.768 -2.1284  0.6923  0.5467
  125CHL1   C1615457   4.731   5.166   4.861 -0.5629 -0.8441 -0.7855
  125CHL1  H16A15458   4.668   5.228   4.928 -0.1130 -1.6087  0.3656
  125CHL1  H16B15459   4.790   5.099   4.927  0.0332  1.1917  0.8693
  125CHL1   C1715460   4.836   5.255   4.775 -0.7428 -0.7319 -0.5785
  125CHL1   H1715461   4.913   5.178   4.754 -0.9440 -1.2864  0.6010
  125CHL1   C1315462   4.776   5.292   4.648  0.1960 -0.3857  0.1446
  125CHL1   C1815463   4.669   5.402   4.673  0.0738  0.0466 -0.8358
  125CHL1  H18A15464   4.606   5.428   4.585  1.1741  0.8302 -1.4234
  125CHL1  H18B15465   4.604   5.383   4.762  1.0911 -3.7954 -0.7408
  125CHL1  H18C15466   4.728   5.494   4.693  0.2564 -0.6430  2.3672
  125CHL1   C1215467   4.871   5.329   4.537  0.7026  0.2343  0.1380
  125CHL1  H12A15468   4.922   5.425   4.560 -1.2335  0.8506  2.2044
  125CHL1  H12B15469   4.951   5.253   4.523  1.5335  0.9615  0.7755
  125CHL1   C1115470   4.788   5.335   4.409  0.2322 -0.5882  0.3920
  125CHL1  H11A15471   4.716   5.420   4.410  2.8331  1.8127 -0.9485
  125CHL1  H11B15472   4.864   5.364   4.333  1.2292  1.3312  2.0278
  125CHL1    C915473   4.715   5.206   4.375  0.4175  0.1460  0.3885
  125CHL1    H915474   4.791   5.128   4.354 -1.0087 -1.0334 -0.6467
  125CHL1   C1015475   4.637   5.212   4.237  0.1936 -0.4152  0.2456
  125CHL1   C1915476   4.560   5.350   4.234  0.3574 -0.4086  0.2736
  125CHL1  H19A15477   4.626   5.435   4.207 -0.4730  0.7992  1.9042
  125CHL1  H19B15478   4.476   5.361   4.162  0.9414  2.4028 -0.0897
  125CHL1  H19C15479   4.504   5.365   4.329  1.3894  0.0137  0.8372
  125CHL1    C115480   4.736   5.209   4.113  0.3841 -1.0128 -0.1011
  125CHL1   H1A15481   4.792   5.305   4.114 -1.9855  0.4688 -0.9490
  125CHL1   H1B15482   4.805   5.124   4.134 -0.4553 -1.9944 -1.2126
  125CHL1    C215483   4.678   5.196   3.977  0.0149  1.1351  0.5337
  125CHL1   H2A15484   4.766   5.187   3.909  0.3870 -1.3444  1.2488
  125CHL1   H2B15485   4.624   5.288   3.947  0.8358  0.9736 -1.6944
  125CHL1   C2015486   4.920   5.360   4.860  0.6308 -0.5917  0.5488
  125CHL1   H2015487   4.957   5.432   4.784 -0.1210 -0.4199  0.3400
  125CHL1   C2115488   5.040   5.300   4.941  0.5591  0.2223  0.8067
  125CHL1  H21A15489   5.092   5.230   4.871 -2.6213 -3.0161  1.3846
  125CHL1  H21B15490   4.999   5.239   5.024 -1.0105 -1.8292 -1.3254
  125CHL1  H21C15491   5.101   5.384   4.979 -0.5699  2.8480 -2.6432
  125CHL1   C2215492   4.835   5.457   4.950  0.2856 -0.1789  0.3838
  125CHL1  H22A15493   4.744   5.482   4.893  2.2096  1.7544 -2.0321
  125CHL1  H22B15494   4.801   5.401   5.040  1.3398  0.1147  0.9893
  125CHL1   C2315495   4.912   5.580   4.984 -0.2201  0.0151 -0.2594
  125CHL1  H23A15496   4.998   5.552   5.050 -0.3760  0.8006  0.2852
  125CHL1  H23B15497   4.954   5.638   4.899  0.0833  1.9715  1.1591
  125CHL1   C2415498   4.811   5.682   5.057 -0.1038 -0.5478 -0.0483
  125CHL1  H24A15499   4.855   5.782   5.074 -0.7606 -0.3282  0.4276
  125CHL1  H24B15500   4.736   5.717   4.983  2.6244 -0.0226 -2.7600
  125CHL1   C2515501   4.728   5.638   5.178  0.2598 -0.4564 -0.0229
  125CHL1   H2515502   4.676   5.547   5.141 -0.0313 -0.9969  1.6443
  125CHL1   C2615503   4.820   5.596   5.291  0.1697  0.3420  0.6726
  125CHL1  H26A15504   4.875   5.685   5.328 -0.9824  1.9893 -1.3537
  125CHL1  H26B15505   4.760   5.559   5.376 -0.6964 -0.8462 -0.4064
  125CHL1  H26C15506   4.889   5.515   5.259 -1.3531 -0.5675 -0.4868
  125CHL1   C2715507   4.630   5.757   5.206 -1.0137  0.1278 -0.5473
  125CHL1  H27A15508   4.544   5.733   5.271 -1.9674  1.2492 -1.3526
  125CHL1  H27B15509   4.672   5.856   5.231  0.2403 -0.1370 -1.4836
  125CHL1  H27C15510   4.575   5.777   5.111 -0.4301 -0.6973 -1.0815
  126CHL1    C315511   3.879   3.992   3.767  0.2897  0.3726 -0.5431
  126CHL1    H315512   3.782   4.045   3.762 -0.2923 -0.6575 -0.4954
  126CHL1    O315513   3.917   3.948   3.638  0.6905  0.3003 -0.0673
  126CHL1   H3'15514   3.873   4.008   3.578 -0.4611  0.6913  1.1292
  126CHL1    C415515   3.979   4.097   3.810 -0.7206  0.7697 -0.2536
  126CHL1   H4A15516   4.083   4.058   3.805  0.6924  3.9460  1.6283
  126CHL1   H4B15517   3.960   4.185   3.745 -1.2617  2.1711  1.7083
  126CHL1    C515518   3.956   4.143   3.958  0.1281 -0.2577 -0.2725
  126CHL1    C615519   3.949   4.271   3.994  0.5300  0.8721 -0.3096
  126CHL1    H615520   3.964   4.345   3.914 -0.9477  0.4740 -0.9819
  126CHL1    C715521   3.924   4.323   4.137 -0.3358  0.2063  0.7876
  126CHL1   H7A15522   3.981   4.414   4.163  0.9724 -0.2587 -0.3994
  126CHL1   H7B15523   3.815   4.340   4.151 -0.4322 -0.7697  1.3713
  126CHL1    C815524   3.945   4.207   4.241 -0.4459 -0.5090  0.6775
  126CHL1    H815525   4.056   4.199   4.248 -0.2360  0.4181 -1.0153
  126CHL1   C1415526   3.886   4.264   4.375 -0.5448  0.6093  0.0617
  126CHL1   H1415527   3.781   4.282   4.344  0.2476  2.6028 -1.7350
  126CHL1   C1515528   3.953   4.391   4.435 -0.5874  0.3249 -0.1228
  126CHL1  H15A15529   4.064   4.380   4.440 -0.4900  1.3309  0.1461
  126CHL1  H15B15530   3.930   4.483   4.378  0.1979 -2.0556 -4.8243
  126CHL1   C1615531   3.909   4.375   4.579  0.0259  0.0162 -0.6626
  126CHL1  H16A15532   3.999   4.378   4.644  1.0193  1.3968 -2.0221
  126CHL1  H16B15533   3.856   4.460   4.629 -0.2677 -1.0875  0.9751
  126CHL1   C1715534   3.812   4.251   4.596 -0.2054 -0.2647  0.4828
  126CHL1   H1715535   3.712   4.282   4.559  0.8098  2.9592  0.1323
  126CHL1   C1315536   3.883   4.160   4.491  0.2903  0.2444 -0.3991
  126CHL1   C1815537   4.031   4.117   4.538  0.1555 -0.0628  1.2003
  126CHL1  H18A15538   4.085   4.201   4.587  3.0373 -1.3196  0.3888
  126CHL1  H18B15539   4.027   4.021   4.593 -1.6987 -1.5201 -1.2419
  126CHL1  H18C15540   4.089   4.101   4.445 -3.3167  2.7528 -1.7961
  126CHL1   C1215541   3.817   4.030   4.450 -0.4346  0.3732  0.2363
  126CHL1  H12A15542   3.821   3.967   4.542 -2.3127  0.2408  0.2662
  126CHL1  H12B15543   3.710   4.041   4.424 -1.2085 -1.5958  2.2385
  126CHL1   C1115544   3.899   3.972   4.324  0.2868 -0.8362  0.1967
  126CHL1  H11A15545   4.006   3.945   4.336  0.1911 -1.1502  0.3831
  126CHL1  H11B15546   3.861   3.869   4.305  0.3738 -1.0962  1.3700
  126CHL1    C915547   3.886   4.075   4.203  0.0658  0.4101 -0.2712
  126CHL1    H915548   3.777   4.085   4.180  0.1400  0.1912 -0.7326
  126CHL1   C1015549   3.937   4.025   4.066 -0.2500  0.1918 -0.3071
  126CHL1   C1915550   4.076   3.952   4.083 -0.2981 -0.9043 -0.3985
  126CHL1  H19A15551   4.139   4.000   4.161 -0.2738  0.5505 -1.2842
  126CHL1  H19B15552   4.070   3.845   4.113  0.1847 -0.1222  2.9653
  126CHL1  H19C15553   4.146   3.963   3.998  1.3138 -0.4481  0.9118
  126CHL1    C115554   3.843   3.912   4.010 -0.7171 -0.1424 -0.6177
  126CHL1   H1A15555   3.848   3.822   4.074  1.7046 -0.1586 -0.7233
  126CHL1   H1B15556   3.742   3.959   4.002  0.3400  2.2487 -0.9322
  126CHL1    C215557   3.885   3.872   3.869 -0.8050 -0.5794  0.2491
  126CHL1   H2A15558   3.812   3.794   3.840 -0.6174 -0.6437 -0.0525
  126CHL1   H2B15559   3.988   3.829   3.869 -1.4028 -2.5953 -4.1671
  126CHL1   C2015560   3.802   4.200   4.743  0.2948  0.9964  0.6534
  126CHL1   H2015561   3.895   4.140   4.755 -1.0272 -1.8622 -2.0007
  126CHL1   C2115562   3.683   4.098   4.753  0.4420 -0.4934  0.5106
  126CHL1  H21A15563   3.693   4.010   4.686 -0.5493  0.0715 -0.4118
  126CHL1  H21B15564   3.584   4.143   4.733  1.7698  2.6630  0.4609
  126CHL1  H21C15565   3.689   4.058   4.856 -0.5139 -0.0119  0.7634
  126CHL1   C2215566   3.790   4.305   4.856  0.0856 -0.0685 -0.4207
  126CHL1  H22A15567   3.827   4.251   4.947  1.2891 -1.5938 -1.7423
  126CHL1  H22B15568   3.855   4.393   4.838  1.6889 -1.4572 -1.8089
  126CHL1   C2315569   3.649   4.360   4.868  0.4957 -0.6461  0.3064
  126CHL1  H23A15570   3.625   4.380   4.761  2.3550 -1.5062 -0.2960
  126CHL1  H23B15571   3.573   4.291   4.910 -0.6459  0.6995  0.5658
  126CHL1   C2415572   3.644   4.485   4.956  0.2248 -0.3939 -0.1834
  126CHL1  H24A15573   3.684   4.452   5.054 -0.5201 -1.8592 -0.3497
  126CHL1  H24B15574   3.704   4.565   4.909 -0.0080 -0.7890 -1.1717
  126CHL1   C2515575   3.502   4.548   4.971  0.1473  0.1287  0.5376
  126CHL1   H2515576   3.430   4.465   4.988 -0.5458  0.7786  0.8245
  126CHL1   C2615577   3.498   4.639   5.095  0.3151  0.0934  0.5925
  126CHL1  H26A15578   3.397   4.679   5.114  0.1354 -0.1175  0.0756
  126CHL1  H26B15579   3.516   4.581   5.188  0.8038 -0.7398 -0.0103
  126CHL1  H26C15580   3.576   4.718   5.083  1.4536 -1.0876 -0.1388
  126CHL1   C2715581   3.466   4.619   4.846 -0.0832 -0.6926 -0.7195
  126CHL1  H27A15582   3.358   4.644   4.846 -0.3271 -1.7254 -0.8735
  126CHL1  H27B15583   3.527   4.712   4.841 -0.0263 -0.5898  1.1394
  126CHL1  H27C15584   3.488   4.551   4.761 -0.0119  0.3025 -1.5154
  127CHL1    C315585   3.399   5.061   3.746  0.5284  0.3223 -0.3075
  127CHL1    H315586   3.330   5.143   3.772  0.9675  1.1221 -1.5812
  127CHL1    O315587   3.444   5.071   3.614 -0.3085  0.0298  0.1639
  127CHL1   H3'15588   3.487   4.985   3.605  1.6125  0.6692  2.2590
  127CHL1    C415589   3.510   5.056   3.854 -0.0163 -0.1392  0.4638
  127CHL1   H4A15590   3.573   4.970   3.823 -0.6198 -0.4517  0.0782
  127CHL1   H4B15591   3.573   5.147   3.847 -0.8942  0.6364  1.9638
  127CHL1    C515592   3.456   5.042   3.995 -0.1381 -0.2125 -0.3070
  127CHL1    C615593   3.479   5.132   4.096  0.2640 -0.1147 -0.0627
  127CHL1    H615594   3.547   5.213   4.068  1.4831 -1.5530 -1.4718
  127CHL1    C715595   3.425   5.115   4.230 -0.1046  0.6675 -0.5721
  127CHL1   H7A15596   3.509   5.119   4.303 -0.6571  0.1996  0.0992
  127CHL1   H7B15597   3.355   5.196   4.259  0.7521  0.8067  1.2584
  127CHL1    C815598   3.366   4.975   4.259 -0.2470  0.1931 -0.4692
  127CHL1    H815599   3.453   4.907   4.278 -2.0116 -1.6076  1.8443
  127CHL1   C1415600   3.299   4.982   4.389 -0.3107  0.0756  0.1044
  127CHL1   H1415601   3.207   5.042   4.377 -0.3608  0.7717  3.1086
  127CHL1   C1515602   3.377   5.037   4.506  0.2055 -0.6893 -0.4417
  127CHL1  H15A15603   3.483   5.004   4.513  0.5900  0.7834  1.8495
  127CHL1  H15B15604   3.389   5.148   4.506  1.9316 -0.8426 -1.0388
  127CHL1   C1615605   3.295   4.990   4.625 -0.4678 -0.2120  0.4263
  127CHL1  H16A15606   3.355   4.937   4.702 -1.2428 -0.3966  0.9142
  127CHL1  H16B15607   3.252   5.081   4.674  0.7424 -0.1841  1.4733
  127CHL1   C1715608   3.194   4.890   4.574  0.0150 -0.6000  0.0644
  127CHL1   H1715609   3.101   4.949   4.562  0.4651  0.7966  2.7293
  127CHL1   C1315610   3.242   4.847   4.436  0.3770 -0.0617  0.2841
  127CHL1   C1815611   3.346   4.733   4.453 -0.0646 -0.2398  0.0727
  127CHL1  H18A15612   3.305   4.632   4.476  1.3660 -1.0006 -0.5813
  127CHL1  H18B15613   3.417   4.727   4.368  2.5813  3.1863  1.7517
  127CHL1  H18C15614   3.414   4.751   4.539  0.4979 -0.3116 -0.3490
  127CHL1   C1215615   3.140   4.802   4.328 -0.3039 -0.5163  0.3164
  127CHL1  H12A15616   3.101   4.700   4.349  3.8875 -1.9073  2.4339
  127CHL1  H12B15617   3.060   4.879   4.322  0.5112  0.2401 -1.3312
  127CHL1   C1115618   3.213   4.787   4.189 -0.2468 -0.3870  0.0997
  127CHL1  H11A15619   3.280   4.698   4.190 -0.9889 -0.9648  0.1349
  127CHL1  H11B15620   3.120   4.757   4.135 -0.9843 -2.1863  2.2097
  127CHL1    C915621   3.275   4.922   4.150 -1.3482  0.4687  0.5786
  127CHL1    H915622   3.188   4.991   4.141 -1.7550 -0.0182  0.7132
  127CHL1   C1015623   3.354   4.921   4.010  0.3676 -0.0478  0.5957
  127CHL1   C1915624   3.441   4.798   4.002  0.5279 -0.0756  0.3942
  127CHL1  H19A15625   3.513   4.789   3.918  0.2532 -0.6596  0.2168
  127CHL1  H19B15626   3.503   4.775   4.092  0.3015 -0.6897  0.4015
  127CHL1  H19C15627   3.377   4.708   3.987 -2.5003  1.5442  2.3541
  127CHL1    C115628   3.249   4.926   3.893  0.0582  0.3488  0.7403
  127CHL1   H1A15629   3.180   4.840   3.884 -0.4454  0.9121 -1.3756
  127CHL1   H1B15630   3.177   5.010   3.899 -0.1518  0.1754  0.6324
  127CHL1    C215631   3.309   4.935   3.758 -0.2075  1.4442  0.4202
  127CHL1   H2A15632   3.221   4.943   3.690  1.2705 -2.3462 -2.2720
  127CHL1   H2B15633   3.364   4.841   3.736 -1.9077  0.2538  1.0280
  127CHL1   C2015634   3.154   4.783   4.677 -0.4986  0.7027  0.0918
  127CHL1   H2015635   3.242   4.715   4.686  0.2310  1.0347 -3.1551
  127CHL1   C2115636   3.048   4.691   4.624  0.0551 -0.5084 -0.9330
  127CHL1  H21A15637   3.008   4.624   4.703  1.4617  1.5891  1.7313
  127CHL1  H21B15638   3.079   4.632   4.535  1.2624  1.6165 -2.0321
  127CHL1  H21C15639   2.953   4.747   4.607 -0.8480 -1.3657  1.0032
  127CHL1   C2215640   3.119   4.833   4.816  0.4456  0.2839  0.3490
  127CHL1  H22A15641   3.054   4.758   4.866 -2.8025  3.0252  0.5525
  127CHL1  H22B15642   3.217   4.842   4.867  1.8364 -1.1793 -1.8685
  127CHL1   C2315643   3.024   4.955   4.830  0.0663  0.6645  0.0694
  127CHL1  H23A15644   3.078   5.045   4.794  0.5319  1.3637  2.3196
  127CHL1  H23B15645   2.928   4.943   4.776  0.4465 -0.6065 -0.3492
  127CHL1   C2415646   2.989   4.972   4.978  0.3148  0.5098 -0.1906
  127CHL1  H24A15647   2.957   4.873   5.017 -2.1529  1.4562  0.4215
  127CHL1  H24B15648   3.083   4.997   5.031  0.4354 -1.6675  0.6866
  127CHL1   C2515649   2.883   5.083   5.014 -0.4042  0.4075 -0.1955
  127CHL1   H2515650   2.787   5.041   4.977 -0.6096  1.1157 -0.4884
  127CHL1   C2615651   2.876   5.104   5.163 -0.4271  0.4325 -0.2786
  127CHL1  H26A15652   2.971   5.148   5.201 -1.1722 -0.5922  3.1164
  127CHL1  H26B15653   2.791   5.166   5.198 -0.9895 -0.4542 -0.0460
  127CHL1  H26C15654   2.847   5.008   5.211  1.4007  0.7357  1.6268
  127CHL1   C2715655   2.904   5.220   4.943  1.1144 -0.2045 -0.1372
  127CHL1  H27A15656   2.826   5.298   4.956  1.8227  0.6792 -1.0378
  127CHL1  H27B15657   3.004   5.251   4.981  1.3978 -0.7421 -0.4366
  127CHL1  H27C15658   2.914   5.205   4.834 -1.8585  0.5609 -0.5963
  128CHL1    C315659   1.878   2.518   3.575 -0.4267  0.1837 -0.2016
  128CHL1    H315660   1.817   2.599   3.619  0.5341 -0.4977  2.5578
  128CHL1    O315661   1.890   2.550   3.436  0.0242 -0.2033 -0.8790
  128CHL1   H3'15662   1.977   2.516   3.412 -0.1708 -0.2507 -1.5332
  128CHL1    C415663   2.006   2.501   3.647  0.5283  0.3303 -0.0889
  128CHL1   H4A15664   2.064   2.420   3.598 -1.3417 -1.4565  0.4902
  128CHL1   H4B15665   2.069   2.592   3.639 -0.5833  1.1051 -0.3568
  128CHL1    C515666   1.988   2.457   3.788 -0.4657  0.8878  0.4811
  128CHL1    C615667   2.050   2.532   3.882  0.4455  0.3554  0.0674
  128CHL1    H615668   2.116   2.615   3.851  1.1395 -0.6093 -1.1006
  128CHL1    C715669   2.047   2.491   4.030 -0.8701  0.1133  0.4714
  128CHL1   H7A15670   2.153   2.484   4.062 -1.0155 -2.3775  0.5934
  128CHL1   H7B15671   1.987   2.570   4.080 -2.1501 -0.2902 -0.3626
  128CHL1    C815672   1.991   2.345   4.060 -0.4147 -0.3571 -0.7535
  128CHL1    H815673   2.070   2.271   4.038 -0.8280 -0.3547 -2.3874
  128CHL1   C1415674   1.950   2.333   4.202  0.2238 -0.2111  0.3965
  128CHL1   H1415675   1.874   2.411   4.223  0.3214  0.0411 -0.1598
  128CHL1   C1515676   2.060   2.360   4.308  0.5561  0.0609 -0.1044
  128CHL1  H15A15677   2.162   2.322   4.284  0.4123 -0.2960 -0.1637
  128CHL1  H15B15678   2.067   2.471   4.314 -0.0267  0.0299  2.8469
  128CHL1   C1615679   2.007   2.290   4.433 -0.2486  0.4835 -0.5363
  128CHL1  H16A15680   2.080   2.210   4.460 -1.1819 -0.0164  0.5789
  128CHL1  H16B15681   1.993   2.346   4.528 -1.0759 -1.8206  0.7746
  128CHL1   C1715682   1.880   2.211   4.389 -0.0869 -0.0583 -0.0439
  128CHL1   H1715683   1.794   2.278   4.408 -1.2910 -1.1512 -1.3350
  128CHL1   C1315684   1.882   2.198   4.237 -0.0460 -0.3064  0.1832
  128CHL1   C1815685   1.983   2.075   4.198  0.1082  0.2144 -0.4177
  128CHL1  H18A15686   2.001   2.075   4.089 -0.4539  0.1370 -0.5155
  128CHL1  H18B15687   2.081   2.080   4.250  0.3371  0.4042 -0.8596
  128CHL1  H18C15688   1.933   1.979   4.225 -0.4377  0.8334  0.8876
  128CHL1   C1215689   1.754   2.199   4.162  0.5767 -0.1182  0.5126
  128CHL1  H12A15690   1.693   2.111   4.189  1.2144 -0.9921 -0.7942
  128CHL1  H12B15691   1.694   2.291   4.181  3.0757  1.8746 -0.5050
  128CHL1   C1115692   1.774   2.215   4.012  0.5456  0.5118 -0.0545
  128CHL1  H11A15693   1.825   2.120   3.985  1.2520  0.7475  0.4141
  128CHL1  H11B15694   1.678   2.230   3.958  0.3207 -2.1632 -0.5606
  128CHL1    C915695   1.868   2.326   3.968 -0.4953 -0.6427  0.1418
  128CHL1    H915696   1.818   2.422   3.991 -0.2404 -0.5841  0.4529
  128CHL1   C1015697   1.895   2.334   3.817 -0.1652  0.5106  0.2100
  128CHL1   C1915698   1.967   2.203   3.776 -0.4457 -0.6411 -0.5907
  128CHL1  H19A15699   1.907   2.111   3.793 -0.5395 -0.6054 -0.7290
  128CHL1  H19B15700   1.985   2.208   3.667  0.4863 -1.3399 -0.4846
  128CHL1  H19C15701   2.064   2.197   3.830 -0.8202  1.9388  0.5086
  128CHL1    C115702   1.761   2.366   3.739  0.2717  0.3670  0.2533
  128CHL1   H1A15703   1.698   2.275   3.729 -1.1334  1.3145  0.0454
  128CHL1   H1B15704   1.707   2.443   3.798 -1.6377  0.1643 -1.1385
  128CHL1    C215705   1.786   2.403   3.594  0.8289 -0.1314 -0.4381
  128CHL1   H2A15706   1.686   2.424   3.551  0.4021 -0.2487  0.4720
  128CHL1   H2B15707   1.836   2.314   3.549  1.3851 -0.1255  0.1478
  128CHL1   C2015708   1.859   2.086   4.480  0.7458  0.5441  0.0844
  128CHL1   H2015709   1.935   2.010   4.451 -0.4973 -1.4329  1.7521
  128CHL1   C2115710   1.727   2.012   4.444 -0.5948 -0.3022 -0.0890
  128CHL1  H21A15711   1.735   1.909   4.485  0.6335 -1.0079 -1.9947
  128CHL1  H21B15712   1.730   1.987   4.336 -0.9706  0.4785 -0.2921
  128CHL1  H21C15713   1.629   2.055   4.474 -1.2013 -1.1422 -0.8164
  128CHL1   C2215714   1.868   2.117   4.628 -0.2272  0.3434 -0.0636
  128CHL1  H22A15715   1.943   2.197   4.643  1.2434 -0.4272 -2.6865
  128CHL1  H22B15716   1.771   2.163   4.659 -0.5646 -0.5506  0.2544
  128CHL1   C2315717   1.908   1.994   4.705  0.6242 -0.5654  0.4435
  128CHL1  H23A15718   1.824   1.923   4.693 -0.3063  0.2706  1.7118
  128CHL1  H23B15719   1.998   1.945   4.661  0.7880 -0.2979  0.4766
  128CHL1   C2415720   1.933   2.019   4.855  0.3158  0.1959 -0.0727
  128CHL1  H24A15721   2.023   2.083   4.864  1.7781 -1.8205  0.6220
  128CHL1  H24B15722   1.843   2.072   4.892  0.8777  0.5025  0.8896
  128CHL1   C2515723   1.955   1.887   4.944 -0.5275  0.9737  0.1189
  128CHL1   H2515724   1.963   1.919   5.050 -0.5700 -1.7830  1.0389
  128CHL1   C2615725   1.821   1.802   4.948 -0.2615  0.1684  0.0248
  128CHL1  H26A15726   1.802   1.766   4.844 -0.8194 -0.6094  0.3775
  128CHL1  H26B15727   1.832   1.715   5.017 -0.1642 -0.4181 -0.7077
  128CHL1  H26C15728   1.741   1.867   4.989  0.7334  0.7743  1.0406
  128CHL1   C2715729   2.079   1.795   4.901  0.5510 -0.8059 -0.7603
  128CHL1  H27A15730   2.163   1.864   4.879  0.8775 -1.6482 -2.2691
  128CHL1  H27B15731   2.103   1.725   4.984  0.3086  0.5695  0.5291
  128CHL1  H27C15732   2.051   1.746   4.806 -1.7107 -0.3321 -0.3983
  129CHL1    C315733   6.368   5.872   3.395 -0.2713 -0.3733 -0.3997
  129CHL1    H315734   6.307   5.908   3.480  0.0657 -3.6439  1.3746
  129CHL1    O315735   6.327   5.924   3.264 -0.3414 -0.1553 -0.2277
  129CHL1   H3'15736   6.387   5.879   3.204 -0.1345  1.1783 -1.0660
  129CHL1    C415737   6.514   5.924   3.417  0.7981 -0.0883 -0.0874
  129CHL1   H4A15738   6.583   5.897   3.335  0.9502 -0.2267  0.0854
  129CHL1   H4B15739   6.506   6.035   3.414  0.2585 -0.1244 -0.2179
  129CHL1    C515740   6.571   5.873   3.543  1.0970 -0.7005 -0.4684
  129CHL1    C615741   6.622   5.959   3.635 -0.2920 -0.7754  0.1621
  129CHL1    H615742   6.622   6.068   3.621 -0.5273 -0.6731  0.9190
  129CHL1    C715743   6.693   5.911   3.759  0.0729 -0.0789  0.0808
  129CHL1   H7A15744   6.797   5.948   3.770  0.5790 -1.9519  2.2856
  129CHL1   H7B15745   6.636   5.957   3.842  1.0141  2.1899 -0.4667
  129CHL1    C815746   6.723   5.756   3.765 -0.2213 -0.1150  0.3472
  129CHL1    H815747   6.810   5.736   3.699  0.1618  2.0880  0.1171
  129CHL1   C1415748   6.765   5.715   3.908 -0.0072  0.3540  0.4722
  129CHL1   H1415749   6.684   5.754   3.972 -0.9519 -5.9398  3.9343
  129CHL1   C1515750   6.886   5.783   3.965  0.4325 -0.2262 -0.1942
  129CHL1  H15A15751   6.967   5.765   3.890 -1.1793 -1.3417 -1.7464
  129CHL1  H15B15752   6.881   5.893   3.983 -0.0886 -0.0687 -1.2336
  129CHL1   C1615753   6.896   5.715   4.096 -0.5120  0.4332  0.1891
  129CHL1  H16A15754   7.004   5.709   4.124 -0.3530 -0.8149 -0.6148
  129CHL1  H16B15755   6.842   5.766   4.179  0.1150 -0.6895  1.3316
  129CHL1   C1715756   6.835   5.571   4.078 -0.1202 -0.1467 -0.9117
  129CHL1   H1715757   6.737   5.580   4.130  0.4864 -1.4531  0.5553
  129CHL1   C1315758   6.783   5.565   3.930  0.4692 -0.4562 -0.1728
  129CHL1   C1815759   6.896   5.513   3.831 -0.5779  0.0449  0.4032
  129CHL1  H18A15760   6.986   5.560   3.876 -1.8308  2.1187  0.8778
  129CHL1  H18B15761   6.900   5.402   3.843 -0.1760 -0.2759 -2.0655
  129CHL1  H18C15762   6.892   5.543   3.724  2.4120 -0.9610 -0.0968
  129CHL1   C1215763   6.653   5.498   3.897  0.3355  0.7845  0.3727
  129CHL1  H12A15764   6.666   5.388   3.908  0.0351  0.7950  0.8424
  129CHL1  H12B15765   6.569   5.531   3.961  2.8110  0.3217  4.1419
  129CHL1   C1115766   6.620   5.526   3.747  0.0236 -1.0275  0.3529
  129CHL1  H11A15767   6.691   5.474   3.679 -1.7521 -0.6206 -1.9623
  129CHL1  H11B15768   6.520   5.487   3.719 -1.3648  2.4173 -0.0207
  129CHL1    C915769   6.595   5.682   3.715 -0.0350  0.6553  0.0368
  129CHL1    H915770   6.506   5.714   3.773 -0.9319 -2.5082  0.6106
  129CHL1   C1015771   6.566   5.721   3.564 -0.0734  0.2902  1.0687
  129CHL1   C1915772   6.679   5.664   3.473  0.3720  0.5555  0.3884
  129CHL1  H19A15773   6.678   5.553   3.475  0.2056  0.5499  0.0779
  129CHL1  H19B15774   6.658   5.686   3.366  2.6942 -0.7190 -0.4060
  129CHL1  H19C15775   6.782   5.696   3.497  0.0710  0.1886  2.3317
  129CHL1    C115776   6.422   5.664   3.524 -0.4322 -0.1836 -0.6937
  129CHL1   H1A15777   6.435   5.554   3.528 -0.8460 -0.2115  1.6649
  129CHL1   H1B15778   6.352   5.675   3.609  1.0094 -1.8382  0.7885
  129CHL1    C215779   6.372   5.721   3.398 -0.2485 -0.1180 -0.1091
  129CHL1   H2A15780   6.265   5.689   3.391 -0.3456  0.3032 -0.6105
  129CHL1   H2B15781   6.420   5.679   3.308  0.3877  0.3320  0.0164
  129CHL1   C2015782   6.914   5.451   4.135 -0.4216 -0.2155  0.4021
  129CHL1   H2015783   7.006   5.436   4.075 -1.8058 -1.0712 -1.5887
  129CHL1   C2115784   6.822   5.324   4.121  0.4394  0.1507 -0.5343
  129CHL1  H21A15785   6.814   5.288   4.017  0.6847 -3.1902  0.4828
  129CHL1  H21B15786   6.721   5.349   4.159  0.9469  2.1874 -0.4105
  129CHL1  H21C15787   6.862   5.236   4.177  1.2267  0.0317 -1.2701
  129CHL1   C2215788   6.970   5.475   4.276  0.1591 -0.0830  0.3005
  129CHL1  H22A15789   7.021   5.382   4.309 -0.9674 -0.3396  1.4041
  129CHL1  H22B15790   7.050   5.551   4.266  0.7509 -0.6462  0.6699
  129CHL1   C2315791   6.865   5.515   4.379 -0.1856  0.3861 -0.0184
  129CHL1  H23A15792   6.793   5.586   4.334 -0.5917  0.9825  1.5115
  129CHL1  H23B15793   6.808   5.423   4.407  0.5794 -0.1206 -0.0910
  129CHL1   C2415794   6.938   5.581   4.505  0.8004  0.4310  0.3404
  129CHL1  H24A15795   7.011   5.509   4.547 -0.2506 -0.2861  0.9611
  129CHL1  H24B15796   7.001   5.665   4.467 -0.2335  0.5183 -1.2563
  129CHL1   C2515797   6.852   5.631   4.618  0.4800  0.2611  0.0599
  129CHL1   H2515798   6.780   5.708   4.583  0.2063  0.6192  1.3531
  129CHL1   C2615799   6.779   5.512   4.682 -0.4832 -0.0999 -0.1212
  129CHL1  H26A15800   6.700   5.463   4.622 -0.1896 -2.0984  1.0141
  129CHL1  H26B15801   6.848   5.435   4.723 -0.8284 -0.2399  0.2006
  129CHL1  H26C15802   6.727   5.554   4.770 -0.3132 -0.0855 -0.0257
  129CHL1   C2715803   6.941   5.709   4.717  0.0509 -0.0621  0.1165
  129CHL1  H27A15804   7.018   5.644   4.764  1.0206 -0.6519 -2.1442
  129CHL1  H27B15805   6.986   5.798   4.669  0.7961  0.1756  1.2260
  129CHL1  H27C15806   6.876   5.754   4.795 -0.5661 -0.8394  0.0630
  130CHL1    C315807   2.752   5.690   3.686  0.4674 -0.2742 -0.6267
  130CHL1    H315808   2.773   5.789   3.731  0.1990 -1.0269  1.2569
  130CHL1    O315809   2.779   5.688   3.546  0.5234  0.4621 -0.0422
  130CHL1   H3'15810   2.707   5.729   3.498  1.3899  1.2662 -0.6894
  130CHL1    C415811   2.845   5.593   3.759 -0.1738 -0.1117 -0.8822
  130CHL1   H4A15812   2.820   5.494   3.716 -0.5583 -0.1639 -0.5510
  130CHL1   H4B15813   2.954   5.605   3.739 -0.1697 -0.0757 -0.8386
  130CHL1    C515814   2.812   5.602   3.913  0.2669 -0.4284  0.4700
  130CHL1    C615815   2.894   5.662   3.998  0.2018  0.1690 -0.0838
  130CHL1    H615816   2.993   5.691   3.959 -1.2468  2.6757 -2.2487
  130CHL1    C715817   2.863   5.657   4.147  0.5543 -0.3272  0.2000
  130CHL1   H7A15818   2.953   5.636   4.208  1.0756 -1.9156 -1.0489
  130CHL1   H7B15819   2.838   5.764   4.163  1.6347  0.4148 -2.4830
  130CHL1    C815820   2.755   5.564   4.195  0.0386  0.9258  0.3498
  130CHL1    H815821   2.800   5.465   4.173  2.9236  1.9537  1.0716
  130CHL1   C1415822   2.707   5.596   4.335  0.7466  0.2475 -0.6708
  130CHL1   H1415823   2.670   5.701   4.337  1.0231  0.4238  3.5115
  130CHL1   C1515824   2.821   5.600   4.448  0.5348 -0.4508 -0.5986
  130CHL1  H15A15825   2.887   5.511   4.437  1.1280  0.0051 -0.8223
  130CHL1  H15B15826   2.868   5.701   4.451 -0.3431  0.0003  3.9386
  130CHL1   C1615827   2.731   5.583   4.569 -0.2726 -0.0885 -0.3961
  130CHL1  H16A15828   2.747   5.482   4.613  1.1563  0.2314 -0.1354
  130CHL1  H16B15829   2.742   5.669   4.639 -1.4515 -0.2614  0.0361
  130CHL1   C1715830   2.580   5.581   4.526 -0.1442 -0.5270 -0.2326
  130CHL1   H1715831   2.557   5.689   4.510 -0.2011 -0.2906  1.3414
  130CHL1   C1315832   2.587   5.519   4.389  0.2784  0.0140  0.6737
  130CHL1   C1815833   2.612   5.368   4.393  0.6583 -0.1625  0.0173
  130CHL1  H18A15834   2.524   5.325   4.445 -0.0384 -1.4150 -2.0569
  130CHL1  H18B15835   2.607   5.316   4.295  0.4742  0.5459 -0.3598
  130CHL1  H18C15836   2.702   5.333   4.448 -1.2379 -0.4065  3.2088
  130CHL1   C1215837   2.472   5.566   4.292  0.1938  0.1977  0.0333
  130CHL1  H12A15838   2.381   5.520   4.336  0.6785  1.5479  2.6961
  130CHL1  H12B15839   2.451   5.675   4.300 -0.6165  0.0610 -0.1615
  130CHL1   C1115840   2.494   5.519   4.146 -0.3086  0.0346 -0.2908
  130CHL1  H11A15841   2.497   5.408   4.137 -0.4013  0.1243 -1.5561
  130CHL1  H11B15842   2.414   5.562   4.081 -1.4649  1.4129  1.9149
  130CHL1    C915843   2.635   5.579   4.102  0.6781  0.1424 -0.5332
  130CHL1    H915844   2.615   5.687   4.113 -2.3559 -0.4327  0.5468
  130CHL1   C1015845   2.667   5.559   3.955 -0.1344 -0.0808  0.4267
  130CHL1   C1915846   2.648   5.409   3.924  0.0192 -0.0727 -0.1521
  130CHL1  H19A15847   2.708   5.339   3.986 -0.0877  0.2536  0.3272
  130CHL1  H19B15848   2.539   5.392   3.941 -1.3496  4.4254 -2.5838
  130CHL1  H19C15849   2.662   5.384   3.817  0.5551  2.2027 -0.6621
  130CHL1    C115850   2.581   5.653   3.868  0.3354 -0.5532  0.9540
  130CHL1   H1A15851   2.473   5.633   3.886 -0.0072 -0.4114 -0.7456
  130CHL1   H1B15852   2.600   5.758   3.902  0.1814 -0.2513  0.1252
  130CHL1    C215853   2.607   5.657   3.713 -0.0682 -0.6499  0.1395
  130CHL1   H2A15854   2.547   5.732   3.658  0.0571 -0.9243 -0.3815
  130CHL1   H2B15855   2.580   5.554   3.680  1.5015 -0.7488 -0.9558
  130CHL1   C2015856   2.475   5.534   4.633 -0.4527  0.1227 -0.6012
  130CHL1   H2015857   2.457   5.427   4.610  1.5708 -0.1886 -0.9300
  130CHL1   C2115858   2.355   5.627   4.627  0.6053  0.3382 -0.5703
  130CHL1  H21A15859   2.384   5.731   4.652 -1.2434  0.9443 -0.7625
  130CHL1  H21B15860   2.275   5.593   4.697  3.4188 -0.1799  2.6964
  130CHL1  H21C15861   2.312   5.626   4.525  2.0702  0.3351 -1.1997
  130CHL1   C2215862   2.544   5.530   4.776 -0.9104 -0.7890  0.8414
  130CHL1  H22A15863   2.634   5.467   4.791 -1.5653 -1.8160  0.5499
  130CHL1  H22B15864   2.572   5.632   4.811 -1.1509 -0.6473  0.6241
  130CHL1   C2315865   2.439   5.480   4.884  0.9052  0.2587 -0.4539
  130CHL1  H23A15866   2.378   5.567   4.918 -0.5758 -0.4296 -1.2483
  130CHL1  H23B15867   2.375   5.406   4.832  1.4536  0.0367 -0.8267
  130CHL1   C2415868   2.506   5.409   5.000 -0.3106 -0.0692 -0.2568
  130CHL1  H24A15869   2.582   5.334   4.967 -0.7216 -1.1346  1.1147
  130CHL1  H24B15870   2.554   5.485   5.066  1.5391 -1.1329 -0.2906
  130CHL1   C2515871   2.414   5.324   5.098  0.1843 -0.7892  0.1140
  130CHL1   H2515872   2.360   5.256   5.029 -0.6653 -0.3933  0.3791
  130CHL1   C2615873   2.497   5.240   5.195 -0.0619  0.1449 -0.3908
  130CHL1  H26A15874   2.554   5.166   5.135 -0.4918  0.6865 -1.4944
  130CHL1  H26B15875   2.560   5.311   5.253 -0.1821 -0.7732  0.9315
  130CHL1  H26C15876   2.431   5.180   5.262 -0.2613 -0.6021 -1.2414
  130CHL1   C2715877   2.305   5.410   5.172 -0.2735 -0.7696  0.6774
  130CHL1  H27A15878   2.261   5.470   5.090  1.5119 -0.4618 -0.1158
  130CHL1  H27B15879   2.218   5.361   5.220 -0.3948 -0.7737  0.4575
  130CHL1  H27C15880   2.358   5.488   5.231  3.3612 -2.3242 -0.2087
  131CHL1    C315881   1.580   5.002   3.395 -0.5152  0.1352  0.3395
  131CHL1    H315882   1.673   5.043   3.439  1.2837 -1.8311 -1.3808
  131CHL1    O315883   1.610   5.001   3.253 -0.2927  0.2406 -0.4343
  131CHL1   H3'15884   1.522   4.990   3.217 -0.2831  1.5440 -0.9101
  131CHL1    C415885   1.566   4.855   3.441  0.4840  1.0532 -0.2719
  131CHL1   H4A15886   1.476   4.818   3.388  0.8691  0.1992 -0.3451
  131CHL1   H4B15887   1.660   4.802   3.414 -0.8597 -0.4554 -2.3247
  131CHL1    C515888   1.543   4.867   3.587  0.2626  0.1478 -0.5033
  131CHL1    C615889   1.628   4.805   3.674 -0.8034 -0.0979  0.7045
  131CHL1    H615890   1.705   4.740   3.630 -0.6207  0.8359 -0.4145
  131CHL1    C715891   1.613   4.797   3.822 -0.8218  0.4740 -0.6185
  131CHL1   H7A15892   1.641   4.696   3.858  0.8923  0.0368 -2.9642
  131CHL1   H7B15893   1.694   4.863   3.860  0.4234 -0.8771 -0.8316
  131CHL1    C815894   1.473   4.841   3.866 -1.1516 -0.3257  0.0209
  131CHL1    H815895   1.399   4.762   3.841 -1.2568 -1.3275  3.1752
  131CHL1   C1415896   1.461   4.856   4.018  0.5404  0.2398 -0.1571
  131CHL1   H1415897   1.532   4.936   4.046  0.1255  0.0024  1.6499
  131CHL1   C1515898   1.492   4.736   4.103  0.2708  0.4818  0.4574
  131CHL1  H15A15899   1.452   4.644   4.055 -0.0084  0.4640  0.7273
  131CHL1  H15B15900   1.603   4.731   4.098  0.1703 -2.9791 -0.7657
  131CHL1   C1615901   1.429   4.765   4.237  0.4030  0.2512 -0.2949
  131CHL1  H16A15902   1.370   4.675   4.265  1.9257 -0.6299  0.2021
  131CHL1  H16B15903   1.501   4.755   4.321  0.5274 -1.0951 -0.5353
  131CHL1   C1715904   1.345   4.890   4.225 -0.1937  0.4850 -0.2352
  131CHL1   H1715905   1.409   4.977   4.250 -2.2021  1.1375  3.3292
  131CHL1   C1315906   1.328   4.904   4.075  0.3438  0.3659  0.9039
  131CHL1   C1815907   1.206   4.812   4.034 -0.3652 -0.1074 -0.8138
  131CHL1  H18A15908   1.109   4.862   4.059  1.0196  2.3605  0.0265
  131CHL1  H18B15909   1.213   4.808   3.923  2.7908 -1.1352 -0.6646
  131CHL1  H18C15910   1.224   4.708   4.069 -0.8293 -0.0980 -0.5371
  131CHL1   C1215911   1.313   5.051   4.019 -0.1047 -0.0474  0.0875
  131CHL1  H12A15912   1.229   5.112   4.059  0.2982  0.7442 -0.2494
  131CHL1  H12B15913   1.402   5.114   4.041 -0.8873  0.7660  1.0312
  131CHL1   C1115914   1.311   5.045   3.863  0.1643 -0.3653  0.2055
  131CHL1  H11A15915   1.215   4.993   3.839 -1.2318  2.1241  0.0234
  131CHL1  H11B15916   1.303   5.148   3.823  0.0268 -0.8809 -1.1313
  131CHL1    C915917   1.430   4.971   3.793  0.1944 -0.3840 -0.3578
  131CHL1    H915918   1.515   5.041   3.810 -0.6394  0.5607 -0.0030
  131CHL1   C1015919   1.422   4.954   3.636 -0.2040  0.1990  0.5889
  131CHL1   C1915920   1.287   4.882   3.605 -0.0095  0.0941 -0.8473
  131CHL1  H19A15921   1.280   4.871   3.495  1.0606 -0.3215 -0.8815
  131CHL1  H19B15922   1.271   4.784   3.655 -0.8339  1.6282  2.1623
  131CHL1  H19C15923   1.201   4.950   3.624 -1.1323 -1.8072  1.3392
  131CHL1    C115924   1.416   5.084   3.562 -0.1816 -0.3216 -0.0843
  131CHL1   H1A15925   1.325   5.148   3.567  0.7696  1.1985 -1.3390
  131CHL1   H1B15926   1.504   5.141   3.600 -0.6410  0.7931 -0.6426
  131CHL1    C215927   1.446   5.076   3.411 -0.1169  0.0119  0.6711
  131CHL1   H2A15928   1.462   5.176   3.365 -0.4424 -0.8816 -1.5022
  131CHL1   H2B15929   1.375   5.020   3.347  0.1771 -0.4522  0.7478
  131CHL1   C2015930   1.222   4.902   4.319  0.1125 -0.1126 -0.1247
  131CHL1   H2015931   1.156   4.814   4.300 -0.7674  0.7686 -1.3132
  131CHL1   C2115932   1.140   5.030   4.285 -0.1564 -0.2190 -0.1484
  131CHL1  H21A15933   1.095   5.017   4.184 -0.0415 -1.2966 -0.0821
  131CHL1  H21B15934   1.192   5.128   4.288 -0.8873  0.1734 -0.0242
  131CHL1  H21C15935   1.060   5.039   4.362  1.4852 -1.0356  1.7627
  131CHL1   C2215936   1.257   4.891   4.469 -0.1750  0.5517 -0.5920
  131CHL1  H22A15937   1.326   4.805   4.485 -0.3336  0.2630 -1.4074
  131CHL1  H22B15938   1.314   4.984   4.491 -0.3184  0.3007  0.9785
  131CHL1   C2315939   1.141   4.879   4.562 -0.1355 -0.0149  0.3867
  131CHL1  H23A15940   1.074   4.967   4.554  0.9907  0.7563 -0.9602
  131CHL1  H23B15941   1.082   4.789   4.537 -0.8668 -0.1230  2.3750
  131CHL1   C2415942   1.189   4.861   4.712  1.2689 -0.4776 -0.0597
  131CHL1  H24A15943   1.263   4.778   4.715  1.5704 -0.2611 -1.0156
  131CHL1  H24B15944   1.235   4.959   4.737 -1.7796  1.1711 -0.4981
  131CHL1   C2515945   1.073   4.829   4.809 -0.1713  0.0223 -0.4251
  131CHL1   H2515946   1.030   4.734   4.771 -0.7745  0.9322 -2.1365
  131CHL1   C2615947   1.119   4.805   4.950 -0.7627 -0.1963 -0.7134
  131CHL1  H26A15948   1.179   4.712   4.945  1.1437  1.0328 -2.9388
  131CHL1  H26B15949   1.178   4.894   4.981 -0.5561  0.5679 -3.0836
  131CHL1  H26C15950   1.036   4.789   5.021 -1.1336  0.2493 -1.0368
  131CHL1   C2715951   0.967   4.936   4.805 -0.1590  0.0070  0.5533
  131CHL1  H27A15952   0.879   4.908   4.866 -0.3636 -0.0186  0.2519
  131CHL1  H27B15953   0.995   5.038   4.841 -1.9352  0.1355  1.7177
  131CHL1  H27C15954   0.925   4.940   4.702 -0.6788  0.5113  0.7793
  132CHL1    C315955   4.424   6.040   3.639 -0.2071 -0.3064  0.5163
  132CHL1    H315956   4.402   5.938   3.676 -1.6831 -0.1583  0.0932
  132CHL1    O315957   4.417   6.046   3.499  0.0825  0.1739 -0.4530
  132CHL1   H3'15958   4.497   6.093   3.473  0.3649  1.4524  2.3547
  132CHL1    C415959   4.321   6.142   3.700 -0.1157 -0.4142  0.4375
  132CHL1   H4A15960   4.349   6.238   3.652 -2.5568 -0.4614 -1.2632
  132CHL1   H4B15961   4.215   6.131   3.670 -0.7854  4.2258  0.3870
  132CHL1    C515962   4.335   6.151   3.852  0.4036 -0.5132 -0.5033
  132CHL1    C615963   4.233   6.131   3.933 -0.5894  0.4245 -0.5354
  132CHL1    H615964   4.134   6.106   3.893 -2.0786 -0.9042  3.4970
  132CHL1    C715965   4.240   6.133   4.085 -0.1004 -0.5727  0.0220
  132CHL1   H7A15966   4.152   6.190   4.120  1.6539  1.5153  1.2630
  132CHL1   H7B15967   4.236   6.029   4.123 -1.1842 -1.2846 -1.8880
  132CHL1    C815968   4.368   6.206   4.129  0.0319 -0.4150 -0.0472
  132CHL1    H815969   4.359   6.315   4.108 -0.6472 -0.8449 -2.2800
  132CHL1   C1415970   4.397   6.173   4.283 -0.4608 -0.3291  0.2613
  132CHL1   H1415971   4.420   6.065   4.286  0.4476 -0.1495  0.0361
  132CHL1   C1515972   4.284   6.194   4.382 -0.2971  0.5616 -0.3363
  132CHL1  H15A15973   4.226   6.288   4.365 -1.9661 -0.3650  0.0456
  132CHL1  H15B15974   4.211   6.111   4.375  0.9254 -0.5850  0.2978
  132CHL1   C1615975   4.362   6.209   4.514  0.1397  0.3691 -0.3711
  132CHL1  H16A15976   4.357   6.311   4.556 -1.5801 -0.2696  1.0915
  132CHL1  H16B15977   4.334   6.138   4.595  1.2178 -1.3540 -1.4399
  132CHL1   C1715978   4.515   6.199   4.497 -0.2411  0.1045  0.3934
  132CHL1   H1715979   4.539   6.091   4.492  0.1255  0.1892  0.2161
  132CHL1   C1315980   4.526   6.237   4.342 -0.7560  0.0381 -0.3700
  132CHL1   C1815981   4.522   6.395   4.332  0.0367 -0.1662  0.4313
  132CHL1  H18A15982   4.609   6.445   4.381  0.3578 -0.3669  0.0657
  132CHL1  H18B15983   4.527   6.432   4.228 -0.2186 -1.2029  0.0491
  132CHL1  H18C15984   4.428   6.437   4.374 -1.9694 -2.2609 -1.7042
  132CHL1   C1215985   4.648   6.186   4.258  0.9974  0.4102  0.6912
  132CHL1  H12A15986   4.746   6.235   4.273  1.8230 -0.8911 -0.2950
  132CHL1  H12B15987   4.662   6.078   4.278 -0.7893  0.1102  0.5065
  132CHL1   C1115988   4.621   6.208   4.105  0.4055  0.0366 -0.4810
  132CHL1  H11A15989   4.618   6.317   4.082 -0.5760 -0.5445 -3.7231
  132CHL1  H11B15990   4.706   6.153   4.060  0.5401  0.9206 -1.3304
  132CHL1    C915991   4.487   6.151   4.047 -0.5461  0.0433  0.3262
  132CHL1    H915992   4.488   6.043   4.073  1.4973  0.6708  3.2829
  132CHL1   C1015993   4.476   6.179   3.892 -0.2461  1.0108  0.0984
  132CHL1   C1915994   4.504   6.330   3.860  0.1177  0.6203 -0.6200
  132CHL1  H19A15995   4.428   6.386   3.919 -2.7965 -0.7090 -2.8651
  132CHL1  H19B15996   4.603   6.372   3.889  0.3110 -0.3749  0.2221
  132CHL1  H19C15997   4.495   6.359   3.753  0.3258  1.3324 -0.4538
  132CHL1    C115998   4.594   6.100   3.815 -0.3267 -0.4285  0.1879
  132CHL1   H1A15999   4.695   6.145   3.826 -0.1230 -0.9404  0.4867
  132CHL1   H1B16000   4.595   6.006   3.874 -0.6861 -0.3012  0.3979
  132CHL1    C216001   4.565   6.067   3.673 -0.0819  0.1317 -0.5509
  132CHL1   H2A16002   4.640   5.995   3.634  0.5220  0.9284 -0.8992
  132CHL1   H2B16003   4.591   6.159   3.616  0.3367 -0.2598 -1.0022
  132CHL1   C2016004   4.604   6.266   4.610 -0.1510  0.2270  0.0994
  132CHL1   H2016005   4.605   6.377   4.608 -0.9483  0.2430 -1.3991
  132CHL1   C2116006   4.746   6.215   4.592 -0.1067 -0.0001  0.0186
  132CHL1  H21A16007   4.774   6.240   4.487 -0.6766 -1.9376 -0.6315
  132CHL1  H21B16008   4.751   6.105   4.599 -0.2572  0.0417  0.7979
  132CHL1  H21C16009   4.808   6.252   4.676 -0.2259  0.5654 -0.1350
  132CHL1   C2216010   4.556   6.216   4.750 -0.2338 -0.2874  0.2103
  132CHL1  H22A16011   4.457   6.257   4.778  0.9905  2.3720  0.9350
  132CHL1  H22B16012   4.532   6.109   4.735  1.9238 -1.0855  2.0313
  132CHL1   C2316013   4.644   6.258   4.865  0.4836 -0.0544  0.2745
  132CHL1  H23A16014   4.737   6.197   4.871  2.5452  2.5399 -2.1957
  132CHL1  H23B16015   4.696   6.353   4.840  0.9688 -0.7458 -1.5616
  132CHL1   C2416016   4.564   6.263   4.995  0.4809  0.6497  0.1848
  132CHL1  H24A16017   4.487   6.343   4.994 -1.5725 -1.0809  3.5041
  132CHL1  H24B16018   4.512   6.167   5.012  1.7257 -0.0487  0.2036
  132CHL1   C2516019   4.648   6.289   5.118  0.6970  0.8157  0.0941
  132CHL1   H2516020   4.699   6.385   5.093  0.3771  0.6997 -1.0713
  132CHL1   C2616021   4.553   6.311   5.238 -0.5507  0.7360 -0.5421
  132CHL1  H26A16022   4.512   6.212   5.266 -2.4693  1.1000 -1.8838
  132CHL1  H26B16023   4.612   6.369   5.313  0.2745  0.6750 -1.1305
  132CHL1  H26C16024   4.457   6.366   5.228 -0.0713  1.9148  0.9180
  132CHL1   C2716025   4.750   6.178   5.135 -0.3284 -0.9308 -0.9508
  132CHL1  H27A16026   4.800   6.206   5.230 -0.0102  1.0306 -1.6428
  132CHL1  H27B16027   4.723   6.071   5.140 -0.4456 -0.8615  0.6343
  132CHL1  H27C16028   4.825   6.183   5.054 -0.2399  2.5961 -0.8121
  133CHL1    C316029   1.144   1.625   3.616  0.0933  1.0720  0.4031
  133CHL1    H316030   1.085   1.714   3.586  0.4890  1.5304  0.9628
  133CHL1    O316031   1.224   1.567   3.514  0.9372 -0.3572 -0.0879
  133CHL1   H3'16032   1.185   1.480   3.503  1.4681 -0.9136  1.9201
  133CHL1    C416033   1.230   1.674   3.731  0.2922 -0.1865  0.2049
  133CHL1   H4A16034   1.310   1.600   3.749 -0.4250 -0.5354  2.3025
  133CHL1   H4B16035   1.289   1.756   3.686 -1.7633  0.1946 -2.0079
  133CHL1    C516036   1.153   1.710   3.855  0.2587  0.4232 -0.1064
  133CHL1    C616037   1.150   1.829   3.915 -0.7891 -0.0021 -0.2154
  133CHL1    H616038   1.218   1.911   3.887 -0.3495  0.0001  0.8211
  133CHL1    C716039   1.083   1.854   4.050  0.1526 -0.1065  0.6691
  133CHL1   H7A16040   1.144   1.925   4.110 -1.5587  0.5608  1.7008
  133CHL1   H7B16041   0.983   1.903   4.045 -1.3362 -2.9715  0.6675
  133CHL1    C816042   1.036   1.724   4.123 -0.5544 -0.5378  0.8814
  133CHL1    H816043   1.127   1.686   4.174 -1.0085 -1.3455  1.1264
  133CHL1   C1416044   0.947   1.759   4.236 -0.1239 -0.9106 -0.0006
  133CHL1   H1416045   0.860   1.808   4.186  1.3170  0.6203 -1.1195
  133CHL1   C1516046   0.984   1.867   4.342 -0.2810  0.4419  0.3670
  133CHL1  H15A16047   1.088   1.854   4.379 -0.8528  0.7467  2.1669
  133CHL1  H15B16048   0.965   1.964   4.290  0.2283 -0.0961 -0.8685
  133CHL1   C1616049   0.889   1.840   4.458 -0.4583  0.5291 -0.3965
  133CHL1  H16A16050   0.944   1.822   4.552 -0.3465  1.8323 -0.1992
  133CHL1  H16B16051   0.823   1.928   4.471 -0.7755  0.1123  0.9619
  133CHL1   C1716052   0.810   1.705   4.426 -0.2125 -0.0418  0.2437
  133CHL1   H1716053   0.713   1.725   4.376  0.1608 -2.2068 -1.4927
  133CHL1   C1316054   0.899   1.640   4.314 -0.3927  0.3285 -0.5345
  133CHL1   C1816055   1.008   1.567   4.390 -0.3266 -0.5958  0.0093
  133CHL1  H18A16056   1.058   1.644   4.452 -1.1848  1.0943 -1.2903
  133CHL1  H18B16057   0.961   1.481   4.443 -2.1408 -1.4901 -2.7923
  133CHL1  H18C16058   1.081   1.517   4.323 -0.1268 -1.0695  0.5737
  133CHL1   C1216059   0.824   1.549   4.219  0.5189 -0.3443 -0.5456
  133CHL1  H12A16060   0.787   1.464   4.280  0.8106 -0.0377  0.0654
  133CHL1  H12B16061   0.730   1.602   4.191 -0.9409 -1.6951  1.5261
  133CHL1   C1116062   0.900   1.507   4.098 -0.2537 -0.3883 -0.2215
  133CHL1  H11A16063   0.965   1.428   4.143  0.2939 -0.5318 -1.2361
  133CHL1  H11B16064   0.823   1.456   4.037  0.1618  0.8797 -1.8797
  133CHL1    C916065   0.969   1.630   4.026  0.3236 -0.1033  0.1983
  133CHL1    H916066   0.876   1.673   3.983 -0.6290 -0.9723  1.3212
  133CHL1   C1016067   1.064   1.590   3.910  0.0220 -1.0387 -0.4598
  133CHL1   C1916068   1.153   1.478   3.958  0.6591 -0.0973 -0.1797
  133CHL1  H19A16069   1.224   1.442   3.880 -1.6922 -1.5388 -1.7808
  133CHL1  H19B16070   1.211   1.513   4.046 -1.3103  2.2704  0.2851
  133CHL1  H19C16071   1.090   1.394   3.994  1.2687 -2.0522 -3.2568
  133CHL1    C116072   0.978   1.560   3.783  0.3853  0.6403  0.0939
  133CHL1   H1A16073   0.917   1.468   3.802  1.2513 -0.0519 -0.3987
  133CHL1   H1B16074   0.894   1.630   3.762  0.0541  0.6935  1.5245
  133CHL1    C216075   1.053   1.510   3.658 -0.0214 -0.1111  0.5900
  133CHL1   H2A16076   0.984   1.463   3.584 -1.1325 -0.7375  1.9575
  133CHL1   H2B16077   1.111   1.422   3.694 -1.7381 -1.0100  1.3072
  133CHL1   C2016078   0.774   1.632   4.556  0.1586  0.0756 -0.5081
  133CHL1   H2016079   0.867   1.596   4.605 -0.3943  1.1497  1.4785
  133CHL1   C2116080   0.686   1.505   4.523 -0.4344 -0.2878 -0.3873
  133CHL1  H21A16081   0.595   1.544   4.472 -0.3406  1.6005  0.8250
  133CHL1  H21B16082   0.648   1.439   4.604 -0.9179  0.3479 -0.0932
  133CHL1  H21C16083   0.739   1.431   4.459 -0.4982 -1.0439  0.4091
  133CHL1   C2216084   0.684   1.720   4.652  0.4553  0.9608 -0.3247
  133CHL1  H22A16085   0.722   1.824   4.659  2.4725  0.1904  1.1395
  133CHL1  H22B16086   0.588   1.735   4.599 -0.2974 -1.6333  0.1615
  133CHL1   C2316087   0.685   1.665   4.796 -0.1804  0.5649 -0.2131
  133CHL1  H23A16088   0.627   1.571   4.808  0.4407  0.2839  0.6888
  133CHL1  H23B16089   0.790   1.654   4.831 -0.3306  1.0552  0.4072
  133CHL1   C2416090   0.606   1.754   4.895  0.9300 -0.0836  0.3385
  133CHL1  H24A16091   0.641   1.860   4.896 -0.7851  0.5312 -0.4001
  133CHL1  H24B16092   0.503   1.772   4.857  1.8030  2.5965 -1.1031
  133CHL1   C2516093   0.601   1.710   5.039 -0.3798 -0.1835 -0.5899
  133CHL1   H2516094   0.585   1.601   5.045 -0.0255 -0.2018  0.1650
  133CHL1   C2616095   0.736   1.748   5.105 -0.1017 -0.1959 -0.2569
  133CHL1  H26A16096   0.749   1.720   5.211 -2.6877 -1.5939 -0.2476
  133CHL1  H26B16097   0.820   1.694   5.056 -1.0333 -0.5869 -1.4777
  133CHL1  H26C16098   0.758   1.856   5.087  0.9312 -0.6291 -1.9041
  133CHL1   C2716099   0.477   1.778   5.110  0.3063  0.2162 -1.1854
  133CHL1  H27A16100   0.384   1.745   5.059 -0.5194  0.6667  0.0074
  133CHL1  H27B16101   0.477   1.736   5.213  2.0763  1.2265 -0.7320
  133CHL1  H27C16102   0.482   1.889   5.110  1.2696  0.3312  3.2889
  134CHL1    C316103   6.309   1.605   3.716 -0.0904 -0.0683  0.2460
  134CHL1    H316104   6.221   1.638   3.655  0.4156 -1.2372 -1.1885
  134CHL1    O316105   6.357   1.489   3.650 -0.4478  0.4878 -0.6321
  134CHL1   H3'16106   6.452   1.503   3.642  0.0071 -1.8162 -0.0110
  134CHL1    C416107   6.419   1.704   3.717 -0.0543 -0.5648  0.3191
  134CHL1   H4A16108   6.508   1.663   3.768  1.9101  0.4235 -2.0762
  134CHL1   H4B16109   6.443   1.720   3.609 -0.6631  1.1500  0.3925
  134CHL1    C516110   6.370   1.831   3.782  0.0064 -0.2094 -0.4133
  134CHL1    C616111   6.371   1.949   3.715 -0.4188 -0.6394 -0.9497
  134CHL1    H616112   6.424   1.954   3.619  2.1412 -2.4796  0.2718
  134CHL1    C716113   6.325   2.076   3.779  0.7077 -0.1985  0.4301
  134CHL1   H7A16114   6.393   2.158   3.750 -1.3429  1.1958 -0.6988
  134CHL1   H7B16115   6.226   2.096   3.731  0.7214 -1.7122 -0.2977
  134CHL1    C816116   6.318   2.069   3.933 -0.2957  0.1228  1.0632
  134CHL1    H816117   6.423   2.058   3.968 -0.1247 -0.7609  0.3229
  134CHL1   C1416118   6.242   2.191   3.986 -0.5830 -0.0820  0.5840
  134CHL1   H1416119   6.144   2.186   3.934 -0.0396  0.6183 -0.5575
  134CHL1   C1516120   6.306   2.330   3.975  0.1087 -0.1096  0.0558
  134CHL1  H15A16121   6.416   2.337   3.992  0.4360  0.2437 -2.0232
  134CHL1  H15B16122   6.285   2.366   3.872  0.7125  0.4398  0.1163
  134CHL1   C1616123   6.235   2.415   4.076 -0.2518 -0.9312 -0.2514
  134CHL1  H16A16124   6.312   2.462   4.142 -0.0446 -1.5405 -0.0452
  134CHL1  H16B16125   6.174   2.495   4.031 -1.4041 -0.7915  1.4396
  134CHL1   C1716126   6.147   2.314   4.149 -0.2120 -0.0005 -0.4851
  134CHL1   H1716127   6.060   2.322   4.080  0.0982  0.8445 -0.7996
  134CHL1   C1316128   6.209   2.179   4.133  0.0577 -0.1154  0.3892
  134CHL1   C1816129   6.336   2.169   4.220 -0.0071 -0.2229  0.1451
  134CHL1  H18A16130   6.311   2.136   4.323  0.6791  0.8495  0.6742
  134CHL1  H18B16131   6.411   2.095   4.185  1.8561  2.3529 -1.7631
  134CHL1  H18C16132   6.384   2.269   4.232 -0.1808 -0.2253  0.9211
  134CHL1   C1216133   6.110   2.062   4.153 -0.2525  0.3660  1.1250
  134CHL1  H12A16134   6.077   2.053   4.259  0.2832  0.7873  1.3334
  134CHL1  H12B16135   6.014   2.084   4.102  1.1242 -0.3207 -1.9718
  134CHL1   C1116136   6.176   1.934   4.112 -0.3261  0.1160  0.6741
  134CHL1  H11A16137   6.263   1.916   4.179  0.3565 -0.0004 -0.2164
  134CHL1  H11B16138   6.107   1.848   4.105 -0.2612  0.1781 -1.7259
  134CHL1    C916139   6.238   1.940   3.966 -0.1965  0.3793 -0.0044
  134CHL1    H916140   6.144   1.956   3.909  1.4418  1.8927 -2.4732
  134CHL1   C1016141   6.307   1.810   3.924  0.3519  0.3734  0.7711
  134CHL1   C1916142   6.420   1.783   4.020 -0.0586 -0.1168 -0.5278
  134CHL1  H19A16143   6.449   1.883   4.060 -2.7882  0.9230 -0.8949
  134CHL1  H19B16144   6.385   1.729   4.111  2.4408 -0.5526  0.2478
  134CHL1  H19C16145   6.504   1.720   3.985 -0.4076 -1.2296  0.5653
  134CHL1    C116146   6.210   1.694   3.938 -0.6329  0.6033  0.3751
  134CHL1   H1A16147   6.197   1.675   4.046 -0.9469 -0.2348  0.1953
  134CHL1   H1B16148   6.115   1.713   3.882  0.9459  0.9442 -2.3642
  134CHL1    C216149   6.264   1.564   3.862 -0.1861  0.6889  0.3730
  134CHL1   H2A16150   6.195   1.478   3.863  0.3426  0.2610  0.6177
  134CHL1   H2B16151   6.356   1.531   3.915  0.6093  3.3308  0.8263
  134CHL1   C2016152   6.101   2.355   4.286  0.2592 -0.0807  0.5293
  134CHL1   H2016153   6.093   2.265   4.351  0.0111 -0.9777 -0.6872
  134CHL1   C2116154   5.962   2.411   4.265  0.5665 -0.1750  0.2503
  134CHL1  H21A16155   5.907   2.423   4.361  2.4473  0.9067  1.2408
  134CHL1  H21B16156   5.894   2.337   4.216 -0.8462  2.2287 -1.6787
  134CHL1  H21C16157   5.957   2.506   4.208 -0.6430 -0.5928 -0.3984
  134CHL1   C2216158   6.186   2.461   4.366 -0.2509 -0.3682 -0.1050
  134CHL1  H22A16159   6.290   2.422   4.358  1.0652  2.6932  0.6699
  134CHL1  H22B16160   6.182   2.555   4.306 -1.6451  0.1849  0.8035
  134CHL1   C2316161   6.155   2.482   4.519  0.3769 -0.0317  0.1442
  134CHL1  H23A16162   6.236   2.549   4.555 -0.2866  0.4649  0.7488
  134CHL1  H23B16163   6.053   2.518   4.543 -0.0594 -1.2808  0.2485
  134CHL1   C2416164   6.176   2.349   4.597  0.9753  0.0597 -0.8327
  134CHL1  H24A16165   6.096   2.281   4.560  1.2083 -0.6213 -0.1237
  134CHL1  H24B16166   6.269   2.295   4.567 -0.4985 -1.7598 -2.4304
  134CHL1   C2516167   6.159   2.367   4.752  0.1895 -0.2854  0.5385
  134CHL1   H2516168   6.077   2.438   4.775  0.8458  0.6825 -0.0222
  134CHL1   C2616169   6.126   2.234   4.810  0.2863 -0.1596  0.5746
  134CHL1  H26A16170   6.049   2.183   4.749 -0.1780 -1.2525  2.0134
  134CHL1  H26B16171   6.211   2.165   4.790 -0.8368 -1.4694  0.1736
  134CHL1  H26C16172   6.096   2.237   4.917 -4.1914  1.5710 -0.5276
  134CHL1   C2716173   6.279   2.436   4.819 -0.4425 -0.7124 -0.5546
  134CHL1  H27A16174   6.254   2.427   4.926 -0.8198  0.2987 -0.5567
  134CHL1  H27B16175   6.376   2.385   4.796  0.6385 -0.5425  3.0772
  134CHL1  H27C16176   6.286   2.545   4.802 -1.0872 -0.1637  2.3251
  135CHL1    C316177   6.674   2.273   3.363 -0.5852  0.0116 -0.4079
  135CHL1    H316178   6.568   2.257   3.393 -0.7356  0.6745 -0.5702
  135CHL1    O316179   6.672   2.326   3.232 -0.2395  0.6326  0.2336
  135CHL1   H3'16180   6.580   2.317   3.205  0.6826  0.0393 -3.2458
  135CHL1    C416181   6.755   2.363   3.459 -0.1164 -0.0952  0.2874
  135CHL1   H4A16182   6.853   2.366   3.406 -1.9403  1.0368 -3.4070
  135CHL1   H4B16183   6.706   2.462   3.454 -1.5668 -0.8200 -0.5932
  135CHL1    C516184   6.760   2.304   3.600 -0.7236  0.4881  0.3943
  135CHL1    C616185   6.706   2.381   3.700  0.0540  0.7126  0.1657
  135CHL1    H616186   6.690   2.489   3.689  2.3170  1.3363  2.2314
  135CHL1    C716187   6.682   2.319   3.838 -0.0646 -0.6367  0.3314
  135CHL1   H7A16188   6.685   2.397   3.917 -1.2874 -1.8394  1.6058
  135CHL1   H7B16189   6.579   2.286   3.863 -0.3230  1.0007  1.6068
  135CHL1    C816190   6.771   2.190   3.861  0.2176 -0.8677  0.7880
  135CHL1    H816191   6.876   2.223   3.854  0.3136 -0.7381  2.4803
  135CHL1   C1416192   6.745   2.131   3.997  0.0578  0.0208 -0.0714
  135CHL1   H1416193   6.635   2.114   3.998  0.0324  0.1074 -0.6764
  135CHL1   C1516194   6.773   2.220   4.117 -0.2662  0.1025  0.2681
  135CHL1  H15A16195   6.882   2.242   4.116  0.4855 -2.7668 -3.0659
  135CHL1  H15B16196   6.707   2.306   4.140 -1.0440 -0.1671 -0.8435
  135CHL1   C1616197   6.753   2.116   4.228 -0.3928 -0.3705 -0.7822
  135CHL1  H16A16198   6.835   2.128   4.302  0.1967  0.5628 -1.5638
  135CHL1  H16B16199   6.651   2.124   4.273  0.3503 -0.2343  0.9560
  135CHL1   C1716200   6.769   1.977   4.172  0.1812  0.0533  0.0941
  135CHL1   H1716201   6.664   1.942   4.160 -0.4446  1.0466  2.1461
  135CHL1   C1316202   6.816   1.991   4.026  0.0212 -0.0580 -0.2237
  135CHL1   C1816203   6.965   2.007   4.009 -0.1604  0.2986 -0.1616
  135CHL1  H18A16204   6.992   2.061   3.915 -0.3099  0.7399  0.0448
  135CHL1  H18B16205   7.014   2.057   4.095 -1.3054 -0.5982  1.0498
  135CHL1  H18C16206   7.023   1.912   4.009  1.1525  1.0220  2.0256
  135CHL1   C1216207   6.754   1.895   3.918  0.0926  0.1226  0.5370
  135CHL1  H12A16208   6.792   1.791   3.931  2.2686  0.9267  0.9974
  135CHL1  H12B16209   6.644   1.902   3.933 -0.1752  0.4634 -1.3393
  135CHL1   C1116210   6.789   1.943   3.779 -0.0513 -0.4990  1.1649
  135CHL1  H11A16211   6.899   1.934   3.761  0.2479  3.4188  0.1578
  135CHL1  H11B16212   6.742   1.873   3.707  2.3363 -0.7855 -0.2323
  135CHL1    C916213   6.748   2.092   3.742 -0.6392 -0.6479  0.5875
  135CHL1    H916214   6.638   2.081   3.732 -0.8472 -1.8355  3.1991
  135CHL1   C1016215   6.792   2.143   3.607  0.4893 -0.3924  0.4264
  135CHL1   C1916216   6.947   2.153   3.606 -1.2136  0.1987  0.1369
  135CHL1  H19A16217   6.978   2.185   3.504 -0.3628  2.0508  0.9412
  135CHL1  H19B16218   6.995   2.231   3.668 -0.8044 -0.8495  1.1722
  135CHL1  H19C16219   6.994   2.052   3.614 -1.4744 -0.1092 -1.7822
  135CHL1    C116220   6.737   2.062   3.487  0.6118  0.8656 -0.2289
  135CHL1   H1A16221   6.799   1.970   3.483 -0.3695  0.1760  0.2983
  135CHL1   H1B16222   6.632   2.042   3.515 -0.0397  0.5382 -2.7011
  135CHL1    C216223   6.736   2.133   3.350 -0.3629 -0.2076  0.3635
  135CHL1   H2A16224   6.676   2.072   3.279  2.1858  0.6427 -2.7493
  135CHL1   H2B16225   6.838   2.135   3.305 -0.5436 -0.0380 -0.0399
  135CHL1   C2016226   6.825   1.874   4.264  0.0825 -0.6305 -0.1235
  135CHL1   H2016227   6.932   1.900   4.276  0.3569 -1.7419  0.0228
  135CHL1   C2116228   6.821   1.731   4.202  0.3857  0.3528 -0.3756
  135CHL1  H21A16229   6.888   1.731   4.113  1.4484  0.5435  0.4029
  135CHL1  H21B16230   6.723   1.694   4.166 -0.1909 -1.5896  2.7579
  135CHL1  H21C16231   6.853   1.668   4.288 -2.4405 -0.3629  0.2628
  135CHL1   C2216232   6.769   1.882   4.407  0.2934  0.3704  0.6630
  135CHL1  H22A16233   6.810   1.804   4.474 -1.9901 -1.2012  0.3497
  135CHL1  H22B16234   6.800   1.981   4.446  1.9127 -0.1675  0.8257
  135CHL1   C2316235   6.615   1.864   4.404  0.1842  0.1530 -0.7888
  135CHL1  H23A16236   6.566   1.954   4.361  1.2712  0.9062 -0.5194
  135CHL1  H23B16237   6.585   1.775   4.345 -0.1662  0.1909 -0.6677
  135CHL1   C2416238   6.554   1.851   4.542 -0.4710 -0.3069 -0.1891
  135CHL1  H24A16239   6.583   1.753   4.587 -0.8402 -1.3303 -2.0479
  135CHL1  H24B16240   6.595   1.932   4.605 -1.0518 -0.1641  0.0094
  135CHL1   C2516241   6.400   1.869   4.548  0.2116 -0.3836  0.6254
  135CHL1   H2516242   6.393   1.970   4.502  0.4324 -0.0339  1.3514
  135CHL1   C2616243   6.317   1.773   4.469 -0.2873 -0.2140  0.1228
  135CHL1  H26A16244   6.311   1.673   4.517 -1.2480 -0.4006 -0.3529
  135CHL1  H26B16245   6.215   1.815   4.465 -0.3255 -0.3347 -0.2064
  135CHL1  H26C16246   6.347   1.758   4.362 -3.2615  0.0424 -0.8304
  135CHL1   C2716247   6.349   1.877   4.690  0.7015  0.3703  0.7555
  135CHL1  H27A16248   6.239   1.879   4.674  0.6165 -0.1759  1.2222
  135CHL1  H27B16249   6.382   1.782   4.736 -0.0262  0.2234  0.9889
  135CHL1  H27C16250   6.392   1.964   4.745 -1.4117  0.8768  1.7595
  136CHL1    C316251   5.618   6.945   3.292  0.8457 -0.1007 -0.3386
  136CHL1    H316252   5.537   7.004   3.342  0.1220 -0.7949 -0.6846
  136CHL1    O316253   5.580   6.955   3.154 -0.1643 -0.3728 -0.0379
  136CHL1   H3'16254   5.600   7.048   3.141  0.0892 -0.0827  1.9935
  136CHL1    C416255   5.753   7.018   3.318  0.0604 -0.3534 -0.4861
  136CHL1   H4A16256   5.833   6.963   3.264  0.0258  0.2017 -1.1087
  136CHL1   H4B16257   5.737   7.118   3.273 -1.3884 -0.7968 -1.0048
  136CHL1    C516258   5.789   7.000   3.469  0.3667 -0.6202 -0.4477
  136CHL1    C616259   5.797   7.116   3.542  0.3136  0.1196  0.3863
  136CHL1    H616260   5.780   7.221   3.513 -2.7817 -0.4556 -0.2643
  136CHL1    C716261   5.825   7.104   3.687  0.6487 -0.3071 -0.3094
  136CHL1   H7A16262   5.898   7.181   3.719 -0.8020  0.8407  0.3306
  136CHL1   H7B16263   5.731   7.123   3.745  2.8804 -0.0859  3.6127
  136CHL1    C816264   5.877   6.964   3.737  0.0413  0.1253  0.0762
  136CHL1    H816265   5.981   6.953   3.699 -0.2928 -1.0342 -0.5813
  136CHL1   C1416266   5.877   6.959   3.893 -0.4278  0.3475 -0.8091
  136CHL1   H1416267   5.777   6.982   3.936  0.4233 -0.0363  1.4634
  136CHL1   C1516268   5.960   7.064   3.962  0.1338 -0.6552  0.5941
  136CHL1  H15A16269   6.053   7.085   3.906  2.0471 -2.6329  2.8456
  136CHL1  H15B16270   5.904   7.159   3.979  1.3437 -0.4056  3.8126
  136CHL1   C1616271   6.000   7.007   4.101 -0.2333 -0.0152  0.8670
  136CHL1  H16A16272   6.111   6.995   4.109 -0.1739  0.4406  0.7435
  136CHL1  H16B16273   5.957   7.076   4.176  1.0611  1.3304  0.4381
  136CHL1   C1716274   5.938   6.873   4.103 -0.3905  1.3565 -0.1167
  136CHL1   H1716275   5.836   6.882   4.148  0.7162  1.3398  2.5589
  136CHL1   C1316276   5.926   6.832   3.951 -0.1631  0.3707  0.7833
  136CHL1   C1816277   6.063   6.795   3.886  0.2073 -0.5456 -0.2585
  136CHL1  H18A16278   6.136   6.877   3.902 -1.8074  1.0969  1.0280
  136CHL1  H18B16279   6.104   6.706   3.939  0.7275 -2.3028 -3.4177
  136CHL1  H18C16280   6.052   6.769   3.779 -0.1399  0.2430 -0.4223
  136CHL1   C1216281   5.824   6.730   3.905  0.3292  0.2626 -0.4059
  136CHL1  H12A16282   5.859   6.634   3.949 -1.0560 -0.4659 -0.8375
  136CHL1  H12B16283   5.731   6.758   3.959  0.4788 -0.5410  0.2930
  136CHL1   C1116284   5.803   6.720   3.748 -0.3199  0.0392  0.2534
  136CHL1  H11A16285   5.886   6.658   3.706 -0.7261 -0.6824  0.4936
  136CHL1  H11B16286   5.713   6.657   3.738 -0.7808  1.0342 -2.7662
  136CHL1    C916287   5.790   6.855   3.679 -0.0122 -0.4063  0.3083
  136CHL1    H916288   5.685   6.878   3.709 -0.0421 -0.2969  0.1235
  136CHL1   C1016289   5.789   6.851   3.525  0.2455 -0.3587 -0.5582
  136CHL1   C1916290   5.925   6.791   3.476 -0.2136 -0.1376 -0.5498
  136CHL1  H19A16291   5.927   6.801   3.366 -1.1825  0.5993 -0.5146
  136CHL1  H19B16292   6.010   6.847   3.521  0.0639  0.2057 -1.4975
  136CHL1  H19C16293   5.933   6.681   3.490  0.1622 -0.3523 -2.2390
  136CHL1    C116294   5.663   6.770   3.482  0.0170  0.1261 -0.1695
  136CHL1   H1A16295   5.694   6.665   3.498  1.2093  0.3294 -0.9850
  136CHL1   H1B16296   5.578   6.801   3.546  0.8738 -0.9933  1.5906
  136CHL1    C216297   5.627   6.798   3.340  0.2182 -0.1002  0.4799
  136CHL1   H2A16298   5.530   6.747   3.322 -0.3125  0.2712  2.1727
  136CHL1   H2B16299   5.694   6.754   3.263  0.6750 -0.6174  1.1616
  136CHL1   C2016300   6.012   6.777   4.203  0.2314 -0.2051 -0.6828
  136CHL1   H2016301   6.112   6.763   4.158  1.3561 -1.6244  2.0056
  136CHL1   C2116302   5.950   6.636   4.201  0.3516 -0.7044  0.0556
  136CHL1  H21A16303   6.001   6.570   4.274  0.0307 -0.8913  0.1082
  136CHL1  H21B16304   5.965   6.581   4.105 -0.0185 -0.7064  0.0006
  136CHL1  H21C16305   5.841   6.640   4.220 -0.1490 -1.4069 -2.2589
  136CHL1   C2216306   6.027   6.829   4.351 -0.1320  0.3157 -0.3115
  136CHL1  H22A16307   6.040   6.939   4.360 -0.6788  0.3833 -0.3358
  136CHL1  H22B16308   5.924   6.822   4.393 -0.2112  1.6149 -0.2614
  136CHL1   C2316309   6.123   6.758   4.438 -0.0889 -0.1532 -0.1498
  136CHL1  H23A16310   6.120   6.648   4.423  1.0103 -0.5684  2.1479
  136CHL1  H23B16311   6.226   6.789   4.409  0.1619 -0.1071  0.7594
  136CHL1   C2416312   6.099   6.794   4.585  0.0242 -0.4754 -0.0273
  136CHL1  H24A16313   6.075   6.902   4.599 -0.2687 -0.7575  1.8885
  136CHL1  H24B16314   6.018   6.736   4.633  1.3477 -1.1174  1.5400
  136CHL1   C2516315   6.231   6.763   4.663 -0.6800 -0.0347  0.0391
  136CHL1   H2516316   6.313   6.813   4.606 -0.0978  0.1344  1.0111
  136CHL1   C2616317   6.215   6.823   4.807 -0.7018  0.5946  0.1948
  136CHL1  H26A16318   6.203   6.933   4.797 -0.3932  0.6219  0.0909
  136CHL1  H26B16319   6.133   6.765   4.854  0.8529 -1.8452  0.0638
  136CHL1  H26C16320   6.310   6.813   4.864 -0.9861  0.3425  0.6235
  136CHL1   C2716321   6.266   6.608   4.662  0.1628 -0.3118 -0.3116
  136CHL1  H27A16322   6.360   6.585   4.716  0.2433 -0.2379 -0.4198
  136CHL1  H27B16323   6.192   6.549   4.720 -0.9364 -1.4276 -2.6944
  136CHL1  H27C16324   6.279   6.567   4.559  1.6254 -0.8208  0.0572
  137CHL1    C316325   0.624   1.764   3.607  0.1351  0.4665  0.2058
  137CHL1    H316326   0.728   1.736   3.637  1.1618  0.7904 -2.7470
  137CHL1    O316327   0.605   1.856   3.503 -0.2358  0.0404 -0.0250
  137CHL1   H3'16328   0.611   1.805   3.422 -0.0475 -2.4219  1.4349
  137CHL1    C416329   0.563   1.627   3.571 -0.2453  0.1468  0.5808
  137CHL1   H4A16330   0.459   1.641   3.535  0.0809  1.0074 -0.0639
  137CHL1   H4B16331   0.612   1.585   3.480 -1.0690 -0.0047  0.1977
  137CHL1    C516332   0.567   1.530   3.685 -0.4512 -0.9840  0.0492
  137CHL1    C616333   0.631   1.415   3.676  0.1427  0.5335 -0.8159
  137CHL1    H616334   0.677   1.383   3.582  0.5974 -0.8036 -0.1685
  137CHL1    C716335   0.637   1.302   3.777  0.1873 -0.0086 -0.1103
  137CHL1   H7A16336   0.607   1.205   3.733 -0.3303 -0.6391  1.5661
  137CHL1   H7B16337   0.730   1.288   3.836 -0.4706  0.1232  0.9769
  137CHL1    C816338   0.533   1.323   3.893 -0.3475  0.0555 -0.5166
  137CHL1    H816339   0.429   1.296   3.865 -0.8028  0.0744  1.0765
  137CHL1   C1416340   0.560   1.245   4.022 -0.2876  0.2834  0.1734
  137CHL1   H1416341   0.647   1.292   4.071 -0.0320 -0.8937  0.8806
  137CHL1   C1516342   0.601   1.097   4.013  0.6305  0.5908 -0.0534
  137CHL1  H15A16343   0.534   1.046   3.940 -0.8884  1.1907  0.8740
  137CHL1  H15B16344   0.709   1.090   3.989  1.2032  1.0485  2.1721
  137CHL1   C1616345   0.577   1.038   4.155  0.4493  0.4143  1.0636
  137CHL1  H16A16346   0.497   0.962   4.144  1.7533 -0.9882  0.9911
  137CHL1  H16B16347   0.673   1.003   4.197  1.0844  0.4794 -0.2970
  137CHL1   C1716348   0.510   1.151   4.239  0.0941 -0.2837  0.5747
  137CHL1   H1716349   0.598   1.205   4.281  0.3862 -1.2147  1.1793
  137CHL1   C1316350   0.455   1.251   4.131 -0.1529  0.4645  0.3583
  137CHL1   C1816351   0.321   1.187   4.082 -0.1038 -0.0985 -0.1328
  137CHL1  H18A16352   0.336   1.085   4.040  0.1009  0.2426 -0.9020
  137CHL1  H18B16353   0.246   1.187   4.164  0.5663 -0.7947  0.5041
  137CHL1  H18C16354   0.280   1.240   3.994 -0.8434 -3.2098 -1.8040
  137CHL1   C1216355   0.449   1.397   4.168 -0.1341 -0.3853 -0.2720
  137CHL1  H12A16356   0.358   1.405   4.232  0.3496  0.3800  0.3336
  137CHL1  H12B16357   0.540   1.419   4.226 -0.2804  0.2911 -0.2894
  137CHL1   C1116358   0.420   1.497   4.049 -0.3971  0.0071  0.7384
  137CHL1  H11A16359   0.314   1.488   4.016 -0.0280 -0.0758 -0.4861
  137CHL1  H11B16360   0.442   1.595   4.095 -1.7878  1.7390 -2.0229
  137CHL1    C916361   0.519   1.472   3.931  0.0742 -0.3784  0.4491
  137CHL1    H916362   0.616   1.514   3.965  0.3820  0.4231 -1.2889
  137CHL1   C1016363   0.493   1.571   3.813  0.6389  0.4664  0.1677
  137CHL1   C1916364   0.342   1.580   3.786 -0.2485  0.0718 -0.6308
  137CHL1  H19A16365   0.332   1.641   3.693  0.7365 -0.9457 -1.4454
  137CHL1  H19B16366   0.290   1.483   3.769 -1.3099  0.6749 -0.9357
  137CHL1  H19C16367   0.278   1.628   3.863 -0.8519 -2.1059  0.3003
  137CHL1    C116368   0.565   1.710   3.841  0.7462  0.5557  0.1529
  137CHL1   H1A16369   0.516   1.746   3.934 -0.2663 -1.0315  0.2762
  137CHL1   H1B16370   0.672   1.698   3.867  1.2982  0.1896 -2.1187
  137CHL1    C216371   0.561   1.816   3.732 -0.6575 -0.8843 -0.5149
  137CHL1   H2A16372   0.615   1.907   3.766 -2.8850  0.7057 -1.0234
  137CHL1   H2B16373   0.457   1.849   3.712 -0.5283 -0.6168 -0.7540
  137CHL1   C2016374   0.436   1.096   4.351  0.2319 -0.1233  0.5353
  137CHL1   H2016375   0.351   1.034   4.315 -0.5041  0.5812  1.0243
  137CHL1   C2116376   0.378   1.210   4.439 -0.4931  0.1909  0.8076
  137CHL1  H21A16377   0.296   1.256   4.379  0.9782  1.4889 -0.2899
  137CHL1  H21B16378   0.464   1.274   4.466 -0.0607 -0.0858  0.0996
  137CHL1  H21C16379   0.328   1.178   4.533 -1.4744 -0.6998  0.0147
  137CHL1   C2216380   0.530   1.014   4.442  0.0031  0.9096  0.1655
  137CHL1  H22A16381   0.598   0.945   4.388  1.3089  1.8186  0.5896
  137CHL1  H22B16382   0.595   1.083   4.500  0.8145  0.4191 -0.1492
  137CHL1   C2316383   0.453   0.927   4.547 -0.1858  0.3255 -0.7542
  137CHL1  H23A16384   0.389   0.996   4.606 -0.1671 -0.6022  0.4033
  137CHL1  H23B16385   0.382   0.874   4.479  0.3195 -2.4575  0.7466
  137CHL1   C2416386   0.552   0.841   4.630  0.2571 -0.1293 -0.0284
  137CHL1  H24A16387   0.611   0.773   4.565 -0.7300 -1.4890  0.4678
  137CHL1  H24B16388   0.630   0.908   4.673  0.3983  0.5809 -1.3321
  137CHL1   C2516389   0.480   0.756   4.735  0.0201 -0.5015  0.4526
  137CHL1   H2516390   0.390   0.720   4.680 -0.9237  0.8197  1.0566
  137CHL1   C2616391   0.567   0.637   4.789 -0.7388 -0.2232  0.1583
  137CHL1  H26A16392   0.533   0.613   4.892  0.4956  0.4380  0.7459
  137CHL1  H26B16393   0.547   0.558   4.715 -2.4575  1.3090 -1.1017
  137CHL1  H26C16394   0.675   0.664   4.788 -0.5046 -1.1570 -0.8655
  137CHL1   C2716395   0.411   0.838   4.845  0.7538  0.0244  0.7294
  137CHL1  H27A16396   0.333   0.791   4.909  1.3222  0.9296  2.1558
  137CHL1  H27B16397   0.484   0.875   4.920 -0.1121  1.5737  0.8564
  137CHL1  H27C16398   0.372   0.930   4.795  1.2018 -1.4876 -2.6240
  138CHL1    C316399   6.516   0.069   3.430  0.1430 -0.0415 -0.1385
  138CHL1    H316400   6.554   0.169   3.459  0.1943 -0.0144 -0.2983
  138CHL1    O316401   6.551   0.051   3.298 -0.5109  0.2933  0.2321
  138CHL1   H3'16402   6.523  -0.039   3.283 -2.0155  0.8834 -0.7215
  138CHL1    C416403   6.574  -0.040   3.526  0.1229 -0.0532 -0.1514
  138CHL1   H4A16404   6.566  -0.142   3.483 -0.5502 -0.5625  1.1063
  138CHL1   H4B16405   6.684  -0.027   3.518  0.4017 -2.5560 -1.4219
  138CHL1    C516406   6.528  -0.027   3.671 -0.4295  0.0531  0.0265
  138CHL1    C616407   6.616  -0.035   3.774  0.6513 -0.8290  0.2151
  138CHL1    H616408   6.725  -0.040   3.758  0.8762 -0.2152  1.4110
  138CHL1    C716409   6.566  -0.038   3.914  0.3915 -0.6627  0.0527
  138CHL1   H7A16410   6.613  -0.130   3.954 -0.1886 -0.6155  0.8559
  138CHL1   H7B16411   6.606   0.049   3.971 -0.9526  0.1366 -0.1903
  138CHL1    C816412   6.414  -0.041   3.939  0.2671  1.1396  1.1311
  138CHL1    H816413   6.387  -0.149   3.932  3.4568  0.3598 -1.4361
  138CHL1   C1416414   6.377   0.021   4.078 -0.7180 -0.0630 -0.0725
  138CHL1   H1416415   6.414   0.126   4.083 -1.3225  0.1344  0.4937
  138CHL1   C1516416   6.439  -0.033   4.210 -0.0096  0.4473  0.2408
  138CHL1  H15A16417   6.442  -0.144   4.210 -0.0127  0.4415 -0.9584
  138CHL1  H15B16418   6.545  -0.003   4.220  0.3183 -0.5683 -0.1302
  138CHL1   C1616419   6.356   0.023   4.313 -0.2960 -0.5385  0.3158
  138CHL1  H16A16420   6.344  -0.053   4.393  1.2783 -1.7519 -0.5423
  138CHL1  H16B16421   6.400   0.115   4.357 -2.0518  0.3066  0.3940
  138CHL1   C1716422   6.223   0.068   4.253 -0.0708 -0.4119  0.7604
  138CHL1   H1716423   6.233   0.178   4.244  2.2598 -0.5486  1.0984
  138CHL1   C1316424   6.228   0.018   4.108 -0.9101 -0.0533 -0.6497
  138CHL1   C1816425   6.181  -0.126   4.118  0.3239  0.3163 -0.0080
  138CHL1  H18A16426   6.210  -0.181   4.210  0.5128  0.3149 -0.0697
  138CHL1  H18B16427   6.070  -0.132   4.105  0.5041 -1.2786 -0.9936
  138CHL1  H18C16428   6.203  -0.187   4.028 -0.3147  0.1509 -0.0613
  138CHL1   C1216429   6.153   0.091   4.000  0.3071 -0.2979 -0.0969
  138CHL1  H12A16430   6.043   0.094   4.016  0.0058  1.5116 -2.0788
  138CHL1  H12B16431   6.192   0.195   3.999  0.4797 -0.3656 -0.7352
  138CHL1   C1116432   6.180   0.041   3.852 -0.0892 -0.7051  0.6716
  138CHL1  H11A16433   6.122  -0.046   3.815 -0.8294  0.6871 -1.6745
  138CHL1  H11B16434   6.134   0.127   3.798  2.0926  0.2764  0.2320
  138CHL1    C916435   6.338   0.032   3.828 -0.3144 -0.3560  0.9872
  138CHL1    H916436   6.367   0.138   3.840  0.6706 -0.5555  0.4762
  138CHL1   C1016437   6.377  -0.006   3.684  0.0156 -0.0815  0.4764
  138CHL1   C1916438   6.311  -0.145   3.651 -0.0298 -0.5045  1.2679
  138CHL1  H19A16439   6.201  -0.156   3.635 -0.0022 -0.2714  0.9091
  138CHL1  H19B16440   6.355  -0.178   3.554  1.8321  1.9980  1.1761
  138CHL1  H19C16441   6.347  -0.223   3.721  1.8035 -1.2640 -0.4354
  138CHL1    C116442   6.328   0.105   3.593  0.2670 -0.0187 -0.9733
  138CHL1   H1A16443   6.218   0.107   3.602  0.2847 -2.8188  0.8660
  138CHL1   H1B16444   6.373   0.202   3.625 -1.5075  0.9856 -1.3674
  138CHL1    C216445   6.366   0.088   3.447  0.2122 -0.2745 -0.4084
  138CHL1   H2A16446   6.329   0.179   3.395  0.5384  1.0294  1.5351
  138CHL1   H2B16447   6.316  -0.009   3.423  0.8032 -0.2472 -1.8420
  138CHL1   C2016448   6.093   0.032   4.336  0.3156 -0.4073 -0.3412
  138CHL1   H2016449   6.080  -0.078   4.345  1.1376 -0.4230  1.0592
  138CHL1   C2116450   5.957   0.086   4.285 -0.1695  0.8182 -0.4653
  138CHL1  H21A16451   5.870   0.064   4.352  0.4298 -1.7120 -0.4296
  138CHL1  H21B16452   5.938   0.031   4.191  0.3662 -2.3483  1.1463
  138CHL1  H21C16453   5.976   0.195   4.273  3.6627  0.5703  1.6630
  138CHL1   C2216454   6.105   0.070   4.484 -0.0241 -0.0977 -0.4016
  138CHL1  H22A16455   6.003   0.058   4.526 -0.8485 -0.1114 -2.3363
  138CHL1  H22B16456   6.169  -0.004   4.538 -1.7422  0.7312  3.0679
  138CHL1   C2316457   6.165   0.210   4.515 -0.4853  0.2873  0.7116
  138CHL1  H23A16458   6.275   0.208   4.503 -0.1173  0.9635  3.2615
  138CHL1  H23B16459   6.107   0.286   4.459 -0.2751  0.5702  0.8745
  138CHL1   C2416460   6.161   0.240   4.665 -0.1263  0.1176 -0.2695
  138CHL1  H24A16461   6.066   0.208   4.713  0.0136 -1.3998 -0.9759
  138CHL1  H24B16462   6.239   0.185   4.721 -0.3404  0.0370 -0.0484
  138CHL1   C2516463   6.180   0.389   4.695  0.2161  0.3064 -0.0138
  138CHL1   H2516464   6.275   0.417   4.645  1.1341  1.0009  2.0304
  138CHL1   C2616465   6.057   0.468   4.639  0.0955  0.0340  0.0410
  138CHL1  H26A16466   6.056   0.570   4.681 -1.2938  0.0734 -0.0463
  138CHL1  H26B16467   6.054   0.470   4.528  0.2670  0.3185  0.0411
  138CHL1  H26C16468   5.965   0.415   4.671  0.4749  0.4715  1.9657
  138CHL1   C2716469   6.188   0.414   4.844 -0.9056 -0.8101  0.3509
  138CHL1  H27A16470   6.259   0.345   4.893  0.0615 -0.2958 -0.2881
  138CHL1  H27B16471   6.223   0.517   4.865  0.8534 -0.7944 -2.1684
  138CHL1  H27C16472   6.085   0.393   4.880 -0.8803  0.4640  1.1980
  139CHL1    C316473   7.208   6.458   3.334  0.0242  0.8108  0.2324
  139CHL1    H316474   7.112   6.495   3.375  1.2315  4.9337 -0.1293
  139CHL1    O316475   7.170   6.392   3.216  0.0859 -0.1030  0.3869
  139CHL1   H3'16476   7.219   6.442   3.150 -1.2360  1.9200  0.8496
  139CHL1    C416477   7.278   6.591   3.307 -0.1487  0.3223  0.6059
  139CHL1   H4A16478   7.365   6.565   3.244  0.6666  1.6212  1.1383
  139CHL1   H4B16479   7.221   6.658   3.240  1.2514 -0.0691 -1.0428
  139CHL1    C516480   7.330   6.654   3.433 -0.3063 -0.2372 -0.2798
  139CHL1    C616481   7.313   6.788   3.449 -0.6395 -0.2765 -0.1298
  139CHL1    H616482   7.268   6.845   3.367 -0.7736  0.5564  0.5185
  139CHL1    C716483   7.358   6.867   3.570 -0.1489  0.9459 -0.1385
  139CHL1   H7A16484   7.421   6.955   3.546 -0.0681  1.0550  0.4593
  139CHL1   H7B16485   7.266   6.899   3.623 -1.6537 -0.8906 -1.5026
  139CHL1    C816486   7.441   6.783   3.670 -0.7581  0.0943  0.0367
  139CHL1    H816487   7.545   6.788   3.630 -0.3013  1.2314  1.2700
  139CHL1   C1416488   7.440   6.849   3.810  0.4395 -0.2415  0.0981
  139CHL1   H1416489   7.337   6.835   3.849  0.6484 -0.4387  0.5891
  139CHL1   C1516490   7.471   7.001   3.819 -0.4253  0.3017 -0.5533
  139CHL1  H15A16491   7.557   7.029   3.755  0.4035  0.5261  0.6318
  139CHL1  H15B16492   7.383   7.064   3.793 -2.1869 -2.3284 -1.4186
  139CHL1   C1616493   7.503   7.006   3.971  0.1116 -0.4212  0.4399
  139CHL1  H16A16494   7.606   7.047   3.976 -0.3648  1.1899 -1.5515
  139CHL1  H16B16495   7.442   7.087   4.017 -2.3731 -2.1235  0.3726
  139CHL1   C1716496   7.496   6.864   4.034  0.1657 -0.5397  0.0778
  139CHL1   H1716497   7.388   6.850   4.056 -0.2936  2.3059  0.0506
  139CHL1   C1316498   7.526   6.770   3.917  0.0324  0.3485  0.8675
  139CHL1   C1816499   7.673   6.768   3.878 -1.2135  0.0994  0.1034
  139CHL1  H18A16500   7.740   6.715   3.948 -1.1610 -0.3038 -0.2496
  139CHL1  H18B16501   7.691   6.718   3.780  0.9557  0.4515  0.2810
  139CHL1  H18C16502   7.701   6.872   3.853 -1.3241  0.0882 -0.0695
  139CHL1   C1216503   7.471   6.627   3.922  0.4149 -0.1302  0.0048
  139CHL1  H12A16504   7.536   6.560   3.982  0.9178 -1.4660 -1.9351
  139CHL1  H12B16505   7.374   6.634   3.975 -0.4504  0.4637 -1.5949
  139CHL1   C1116506   7.469   6.559   3.786  0.5743  0.8151  0.2907
  139CHL1  H11A16507   7.574   6.546   3.753 -0.4095 -1.3568 -2.3334
  139CHL1  H11B16508   7.435   6.455   3.804  1.3771  0.3282 -0.8955
  139CHL1    C916509   7.401   6.634   3.676  0.4901  0.3915 -0.9572
  139CHL1    H916510   7.296   6.623   3.710  1.3547 -1.7339  1.3446
  139CHL1   C1016511   7.397   6.567   3.541 -0.0804 -0.0327  0.3891
  139CHL1   C1916512   7.539   6.539   3.492  0.0715  0.6146 -0.0163
  139CHL1  H19A16513   7.538   6.518   3.383  0.5645 -0.1047  0.1090
  139CHL1  H19B16514   7.594   6.635   3.492  0.3271  0.4848  1.2222
  139CHL1  H19C16515   7.598   6.470   3.556  1.4195  1.2884 -0.5014
  139CHL1    C116516   7.317   6.429   3.556 -0.1192  0.6807 -0.3799
  139CHL1   H1A16517   7.395   6.371   3.609  2.1466  0.5735 -3.5496
  139CHL1   H1B16518   7.228   6.451   3.619  0.4012 -0.9337  0.9804
  139CHL1    C216519   7.282   6.358   3.426 -0.2099  0.5481 -0.5813
  139CHL1   H2A16520   7.226   6.263   3.438  1.3862 -0.6239 -1.9225
  139CHL1   H2B16521   7.373   6.324   3.371 -0.5140 -0.6501 -0.3716
  139CHL1   C2016522   7.562   6.854   4.165  0.4568 -0.3900  0.0353
  139CHL1   H2016523   7.672   6.847   4.151  0.1612 -1.7935 -2.0354
  139CHL1   C2116524   7.512   6.732   4.235 -0.1388 -0.1986 -0.5705
  139CHL1  H21A16525   7.567   6.707   4.328  0.3921 -1.8664 -1.3063
  139CHL1  H21B16526   7.530   6.643   4.171  0.3285 -0.3359 -0.2505
  139CHL1  H21C16527   7.405   6.734   4.265  0.2910  5.6023  2.0675
  139CHL1   C2216528   7.527   6.975   4.257  0.3348 -0.0960  0.5800
  139CHL1  H22A16529   7.593   7.059   4.225 -1.4169  1.3446  0.5462
  139CHL1  H22B16530   7.425   7.017   4.241  0.8762  0.8134 -0.6977
  139CHL1   C2316531   7.561   6.949   4.409  0.2034 -0.0495  0.2400
  139CHL1  H23A16532   7.484   6.882   4.453 -0.9993  0.6502 -0.7391
  139CHL1  H23B16533   7.664   6.909   4.422  0.4659  1.1386  2.3965
  139CHL1   C2416534   7.558   7.089   4.477 -0.4456  0.7693  0.3378
  139CHL1  H24A16535   7.632   7.160   4.434 -2.1756  2.1929 -0.4335
  139CHL1  H24B16536   7.457   7.134   4.470 -0.6378  0.2803 -0.1720
  139CHL1   C2516537   7.596   7.092   4.627 -0.2353  0.3108  0.0705
  139CHL1   H2516538   7.532   7.016   4.677 -0.1139  0.0677 -0.1344
  139CHL1   C2616539   7.742   7.055   4.649  0.1169 -0.3850 -0.1766
  139CHL1  H26A16540   7.786   6.965   4.601  1.9709 -0.0387  0.8070
  139CHL1  H26B16541   7.807   7.143   4.628 -0.8335  0.6116  0.8825
  139CHL1  H26C16542   7.763   7.045   4.757 -1.5289  1.2896  0.3510
  139CHL1   C2716543   7.546   7.215   4.709 -0.6235  0.3664  0.6318
  139CHL1  H27A16544   7.598   7.307   4.675  1.6145 -0.6324  1.1368
  139CHL1  H27B16545   7.436   7.226   4.711 -0.5274  1.4613  0.4082
  139CHL1  H27C16546   7.573   7.198   4.815  0.4949 -0.1380  0.2879
  140CHL1    C316547   6.963   0.179   3.113 -0.5765 -0.2826 -0.3274
  140CHL1    H316548   6.961   0.289   3.129 -1.2042 -0.1953 -0.9514
  140CHL1    O316549   6.922   0.141   2.983 -0.6088  0.1286  0.1083
  140CHL1   H3'16550   6.923   0.045   2.980 -0.0417  0.1311  0.0830
  140CHL1    C416551   7.117   0.140   3.139  0.2356 -0.3261 -0.6410
  140CHL1   H4A16552   7.123   0.031   3.120 -0.5282 -0.9406  2.2430
  140CHL1   H4B16553   7.171   0.198   3.061 -1.0458  2.6970  0.5602
  140CHL1    C516554   7.161   0.160   3.280 -0.2758  1.1499 -0.0269
  140CHL1    C616555   7.259   0.235   3.304 -0.0706 -0.6254  0.3144
  140CHL1    H616556   7.311   0.281   3.219 -2.6616 -0.8111 -1.4651
  140CHL1    C716557   7.305   0.273   3.441 -0.2088  0.2534 -0.3602
  140CHL1   H7A16558   7.416   0.263   3.442 -0.3505 -2.5822 -1.7347
  140CHL1   H7B16559   7.295   0.381   3.466  1.4674  0.3617 -0.0269
  140CHL1    C816560   7.241   0.182   3.549  0.1100 -0.0693  0.3048
  140CHL1    H816561   7.288   0.082   3.536 -0.4184  0.0278 -3.3182
  140CHL1   C1416562   7.260   0.246   3.694 -0.6237  0.3649  0.6052
  140CHL1   H1416563   7.219   0.349   3.693 -2.3914 -0.2778  1.0880
  140CHL1   C1516564   7.402   0.261   3.743 -0.3918 -0.1472  0.6020
  140CHL1  H15A16565   7.474   0.180   3.716  0.9681  1.0094  0.6602
  140CHL1  H15B16566   7.442   0.351   3.692 -0.2854  0.8522  2.4032
  140CHL1   C1616567   7.389   0.267   3.896  0.6473 -0.8652 -0.4246
  140CHL1  H16A16568   7.446   0.189   3.952 -0.7891 -0.9875  0.9245
  140CHL1  H16B16569   7.415   0.370   3.928 -1.6049 -0.3257 -0.1626
  140CHL1   C1716570   7.239   0.248   3.928  0.6480  0.1342 -0.5601
  140CHL1   H1716571   7.196   0.349   3.913 -0.7726 -0.5465 -1.3905
  140CHL1   C1316572   7.195   0.166   3.806  0.7151  0.3234  0.1605
  140CHL1   C1816573   7.252   0.019   3.806 -0.2349 -0.4947 -0.3422
  140CHL1  H18A16574   7.265  -0.034   3.709  1.6210  3.1027 -2.2395
  140CHL1  H18B16575   7.357   0.025   3.842  0.3302  0.3664 -2.0269
  140CHL1  H18C16576   7.188  -0.041   3.874 -0.9096  1.5432  0.8903
  140CHL1   C1216577   7.042   0.150   3.775 -0.9491 -0.7825  0.7497
  140CHL1  H12A16578   6.988   0.098   3.857 -1.4132  0.1371  1.0431
  140CHL1  H12B16579   6.992   0.249   3.774  0.9626  0.2677  2.1639
  140CHL1   C1116580   7.022   0.089   3.641  0.5086  0.5763 -0.5962
  140CHL1  H11A16581   7.046  -0.019   3.643 -1.1667  0.1430 -1.5798
  140CHL1  H11B16582   6.913   0.096   3.622  0.1501 -0.2825  0.9963
  140CHL1    C916583   7.092   0.168   3.525 -0.3306 -0.3960 -0.0853
  140CHL1    H916584   7.046   0.269   3.530 -1.2989 -0.7615 -1.2253
  140CHL1   C1016585   7.062   0.105   3.386 -0.3011 -0.2697 -0.5572
  140CHL1   C1916586   7.080  -0.046   3.378  0.1298 -0.4296  0.0379
  140CHL1  H19A16587   6.985  -0.100   3.396 -1.1235  0.7096 -2.6525
  140CHL1  H19B16588   7.120  -0.085   3.282 -1.4076 -0.5412 -0.5726
  140CHL1  H19C16589   7.158  -0.070   3.454  1.5830 -0.2091 -1.3411
  140CHL1    C116590   6.915   0.138   3.348  0.2812 -0.1976 -0.5535
  140CHL1   H1A16591   6.842   0.085   3.414 -0.7664 -0.8070 -2.1497
  140CHL1   H1B16592   6.884   0.241   3.375 -4.3461 -1.9450  1.9172
  140CHL1    C216593   6.875   0.104   3.201  0.3981 -0.0401 -0.1733
  140CHL1   H2A16594   6.767   0.127   3.186  0.4365 -0.4575 -1.1302
  140CHL1   H2B16595   6.878  -0.005   3.181  2.7641  0.0667 -0.7122
  140CHL1   C2016596   7.196   0.213   4.070  0.1207  0.0788  0.0008
  140CHL1   H2016597   7.265   0.279   4.127 -1.0079  0.4873  0.9266
  140CHL1   C2116598   7.234   0.071   4.111 -0.3835  0.8027 -0.5315
  140CHL1  H21A16599   7.179  -0.008   4.056 -0.0192  1.2828 -1.6068
  140CHL1  H21B16600   7.219   0.053   4.220  1.3509  0.2017 -0.3642
  140CHL1  H21C16601   7.342   0.047   4.103 -0.5815 -0.3896  0.0955
  140CHL1   C2216602   7.049   0.259   4.086 -0.3753 -0.1487  0.2776
  140CHL1  H22A16603   7.020   0.329   4.005  2.6027  0.1596 -0.6747
  140CHL1  H22B16604   6.975   0.177   4.080 -0.3128 -0.1306 -1.0784
  140CHL1   C2316605   7.030   0.332   4.218  0.3025  0.5170 -0.4953
  140CHL1  H23A16606   7.091   0.276   4.293 -1.2479 -0.3794  0.1488
  140CHL1  H23B16607   7.076   0.433   4.213  0.5243  0.5072  0.8833
  140CHL1   C2416608   6.889   0.350   4.258 -0.1825  0.4326 -0.2927
  140CHL1  H24A16609   6.830   0.409   4.185  0.7874  0.8870 -0.7227
  140CHL1  H24B16610   6.846   0.247   4.250 -2.2811  1.2321 -0.1119
  140CHL1   C2516611   6.869   0.407   4.401 -0.4766  0.6705  0.4421
  140CHL1   H2516612   6.957   0.377   4.462 -0.2878  0.9927  0.3308
  140CHL1   C2616613   6.737   0.357   4.464 -0.6788 -0.4365 -0.1051
  140CHL1  H26A16614   6.660   0.359   4.384 -0.1451  3.2338 -0.7009
  140CHL1  H26B16615   6.753   0.259   4.513 -0.5827 -0.7337 -0.7242
  140CHL1  H26C16616   6.717   0.430   4.546  0.7699 -0.0345 -0.0842
  140CHL1   C2716617   6.866   0.565   4.404 -0.2164  0.2420  0.2176
  140CHL1  H27A16618   6.947   0.622   4.353 -0.3802  2.1692  1.9931
  140CHL1  H27B16619   6.775   0.598   4.351  0.4617  0.0090 -1.1481
  140CHL1  H27C16620   6.875   0.594   4.511 -2.0168  1.1279  0.1546
  141DOPC     N16621   4.289   2.685   7.128  0.1894  0.1040 -0.7364
  141DOPC   C1216622   4.165   2.589   7.121  0.2006 -0.4538 -0.0144
  141DOPC  H12A16623   4.078   2.649   7.095 -0.1124 -1.1823 -0.6963
  141DOPC  H12B16624   4.159   2.544   7.218  1.2248 -0.9453 -0.1674
  141DOPC   C1316625   4.407   2.617   7.170  0.6101 -0.2934 -0.1276
  141DOPC  H13A16626   4.420   2.523   7.118  0.7305 -1.0516  1.2252
  141DOPC  H13B16627   4.492   2.681   7.153 -0.1124  0.6660 -0.2174
  141DOPC  H13C16628   4.416   2.592   7.275  1.5524 -0.0767 -0.1466
  141DOPC   C1416629   4.255   2.798   7.228 -0.1233  0.0065  0.5123
  141DOPC  H14A16630   4.264   2.762   7.330 -0.1274  1.0523  0.8902
  141DOPC  H14B16631   4.330   2.876   7.228 -0.0183  0.1154  4.5527
  141DOPC  H14C16632   4.160   2.843   7.203  0.8098  1.5433 -0.4586
  141DOPC   C1516633   4.316   2.734   6.986 -0.3549  0.7396 -0.8292
  141DOPC  H15A16634   4.325   2.651   6.918 -0.7847 -0.3669  0.4061
  141DOPC  H15B16635   4.404   2.796   6.990 -2.0534  3.3006  1.3512
  141DOPC  H15C16636   4.237   2.803   6.961 -1.5352  0.1758  1.0870
  141DOPC   C1116637   4.165   2.476   7.027 -0.6806 -1.0918  0.2584
  141DOPC  H11A16638   4.060   2.441   7.021 -1.3395  0.7851  0.2370
  141DOPC  H11B16639   4.177   2.512   6.923 -2.0222 -1.7749 -0.1587
  141DOPC     P16640   4.227   2.248   7.135  0.0366 -0.0882  0.3773
  141DOPC   O1316641   4.128   2.266   7.241 -0.1442 -0.2024 -0.5451
  141DOPC   O1416642   4.353   2.183   7.167 -0.0447 -0.5045 -0.5666
  141DOPC   O1216643   4.261   2.383   7.054 -0.6612  0.1992 -0.6408
  141DOPC   O1116644   4.148   2.164   7.027 -0.0441  0.1426  0.0111
  141DOPC    C116645   4.189   2.117   6.898  0.6414 -0.2035  0.5503
  141DOPC    HA16646   4.181   2.006   6.899 -1.4209 -0.0932  1.5396
  141DOPC    HB16647   4.298   2.122   6.878  0.2950 -0.4534 -1.6710
  141DOPC    C216648   4.095   2.167   6.789 -0.1453  0.6444 -0.2769
  141DOPC    HS16649   4.101   2.091   6.708 -0.3744  1.0802 -0.7131
  141DOPC   O2116650   4.145   2.291   6.745  0.0073  0.4443 -0.4737
  141DOPC   C2116651   4.224   2.289   6.644  0.2635  0.0979  0.3804
  141DOPC   O2216652   4.293   2.195   6.605  0.3573 -0.0838 -0.4686
  141DOPC   C2216653   4.214   2.430   6.573  0.8300  0.0538 -0.0507
  141DOPC   H2R16654   4.296   2.479   6.630  3.7375 -1.7615 -2.3752
  141DOPC   H2S16655   4.114   2.475   6.590  0.2587 -1.3290  0.3702
  141DOPC    C316656   3.951   2.190   6.837 -0.0319  0.1922  0.9693
  141DOPC    HX16657   3.962   2.262   6.921  2.0962 -2.2860  3.0322
  141DOPC    HY16658   3.921   2.090   6.877  2.4181 -0.6619  0.8757
  141DOPC   O3116659   3.877   2.251   6.727  1.0054 -0.0434 -0.3117
  141DOPC   C3116660   3.744   2.228   6.723  1.0286  0.6608  0.5367
  141DOPC   O3216661   3.691   2.142   6.794  0.6778  1.0934  0.4581
  141DOPC   C3216662   3.684   2.306   6.609 -0.1040 -0.0856  0.1919
  141DOPC   H2X16663   3.671   2.412   6.639  0.3854  0.3163 -0.9746
  141DOPC   H2Y16664   3.750   2.316   6.521 -0.6266 -0.0862 -0.2064
  141DOPC   C2316665   4.244   2.434   6.424 -0.0206  0.3144 -0.3953
  141DOPC   H3R16666   4.330   2.367   6.403  0.9718  1.9406 -1.8023
  141DOPC   H3S16667   4.271   2.539   6.398  0.5819 -0.0278 -1.2087
  141DOPC   C2416668   4.119   2.397   6.345 -0.1038 -0.5241 -0.0530
  141DOPC   H4R16669   4.139   2.427   6.240 -0.0381 -0.9907 -0.1764
  141DOPC   H4S16670   4.033   2.456   6.382  0.9746  1.9295 -1.2453
  141DOPC   C2516671   4.094   2.248   6.355  0.0528 -0.3070  0.9400
  141DOPC   H5R16672   4.067   2.219   6.459 -0.4831 -0.0956  0.8599
  141DOPC   H5S16673   4.185   2.193   6.323 -0.0941 -0.0248  0.0314
  141DOPC   C2616674   3.972   2.201   6.278 -0.7770 -0.0679  0.0950
  141DOPC   H6R16675   3.977   2.208   6.167  0.4564 -0.0884  0.1432
  141DOPC   H6S16676   3.885   2.265   6.305  0.7509  2.3557 -0.4443
  141DOPC   C2716677   3.940   2.059   6.319  0.4367  0.0473  0.2038
  141DOPC   H7R16678   3.891   2.065   6.418  0.1030 -0.3812  0.0682
  141DOPC   H7S16679   4.026   1.988   6.316  0.4348  0.0308 -2.8983
  141DOPC   C2816680   3.841   1.977   6.237 -0.2659  0.4263 -0.3601
  141DOPC   H8R16681   3.744   2.032   6.236 -0.3661  0.2925  0.6995
  141DOPC   H8S16682   3.818   1.887   6.299  1.4521 -0.3287 -0.7819
  141DOPC   C2916683   3.893   1.956   6.098  0.2920 -0.2867  0.3469
  141DOPC   H9R16684   3.968   1.875   6.092  0.0204 -0.5685  0.7768
  141DOPC  C21016685   3.857   1.999   5.979  0.2363  0.7574  0.2416
  141DOPC  H10R16686   3.921   1.979   5.892 -1.4504  1.8258 -1.3427
  141DOPC  C21116687   3.755   2.103   5.948  0.3739  0.4965  0.7482
  141DOPC  H11R16688   3.799   2.197   5.910 -0.7556  0.7229 -0.0397
  141DOPC  H11S16689   3.687   2.131   6.031  0.1445  0.6454  0.5078
  141DOPC  C21216690   3.656   2.066   5.841 -0.0884  0.1003 -0.0839
  141DOPC  H12R16691   3.577   2.136   5.805  0.9362  1.1292 -0.4114
  141DOPC  H12S16692   3.610   1.973   5.880 -1.7024  1.3378  1.0734
  141DOPC  C21316693   3.716   2.005   5.713 -0.1047 -0.0009 -0.1842
  141DOPC  H13R16694   3.788   1.921   5.722  2.4717  1.8468 -2.2295
  141DOPC  H13S16695   3.777   2.080   5.659  1.5560 -1.1378  0.0562
  141DOPC  C21416696   3.598   1.964   5.620  0.0510 -0.2911 -0.0743
  141DOPC  H14R16697   3.557   2.059   5.581 -2.2531 -1.4270 -0.6063
  141DOPC  H14S16698   3.521   1.905   5.675  0.9118 -0.7317  0.6925
  141DOPC  C21516699   3.643   1.877   5.496 -0.5087 -0.2754 -0.4893
  141DOPC  H15R16700   3.637   1.767   5.513  2.2102 -0.1435  1.9647
  141DOPC  H15S16701   3.746   1.894   5.458 -1.4856 -0.4646 -3.4819
  141DOPC  C21616702   3.562   1.904   5.366  0.3091  0.0697  0.2775
  141DOPC  H16R16703   3.457   1.902   5.400  0.1176 -0.0802 -0.3223
  141DOPC  H16S16704   3.576   1.818   5.296 -0.0745  1.1526 -1.1728
  141DOPC  C21716705   3.597   2.041   5.297  0.5659 -0.1130 -0.0664
  141DOPC  H17R16706   3.702   2.040   5.260  0.7104 -2.5934  0.2726
  141DOPC  H17S16707   3.592   2.127   5.368  0.9362  1.2517 -1.6287
  141DOPC  C21816708   3.500   2.088   5.189 -0.1713  0.0916 -0.7472
  141DOPC  H18R16709   3.399   2.104   5.231 -1.7933  1.1252 -4.5857
  141DOPC  H18S16710   3.500   2.016   5.104  2.4706  0.9765 -1.6037
  141DOPC  H18T16711   3.542   2.187   5.162 -1.6630  1.1007  0.4608
  141DOPC   C3316712   3.549   2.245   6.565 -0.0431 -0.0589 -0.0042
  141DOPC   H3X16713   3.485   2.228   6.654  0.3948 -0.6942  0.1988
  141DOPC   H3Y16714   3.572   2.138   6.541  1.1277 -0.1253  1.3133
  141DOPC   C3416715   3.498   2.320   6.442  0.5009  0.5134  0.4411
  141DOPC   H4X16716   3.574   2.319   6.360  0.1748 -0.2741  0.1337
  141DOPC   H4Y16717   3.463   2.424   6.459  0.8262  0.6164  0.4848
  141DOPC   C3516718   3.376   2.236   6.390 -0.2133  0.8593  0.2977
  141DOPC   H5X16719   3.327   2.202   6.484 -0.3585  3.4128  1.2337
  141DOPC   H5Y16720   3.404   2.149   6.328 -0.1918  0.1968  1.2072
  141DOPC   C3616721   3.287   2.325   6.308  0.5885 -0.0840  1.0406
  141DOPC   H6X16722   3.350   2.402   6.260  0.3758 -0.0899  0.7461
  141DOPC   H6Y16723   3.230   2.279   6.224  0.2538 -0.9150  1.7005
  141DOPC   C3716724   3.178   2.417   6.383 -0.0404  0.0235  0.8377
  141DOPC   H7X16725   3.085   2.361   6.407 -0.1143  0.0473  0.6143
  141DOPC   H7Y16726   3.208   2.459   6.481 -0.1948 -0.1569  0.9641
  141DOPC   C3816727   3.148   2.544   6.301  0.8339  0.4388 -0.3698
  141DOPC   H8X16728   3.239   2.607   6.301 -0.2373  2.0379  0.4001
  141DOPC   H8Y16729   3.070   2.588   6.366  1.1059 -1.4125  1.3142
  141DOPC   C3916730   3.092   2.517   6.161 -0.7241 -0.5783  0.1836
  141DOPC   H9X16731   3.161   2.483   6.083  1.5299  0.2724  1.7334
  141DOPC  C31016732   2.963   2.496   6.126  0.0957 -0.4087  0.0946
  141DOPC  H10X16733   2.937   2.470   6.022  0.1157  2.4568 -0.7060
  141DOPC  C31116734   2.837   2.522   6.206  0.0579 -0.5260  0.0775
  141DOPC  H11X16735   2.854   2.602   6.281 -1.0238  0.0722 -0.2915
  141DOPC  H11Y16736   2.820   2.426   6.260 -0.7811  0.3598  1.4393
  141DOPC  C31216737   2.712   2.563   6.131 -0.6836  1.2936 -0.5088
  141DOPC  H12X16738   2.732   2.645   6.059  0.8636  1.4821  0.1075
  141DOPC  H12Y16739   2.643   2.598   6.211 -0.3001  2.5958 -0.7208
  141DOPC  C31316740   2.647   2.442   6.054  0.6981 -0.3358  0.0628
  141DOPC  H13X16741   2.712   2.401   5.974 -0.3472  1.7132 -1.9419
  141DOPC  H13Y16742   2.630   2.355   6.122  1.6889  0.1918  1.0282
  141DOPC  C31416743   2.524   2.482   5.975 -0.2295 -0.3967 -0.5264
  141DOPC  H14X16744   2.445   2.517   6.044 -1.0217 -2.3426 -0.3708
  141DOPC  H14Y16745   2.540   2.566   5.904 -1.0771  0.1228 -0.1174
  141DOPC  C31516746   2.467   2.362   5.889  0.8394 -0.4267 -0.4179
  141DOPC  H15X16747   2.440   2.286   5.966 -0.2447 -0.4328 -0.7775
  141DOPC  H15Y16748   2.547   2.317   5.827  0.5194  1.4967 -2.3262
  141DOPC  C31616749   2.351   2.412   5.794 -0.4348  0.0559  0.3476
  141DOPC  H16X16750   2.298   2.329   5.744 -1.7254  0.7955  0.4456
  141DOPC  H16Y16751   2.268   2.457   5.853 -1.5769 -0.7796 -0.5781
  141DOPC  C31716752   2.393   2.511   5.669  0.1502 -0.7156 -0.7006
  141DOPC  H17X16753   2.302   2.543   5.614  0.9625  0.0720 -1.6051
  141DOPC  H17Y16754   2.433   2.604   5.714  0.2813 -1.3753  0.6038
  141DOPC  C31816755   2.497   2.458   5.575  1.0383  0.2114  0.6492
  141DOPC  H18X16756   2.596   2.435   5.619  1.5377 -1.3341 -1.1553
  141DOPC  H18Y16757   2.458   2.365   5.528 -0.3324  1.5732 -1.0694
  141DOPC  H18Z16758   2.517   2.537   5.499  3.3349  0.7448  1.7408
  142DOPC     N16759   4.548   3.457   7.105 -0.3001 -0.0476 -0.2069
  142DOPC   C1216760   4.610   3.443   6.972  0.0644 -0.0504 -0.1614
  142DOPC  H12A16761   4.709   3.486   6.972 -0.0883  0.3589  1.2110
  142DOPC  H12B16762   4.550   3.496   6.900 -0.8738 -0.5434  0.2436
  142DOPC   C1316763   4.402   3.437   7.111 -0.3921  0.0063  0.1213
  142DOPC  H13A16764   4.366   3.456   7.211 -1.1706 -0.6209 -0.0257
  142DOPC  H13B16765   4.363   3.505   7.036  2.2272 -0.9378 -2.2983
  142DOPC  H13C16766   4.381   3.337   7.076 -0.1572  0.3983 -1.2012
  142DOPC   C1416767   4.569   3.592   7.155 -0.1647  0.0281 -0.6288
  142DOPC  H14A16768   4.502   3.659   7.103  0.6543  0.0949 -1.6451
  142DOPC  H14B16769   4.536   3.598   7.257 -2.6249 -0.6593 -1.3198
  142DOPC  H14C16770   4.675   3.611   7.146  0.6318 -3.5584 -0.4662
  142DOPC   C1516771   4.606   3.364   7.216  0.6471 -0.0134  0.0095
  142DOPC  H15A16772   4.552   3.270   7.210  0.1967  0.0619  2.2165
  142DOPC  H15B16773   4.572   3.390   7.315 -2.2802  0.1795 -0.9249
  142DOPC  H15C16774   4.710   3.339   7.210 -0.0461 -3.4758  0.3949
  142DOPC   C1116775   4.612   3.302   6.917 -0.2977  0.5459  0.1376
  142DOPC  H11A16776   4.652   3.310   6.814  1.2244 -0.2630  0.6432
  142DOPC  H11B16777   4.682   3.239   6.975  0.2628 -1.0344 -2.1375
  142DOPC     P16778   4.437   3.098   6.965 -0.7427  0.0785  0.1943
  142DOPC   O1316779   4.322   3.137   7.050 -0.2591  0.6677 -0.6361
  142DOPC   O1416780   4.549   3.026   7.033 -0.0278  0.5808 -0.3094
  142DOPC   O1216781   4.483   3.239   6.909 -0.1679 -1.0018  0.0599
  142DOPC   O1116782   4.396   3.018   6.838  0.1172 -0.6774  0.1461
  142DOPC    C116783   4.491   2.996   6.732  0.0586 -0.3909  1.0890
  142DOPC    HA16784   4.572   2.930   6.769  1.4481 -0.0711 -1.2210
  142DOPC    HB16785   4.534   3.090   6.691 -1.0965 -0.1339  0.3992
  142DOPC    C216786   4.412   2.930   6.617  0.1188  0.0151  0.5459
  142DOPC    HS16787   4.370   2.832   6.649 -0.7686 -0.2199 -1.1690
  142DOPC   O2116788   4.494   2.917   6.501 -0.0548 -0.1172  0.3657
  142DOPC   C2116789   4.562   2.801   6.483  0.4900 -0.2708 -0.0213
  142DOPC   O2216790   4.575   2.712   6.565  0.2401  0.2152 -0.3002
  142DOPC   C2216791   4.610   2.791   6.340 -1.0164 -0.4698  0.0525
  142DOPC   H2R16792   4.713   2.832   6.340 -1.0216 -0.4572 -0.1839
  142DOPC   H2S16793   4.556   2.864   6.275 -0.2176 -1.3149 -1.6075
  142DOPC    C316794   4.290   3.021   6.575  0.3163 -0.3939  0.1695
  142DOPC    HX16795   4.334   3.122   6.559 -0.8251 -0.2240 -2.6034
  142DOPC    HY16796   4.230   3.039   6.666 -1.1176 -0.3378 -0.7483
  142DOPC   O3116797   4.224   2.985   6.455  0.5700  0.5816 -0.2838
  142DOPC   C3116798   4.139   2.878   6.459 -0.3500  0.2284 -0.3889
  142DOPC   O3216799   4.130   2.813   6.559 -0.6867 -0.5470  0.2932
  142DOPC   C3216800   4.045   2.877   6.338  0.4797  0.0543  0.5565
  142DOPC   H2X16801   3.948   2.915   6.375  0.3498  2.1079 -1.6472
  142DOPC   H2Y16802   4.080   2.947   6.259 -2.4127  2.5500  1.2743
  142DOPC   C2316803   4.592   2.650   6.279  0.9115 -0.1274 -0.1270
  142DOPC   H3R16804   4.500   2.604   6.320 -0.4770  0.8716 -1.9434
  142DOPC   H3S16805   4.675   2.590   6.320  0.7976 -0.1184  0.1153
  142DOPC   C2416806   4.599   2.642   6.126  0.2195  0.5633  0.1626
  142DOPC   H4R16807   4.648   2.736   6.093 -0.4324  0.4803 -1.0940
  142DOPC   H4S16808   4.497   2.648   6.083 -0.3442  0.6547  1.4665
  142DOPC   C2516809   4.685   2.525   6.078  0.4492 -0.2516  0.4809
  142DOPC   H5R16810   4.653   2.424   6.110  1.6658 -0.6768  0.3895
  142DOPC   H5S16811   4.788   2.533   6.118  0.5289 -1.1778  0.4699
  142DOPC   C2616812   4.699   2.519   5.922  0.0183 -0.5288  0.6769
  142DOPC   H6R16813   4.604   2.484   5.876 -0.0268  0.4976 -0.0255
  142DOPC   H6S16814   4.773   2.437   5.911  1.1841  0.5097  0.6036
  142DOPC   C2716815   4.753   2.645   5.856  0.2609  0.1424  0.3532
  142DOPC   H7R16816   4.835   2.698   5.911  0.9848 -2.0027  1.4528
  142DOPC   H7S16817   4.675   2.723   5.854  0.8532  0.8352  2.0128
  142DOPC   C2816818   4.801   2.602   5.711 -0.0902  0.5603  0.2761
  142DOPC   H8R16819   4.715   2.575   5.646 -0.2593 -1.1938  1.1835
  142DOPC   H8S16820   4.853   2.504   5.724  1.1974  1.0893 -0.6038
  142DOPC   C2916821   4.904   2.684   5.638 -0.4571  0.5036 -0.5907
  142DOPC   H9R16822   5.008   2.686   5.674  0.3337  0.0169 -2.6784
  142DOPC  C21016823   4.886   2.758   5.531  0.2556  0.6114  1.3486
  142DOPC  H10R16824   4.968   2.812   5.483 -2.1100  2.1528 -1.2753
  142DOPC  C21116825   4.763   2.777   5.447  0.0963 -0.0729 -0.3047
  142DOPC  H11R16826   4.694   2.690   5.455 -0.6887  0.5217 -0.4700
  142DOPC  H11S16827   4.792   2.783   5.340  0.1454  1.0313 -0.2460
  142DOPC  C21216828   4.673   2.903   5.477 -0.3238  0.1658  0.2848
  142DOPC  H12R16829   4.610   2.920   5.387 -0.2377 -1.3265 -0.0810
  142DOPC  H12S16830   4.736   2.994   5.490 -2.0485  1.5141 -0.4224
  142DOPC  C21316831   4.586   2.892   5.597 -1.2413  0.6768  0.1248
  142DOPC  H13R16832   4.651   2.871   5.684 -1.8470 -1.0875  0.1762
  142DOPC  H13S16833   4.528   2.799   5.584  1.9081 -1.1383 -2.1816
  142DOPC  C21416834   4.498   3.013   5.624 -0.8412 -0.2926  0.0526
  142DOPC  H14R16835   4.433   3.016   5.534 -0.4191 -0.2009 -0.2487
  142DOPC  H14S16836   4.555   3.108   5.623  1.1201 -1.4213 -0.2728
  142DOPC  C21516837   4.402   3.007   5.749 -0.6727  0.2282  0.3854
  142DOPC  H15R16838   4.306   2.960   5.717 -0.3897  0.1306 -0.3460
  142DOPC  H15S16839   4.381   3.113   5.775  1.9762  1.0744 -0.5343
  142DOPC  C21616840   4.467   2.940   5.874  0.2651 -0.2940  0.2443
  142DOPC  H16R16841   4.570   2.981   5.884  0.1990 -0.0648 -0.0000
  142DOPC  H16S16842   4.474   2.832   5.849 -2.3202 -0.7240  1.1282
  142DOPC  C21716843   4.387   2.960   6.001  0.1079  0.6066 -0.0716
  142DOPC  H17R16844   4.382   3.065   6.034 -1.7471  0.0342  1.6777
  142DOPC  H17S16845   4.446   2.905   6.077  1.5770  1.1140 -0.8114
  142DOPC  C21816846   4.246   2.907   5.993  0.2358  0.0427  0.1525
  142DOPC  H18R16847   4.252   2.796   5.981 -0.4511  0.2140 -2.3430
  142DOPC  H18S16848   4.172   2.940   5.917 -0.3423 -1.6617 -0.0829
  142DOPC  H18T16849   4.192   2.927   6.088 -0.0549 -0.9037  0.2025
  142DOPC   C3316850   4.036   2.743   6.271  0.5096  0.3867  1.1238
  142DOPC   H3X16851   4.001   2.667   6.344  1.5043  1.2486  2.5584
  142DOPC   H3Y16852   4.139   2.709   6.245  1.0566  1.4850  1.7529
  142DOPC   C3416853   3.935   2.739   6.157 -0.1554  0.1352 -0.4789
  142DOPC   H4X16854   3.968   2.806   6.075  0.1008  0.0477 -0.4487
  142DOPC   H4Y16855   3.831   2.761   6.188 -0.4180  0.0166 -1.2793
  142DOPC   C3516856   3.938   2.599   6.102  0.1690  0.9821 -0.8330
  142DOPC   H5X16857   3.906   2.537   6.188  1.7447  1.0794 -0.1307
  142DOPC   H5Y16858   4.037   2.553   6.081  0.2610 -0.0388  1.5281
  142DOPC   C3616859   3.835   2.572   5.992 -0.2763 -0.5753 -0.0696
  142DOPC   H6X16860   3.840   2.466   5.960 -2.2169 -0.9790  0.8397
  142DOPC   H6Y16861   3.733   2.595   6.028 -0.8312 -2.2684 -0.4908
  142DOPC   C3716862   3.866   2.657   5.869  0.0697  0.2148 -0.2008
  142DOPC   H7X16863   3.868   2.763   5.901 -0.4693  0.6821 -1.6403
  142DOPC   H7Y16864   3.968   2.633   5.833  0.2180 -1.1949  1.0335
  142DOPC   C3816865   3.761   2.642   5.754  0.1599  0.3837 -0.1957
  142DOPC   H8X16866   3.763   2.724   5.680 -0.3882  1.1344  0.6082
  142DOPC   H8Y16867   3.660   2.646   5.801  0.3423 -2.8327  0.7392
  142DOPC   C3916868   3.790   2.512   5.676  0.1882 -0.7360 -0.7177
  142DOPC   H9X16869   3.891   2.500   5.634 -0.1993  1.4702 -2.4843
  142DOPC  C31016870   3.702   2.414   5.668 -0.9739  0.3053 -0.0206
  142DOPC  H10X16871   3.724   2.330   5.601 -1.4918  1.1324 -1.2556
  142DOPC  C31116872   3.565   2.418   5.721 -0.0553  0.0294 -1.0744
  142DOPC  H11X16873   3.542   2.526   5.731  1.3239  0.2421  0.1976
  142DOPC  H11Y16874   3.563   2.354   5.812  1.8989 -0.2701 -1.2179
  142DOPC  C31216875   3.467   2.362   5.618  0.8051 -0.2629  0.2342
  142DOPC  H12X16876   3.369   2.342   5.666  1.0943 -0.2803  0.8281
  142DOPC  H12Y16877   3.507   2.263   5.589  0.2359 -0.6346  0.7055
  142DOPC  C31316878   3.438   2.449   5.492  0.1789 -0.1158 -0.2030
  142DOPC  H13X16879   3.401   2.547   5.530 -2.2872 -0.8169 -0.6043
  142DOPC  H13Y16880   3.537   2.465   5.443 -0.6989  0.0546 -1.9985
  142DOPC  C31416881   3.334   2.383   5.396 -0.3136 -0.7529 -0.1336
  142DOPC  H14X16882   3.386   2.300   5.344 -0.6429 -0.9075 -0.2231
  142DOPC  H14Y16883   3.246   2.344   5.453  0.4277  0.2029  1.7435
  142DOPC  C31516884   3.291   2.478   5.285  0.3523 -0.2973  0.6491
  142DOPC  H15X16885   3.376   2.502   5.218  0.3356 -0.9609  0.3905
  142DOPC  H15Y16886   3.238   2.564   5.332  3.3358  2.0467  0.0142
  142DOPC  C31616887   3.185   2.406   5.203 -0.9589  0.5994  0.1286
  142DOPC  H16X16888   3.247   2.322   5.166 -0.0497  1.0970  0.4912
  142DOPC  H16Y16889   3.103   2.365   5.266 -0.9237 -0.3049 -0.4014
  142DOPC  C31716890   3.131   2.490   5.090  0.0218  0.5853  0.0728
  142DOPC  H17X16891   3.083   2.580   5.135  0.2908  1.9288 -2.1716
  142DOPC  H17Y16892   3.207   2.525   5.017 -0.9130  1.8272 -0.3288
  142DOPC  C31816893   3.037   2.409   4.993 -1.2192 -0.6963 -0.9852
  142DOPC  H18X16894   3.094   2.365   4.909  0.0350  0.1642 -0.6104
  142DOPC  H18Y16895   2.983   2.329   5.049 -0.9142  0.5878  1.2493
  142DOPC  H18Z16896   2.962   2.480   4.954 -3.1781 -1.0408  1.8168
  143DOPC     N16897   2.701   2.947   7.222  0.0462  1.2186 -0.3025
  143DOPC   C1216898   2.556   2.979   7.199  0.1511  0.0884 -0.1505
  143DOPC  H12A16899   2.529   2.927   7.107  0.3559 -1.9495  0.8758
  143DOPC  H12B16900   2.555   3.084   7.177 -1.8416 -0.2752 -2.1899
  143DOPC   C1316901   2.785   2.972   7.096  0.6220  0.3564 -0.2323
  143DOPC  H13A16902   2.787   3.076   7.068  0.2743  0.1624 -0.9881
  143DOPC  H13B16903   2.887   2.955   7.127  1.4869  1.8990 -2.0393
  143DOPC  H13C16904   2.749   2.907   7.017  1.0744 -1.0271  0.6646
  143DOPC   C1416905   2.721   2.801   7.254 -0.0761 -0.0547  0.1022
  143DOPC  H14A16906   2.658   2.769   7.336  0.3938 -2.6559 -0.4485
  143DOPC  H14B16907   2.694   2.740   7.169  1.7711  0.6447 -1.0251
  143DOPC  H14C16908   2.821   2.767   7.274 -0.5614 -0.6898  1.6383
  143DOPC   C1516909   2.762   3.020   7.336 -0.0301 -0.0466  0.3076
  143DOPC  H15A16910   2.707   2.988   7.423 -1.5365 -1.4998 -1.1075
  143DOPC  H15B16911   2.759   3.128   7.340  1.2630 -0.0274  2.2784
  143DOPC  H15C16912   2.864   2.987   7.350  0.1817  0.2810 -0.3906
  143DOPC   C1116913   2.452   2.945   7.307 -0.1115  0.1636  0.3584
  143DOPC  H11A16914   2.491   2.973   7.407  0.4357  1.3955 -0.1768
  143DOPC  H11B16915   2.359   3.006   7.298  1.4971  3.1181  2.2472
  143DOPC     P16916   2.289   2.747   7.261 -0.0278 -0.5006  0.3860
  143DOPC   O1316917   2.175   2.822   7.314 -0.5784 -0.8680  0.0176
  143DOPC   O1416918   2.297   2.604   7.281  0.8828  0.3229 -0.3690
  143DOPC   O1216919   2.432   2.801   7.317 -0.2726  0.0659 -0.0941
  143DOPC   O1116920   2.296   2.772   7.103 -0.0463  0.0610 -0.9479
  143DOPC    C116921   2.192   2.728   7.018  0.1085  0.3829  0.2875
  143DOPC    HA16922   2.156   2.811   6.954 -0.6558 -1.2334 -1.5212
  143DOPC    HB16923   2.105   2.682   7.070 -0.2424 -0.3194 -0.8659
  143DOPC    C216924   2.247   2.618   6.921  0.4931 -0.3579 -0.3312
  143DOPC    HS16925   2.324   2.562   6.978  0.5852 -1.9165 -1.9065
  143DOPC   O2116926   2.289   2.678   6.796 -0.0389 -0.4696  0.1619
  143DOPC   C2116927   2.370   2.603   6.726 -0.1943 -0.4698 -0.8370
  143DOPC   O2216928   2.416   2.494   6.760  0.1176 -0.7236 -0.0354
  143DOPC   C2216929   2.419   2.696   6.604  0.1830 -0.4460  0.0691
  143DOPC   H2R16930   2.471   2.783   6.648 -1.3250 -0.7244  2.5959
  143DOPC   H2S16931   2.331   2.726   6.542  1.4139 -1.0780 -2.1143
  143DOPC    C316932   2.126   2.521   6.894  0.3303  0.4624 -0.4341
  143DOPC    HX16933   2.091   2.488   6.995  0.7323 -1.9623 -1.0321
  143DOPC    HY16934   2.155   2.426   6.845  0.1567 -0.6978  1.5803
  143DOPC   O3116935   2.013   2.591   6.835 -0.0142  0.2503 -0.5865
  143DOPC   C3116936   2.010   2.572   6.702 -0.1476  0.1417  0.3370
  143DOPC   O3216937   2.089   2.504   6.639 -0.3911 -0.2089 -0.0329
  143DOPC   C3216938   1.898   2.649   6.641 -0.3358  0.0886 -0.0776
  143DOPC   H2X16939   1.803   2.612   6.685 -1.3275  1.5761 -0.8864
  143DOPC   H2Y16940   1.904   2.757   6.668  1.8594 -0.3363  1.2870
  143DOPC   C2316941   2.504   2.612   6.509 -0.0092  0.6504  0.8266
  143DOPC   H3R16942   2.594   2.562   6.552 -0.3881 -4.2264 -3.0954
  143DOPC   H3S16943   2.542   2.684   6.434  0.9034  0.2730  0.9069
  143DOPC   C2416944   2.439   2.501   6.430  0.3809 -0.3425  0.1309
  143DOPC   H4R16945   2.399   2.428   6.504 -1.9589  1.4799  0.7776
  143DOPC   H4S16946   2.513   2.449   6.366  1.4038 -0.1513  1.1333
  143DOPC   C2516947   2.324   2.551   6.339 -0.2530 -0.4995  0.3747
  143DOPC   H5R16948   2.357   2.623   6.261  0.8089 -2.8921 -1.5212
  143DOPC   H5S16949   2.239   2.593   6.397 -1.9743 -2.0206 -0.9356
  143DOPC   C2616950   2.252   2.420   6.276  0.1369 -0.4796 -0.3362
  143DOPC   H6R16951   2.210   2.361   6.360  1.0215 -0.0471  0.4307
  143DOPC   H6S16952   2.328   2.360   6.222 -1.0680 -0.3008 -2.3278
  143DOPC   C2716953   2.150   2.460   6.178 -0.0206  0.0186  0.7573
  143DOPC   H7R16954   2.211   2.532   6.119 -0.6644  1.3034  1.6298
  143DOPC   H7S16955   2.069   2.517   6.227 -0.1893  0.5543 -0.1417
  143DOPC   C2816956   2.093   2.347   6.086 -0.6202 -0.5491  0.2687
  143DOPC   H8R16957   2.178   2.294   6.037 -1.8423 -0.1009 -2.5583
  143DOPC   H8S16958   2.042   2.398   6.002  2.5081 -0.5869 -1.8186
  143DOPC   C2916959   2.002   2.248   6.160 -0.1070 -0.0635  0.1242
  143DOPC   H9R16960   2.028   2.235   6.266  3.6433  0.2908 -0.6389
  143DOPC  C21016961   1.886   2.199   6.118 -0.1077 -0.5079 -0.8100
  143DOPC  H10R16962   1.825   2.134   6.183  0.3907  1.6674  2.0119
  143DOPC  C21116963   1.840   2.221   5.981 -0.2270 -0.7154 -0.1784
  143DOPC  H11R16964   1.927   2.252   5.919 -2.0086  0.7833 -2.0789
  143DOPC  H11S16965   1.773   2.309   5.998  0.9324 -0.2037  2.1125
  143DOPC  C21216966   1.755   2.114   5.925  0.2162  0.2574 -0.1528
  143DOPC  H12R16967   1.661   2.116   5.984  0.7347 -1.4104  0.7885
  143DOPC  H12S16968   1.791   2.010   5.942 -2.2259 -0.6987 -0.5079
  143DOPC  C21316969   1.715   2.123   5.775 -0.1315  0.3620  0.1694
  143DOPC  H13R16970   1.807   2.110   5.714 -0.3395  1.0428 -0.3034
  143DOPC  H13S16971   1.658   2.214   5.747 -2.0281 -0.6576  0.5484
  143DOPC  C21416972   1.630   1.992   5.740 -0.0425  0.2091 -0.2779
  143DOPC  H14R16973   1.542   1.982   5.807  0.2369 -3.6975 -0.2612
  143DOPC  H14S16974   1.682   1.899   5.771 -1.2036  0.0725  1.4003
  143DOPC  C21516975   1.582   2.000   5.595  0.0452 -0.2799  0.1209
  143DOPC  H15R16976   1.515   2.087   5.578 -0.6258  0.1730  4.1180
  143DOPC  H15S16977   1.534   1.902   5.573 -1.0322  0.0364  0.9483
  143DOPC  C21616978   1.702   2.012   5.501 -0.4473 -0.5781  0.5122
  143DOPC  H16R16979   1.777   1.931   5.512  2.1915  1.7831  0.8811
  143DOPC  H16S16980   1.745   2.113   5.520  0.0004 -0.9196  1.3848
  143DOPC  C21716981   1.657   2.014   5.358 -0.3062 -0.0902  0.3817
  143DOPC  H17R16982   1.594   2.105   5.347  0.2304  0.4881  1.7573
  143DOPC  H17S16983   1.595   1.925   5.335 -0.1241  0.3895 -2.2092
  143DOPC  C21816984   1.775   2.028   5.258  0.5459  0.5000 -1.0346
  143DOPC  H18R16985   1.755   2.037   5.149  1.8540 -0.9310 -1.4271
  143DOPC  H18S16986   1.823   1.927   5.256 -1.1645 -0.4701  1.4605
  143DOPC  H18T16987   1.851   2.097   5.301 -1.1057  2.7374 -1.5480
  143DOPC   C3316988   1.888   2.632   6.488 -0.0961  0.1776  0.4718
  143DOPC   H3X16989   1.905   2.527   6.458 -1.7530 -0.2701  1.0378
  143DOPC   H3Y16990   1.962   2.689   6.427 -0.3036  0.5248  0.5417
  143DOPC   C3416991   1.745   2.656   6.433 -0.1974  0.0772 -0.3356
  143DOPC   H4X16992   1.714   2.761   6.455  2.0048  0.9532 -1.1313
  143DOPC   H4Y16993   1.675   2.582   6.477 -2.6568  0.4598 -3.2463
  143DOPC   C3516994   1.741   2.631   6.279 -0.0668 -0.1342 -0.1705
  143DOPC   H5X16995   1.752   2.521   6.266  2.2568  0.1585 -1.0312
  143DOPC   H5Y16996   1.828   2.684   6.235 -0.9151  0.4843 -1.1673
  143DOPC   C3616997   1.613   2.684   6.207 -0.2991 -0.2195  0.1940
  143DOPC   H6X16998   1.524   2.658   6.267 -1.8957  1.8881 -1.1148
  143DOPC   H6Y16999   1.622   2.794   6.196 -1.4374 -0.3632 -3.0298
  143DOPC   C3717000   1.586   2.630   6.069  0.6551  0.0081 -0.9681
  143DOPC   H7X17001   1.535   2.534   6.093  0.2206  0.6109  0.6452
  143DOPC   H7Y17002   1.508   2.693   6.020  1.4132  1.3358 -0.5042
  143DOPC   C3817003   1.694   2.589   5.969  0.2484 -0.3322  0.7275
  143DOPC   H8X17004   1.775   2.533   6.021 -0.0308 -0.1684  1.3436
  143DOPC   H8Y17005   1.747   2.678   5.928  0.5755 -0.1919  1.4488
  143DOPC   C3917006   1.645   2.504   5.859 -0.6569  0.1841  0.4977
  143DOPC   H9X17007   1.555   2.447   5.885  0.0988 -0.9369  0.7558
  143DOPC  C31017008   1.677   2.508   5.726 -0.1318  0.1833  0.1144
  143DOPC  H10X17009   1.617   2.435   5.669 -0.3072 -1.2492  2.0466
  143DOPC  C31117010   1.774   2.598   5.656 -0.1952 -0.0937 -0.3621
  143DOPC  H11X17011   1.768   2.695   5.710 -1.8343 -0.6984  0.5953
  143DOPC  H11Y17012   1.760   2.618   5.548  0.6901  1.1498 -0.2698
  143DOPC  C31217013   1.919   2.544   5.655 -0.6234 -0.6687  0.1822
  143DOPC  H12X17014   1.942   2.496   5.753  2.6245  2.6933  1.2691
  143DOPC  H12Y17015   1.989   2.624   5.624 -1.4750  0.1971  0.4334
  143DOPC  C31317016   1.927   2.438   5.535 -0.6743  0.0934  0.4369
  143DOPC  H13X17017   1.859   2.352   5.553 -1.1546  0.2598 -0.5039
  143DOPC  H13Y17018   1.890   2.494   5.447  1.1691 -0.6238 -0.8501
  143DOPC  C31417019   2.068   2.384   5.509  0.1639 -0.0790 -0.4968
  143DOPC  H14X17020   2.147   2.457   5.479 -0.8056  0.3305 -2.2295
  143DOPC  H14Y17021   2.089   2.349   5.612  0.1707  2.8063  0.5731
  143DOPC  C31517022   2.056   2.275   5.397  0.1182  0.3880  0.2587
  143DOPC  H15X17023   1.981   2.201   5.433  0.1107  0.9732  1.5239
  143DOPC  H15Y17024   2.155   2.223   5.396 -0.2921 -0.4507  1.3406
  143DOPC  C31617025   2.029   2.337   5.258  0.6883 -0.2661 -0.4311
  143DOPC  H16X17026   1.925   2.375   5.254  0.9406  0.7091  1.3315
  143DOPC  H16Y17027   2.092   2.427   5.243 -0.3168  0.6297  0.5259
  143DOPC  C31717028   2.041   2.254   5.127  0.1405  0.6969 -0.0155
  143DOPC  H17X17029   1.951   2.190   5.126 -0.1380  1.0822 -1.1326
  143DOPC  H17Y17030   2.042   2.321   5.038  0.1687 -2.0095 -2.1984
  143DOPC  C31817031   2.171   2.170   5.110  0.3619  0.5970 -0.6151
  143DOPC  H18X17032   2.192   2.103   5.196 -0.3299  2.1458  0.8232
  143DOPC  H18Y17033   2.171   2.115   5.013  0.4512 -0.7288  0.1186
  143DOPC  H18Z17034   2.261   2.235   5.110 -0.4967  1.8447  0.2935
  144DOPC     N17035   2.951   1.863   7.311  0.5794  0.3507  0.0579
  144DOPC   C1217036   3.019   1.946   7.200 -0.3330 -0.2217  0.3701
  144DOPC  H12A17037   3.108   1.891   7.171 -1.3257 -0.9063 -1.5531
  144DOPC  H12B17038   3.053   2.043   7.234  2.9486 -1.0936  0.0071
  144DOPC   C1317039   3.050   1.821   7.416  0.3252  0.4593 -0.8563
  144DOPC  H13A17040   3.110   1.901   7.456  0.8817 -1.3296  2.1377
  144DOPC  H13B17041   3.006   1.767   7.498 -0.6235  2.8407  0.3033
  144DOPC  H13C17042   3.125   1.754   7.379 -1.0774 -1.9496  0.4300
  144DOPC   C1417043   2.881   1.753   7.240  0.0348  0.5334 -0.0216
  144DOPC  H14A17044   2.815   1.783   7.160  1.7548  0.6421 -1.4841
  144DOPC  H14B17045   2.949   1.686   7.190 -2.5514 -1.1179 -1.5746
  144DOPC  H14C17046   2.810   1.699   7.300  0.3020 -0.0903 -0.2613
  144DOPC   C1517047   2.848   1.950   7.375  0.5540 -0.0999 -0.7901
  144DOPC  H15A17048   2.768   1.984   7.310  1.0625  0.7933 -0.9833
  144DOPC  H15B17049   2.897   2.039   7.413  0.0775  0.3829 -1.2835
  144DOPC  H15C17050   2.802   1.893   7.453 -0.4569 -0.0664 -1.3507
  144DOPC   C1117051   2.939   1.975   7.070  0.0169 -0.4923 -0.0247
  144DOPC  H11A17052   3.003   2.030   6.998  0.4615 -2.4268 -1.1695
  144DOPC  H11B17053   2.911   1.889   7.006  0.2270  0.0257 -0.8253
  144DOPC     P17054   2.675   2.034   7.060  0.3776 -0.0750  0.6892
  144DOPC   O1317055   2.616   2.159   7.005 -0.1594 -0.0974  0.1801
  144DOPC   O1417056   2.606   1.983   7.178  0.3223  0.4279 -0.5183
  144DOPC   O1217057   2.823   2.054   7.097  0.4719  0.2430 -0.5484
  144DOPC   O1117058   2.675   1.923   6.954 -0.4309 -0.2365  0.7657
  144DOPC    C117059   2.731   1.954   6.818 -0.4518 -0.0808  0.3935
  144DOPC    HA17060   2.805   1.874   6.799 -1.6606 -0.7048 -2.2688
  144DOPC    HB17061   2.789   2.048   6.807  0.5120 -0.8125 -1.1073
  144DOPC    C217062   2.628   1.926   6.700  0.2480  0.2628  0.1347
  144DOPC    HS17063   2.528   1.969   6.722 -0.6711 -0.0372 -2.9485
  144DOPC   O2117064   2.617   1.781   6.674 -0.2716  0.0624  0.1725
  144DOPC   C2117065   2.507   1.742   6.640 -0.0063  0.4007  0.7121
  144DOPC   O2217066   2.397   1.797   6.664 -0.2713 -0.1165  0.0728
  144DOPC   C2217067   2.533   1.628   6.536  0.6549 -0.8096  0.2412
  144DOPC   H2R17068   2.499   1.532   6.580 -0.4922  0.3563  2.0288
  144DOPC   H2S17069   2.642   1.607   6.526  0.9578  0.5045  0.6036
  144DOPC    C317070   2.682   2.004   6.578  0.5091  0.1040 -0.8272
  144DOPC    HX17071   2.777   1.951   6.555 -0.7016 -1.0149 -3.8177
  144DOPC    HY17072   2.712   2.107   6.605  0.6375 -0.1230 -0.0849
  144DOPC   O3117073   2.593   1.999   6.459  0.0429  0.4216 -0.2396
  144DOPC   C3117074   2.486   2.081   6.469  0.7564  0.6967  0.2701
  144DOPC   O3217075   2.475   2.166   6.556  0.0373  0.0053 -0.4754
  144DOPC   C3217076   2.383   2.055   6.356 -0.2401  0.0693  0.1485
  144DOPC   H2X17077   2.314   1.976   6.392  0.2854 -0.4587  0.0139
  144DOPC   H2Y17078   2.312   2.140   6.351 -2.7556 -1.8185  1.1985
  144DOPC   C2317079   2.457   1.644   6.399 -0.6442  0.0804 -1.1458
  144DOPC   H3R17080   2.481   1.740   6.347 -2.2190  2.0258  1.4746
  144DOPC   H3S17081   2.346   1.640   6.404 -0.6208 -0.9730 -1.2965
  144DOPC   C2417082   2.497   1.536   6.298  0.1210 -0.0750 -0.1305
  144DOPC   H4R17083   2.463   1.436   6.333 -1.4194 -0.0610 -1.4554
  144DOPC   H4S17084   2.608   1.539   6.290  0.2060 -0.0361  0.9270
  144DOPC   C2517085   2.451   1.571   6.157  0.1636  0.5413  0.2723
  144DOPC   H5R17086   2.515   1.651   6.114  0.2733  0.3084 -0.0115
  144DOPC   H5S17087   2.350   1.615   6.170  1.1819  2.4722  2.2047
  144DOPC   C2617088   2.462   1.453   6.059  0.1506  0.3915 -0.9087
  144DOPC   H6R17089   2.395   1.374   6.099  0.9548  0.3339  0.3913
  144DOPC   H6S17090   2.566   1.413   6.055  0.1809  0.1382  1.2716
  144DOPC   C2717091   2.434   1.507   5.917 -0.7708  0.0247 -0.2956
  144DOPC   H7R17092   2.517   1.575   5.888 -0.0712 -0.6227  0.1341
  144DOPC   H7S17093   2.352   1.580   5.928 -0.3110  0.4740  0.1808
  144DOPC   C2817094   2.416   1.392   5.814  0.0038  0.0436 -0.2497
  144DOPC   H8R17095   2.378   1.301   5.866 -0.5163  0.0587 -0.5969
  144DOPC   H8S17096   2.524   1.378   5.791  0.6165 -0.9958  2.7184
  144DOPC   C2917097   2.331   1.424   5.692 -0.3626 -0.2327 -0.3611
  144DOPC   H9R17098   2.242   1.360   5.695 -0.0916 -0.5884  0.2253
  144DOPC  C21017099   2.356   1.465   5.565  0.5832 -0.3714 -0.3691
  144DOPC  H10R17100   2.266   1.470   5.501  0.2283 -0.7210  0.0892
  144DOPC  C21117101   2.471   1.536   5.502 -0.8545 -0.2309 -0.4005
  144DOPC  H11R17102   2.461   1.639   5.541 -1.2793  0.9518 -3.3439
  144DOPC  H11S17103   2.455   1.532   5.392 -0.6362  1.4977 -0.5164
  144DOPC  C21217104   2.611   1.498   5.534 -0.1930 -0.9669 -0.0716
  144DOPC  H12R17105   2.617   1.522   5.642  3.3741  0.4900 -0.4625
  144DOPC  H12S17106   2.677   1.567   5.478  0.2260 -2.7994 -1.9963
  144DOPC  C21317107   2.633   1.348   5.497  0.1111 -0.1438 -0.7029
  144DOPC  H13R17108   2.584   1.341   5.397 -1.4517  1.8683 -0.1598
  144DOPC  H13S17109   2.573   1.297   5.575 -0.9919 -0.1740 -1.5365
  144DOPC  C21417110   2.770   1.296   5.484 -0.3574  0.4887  0.4178
  144DOPC  H14R17111   2.769   1.185   5.484  1.3956  0.4378 -0.6075
  144DOPC  H14S17112   2.829   1.316   5.576 -0.6315 -0.0874  0.7219
  144DOPC  C21517113   2.853   1.344   5.369  0.2419 -0.3758  0.3102
  144DOPC  H15R17114   2.848   1.454   5.379  0.0186 -0.2239 -1.2379
  144DOPC  H15S17115   2.792   1.324   5.278  1.2183 -0.2902 -0.3813
  144DOPC  C21617116   3.001   1.286   5.361 -0.0570  0.1397 -0.0537
  144DOPC  H16R17117   3.055   1.284   5.459  0.4732  1.9104 -0.2670
  144DOPC  H16S17118   3.061   1.362   5.306 -1.2937 -0.0720 -1.7537
  144DOPC  C21717119   3.011   1.159   5.276  0.1641  0.6889 -0.3963
  144DOPC  H17R17120   2.950   1.181   5.186  1.2744  0.7578 -1.1621
  144DOPC  H17S17121   2.965   1.071   5.325  1.3315  0.0540 -0.3919
  144DOPC  C21817122   3.154   1.124   5.234  0.2766 -0.4632  0.3431
  144DOPC  H18R17123   3.137   1.041   5.163 -1.4028  1.2691 -1.3904
  144DOPC  H18S17124   3.227   1.088   5.310  1.6911 -2.0602 -1.6654
  144DOPC  H18T17125   3.195   1.216   5.186  1.3728  0.4725  2.8366
  144DOPC   C3317126   2.436   2.034   6.215 -0.8025 -0.5429 -0.0593
  144DOPC   H3X17127   2.520   1.962   6.227 -0.0586  0.2350 -0.5145
  144DOPC   H3Y17128   2.486   2.126   6.180  1.0392 -1.7451 -0.6943
  144DOPC   C3417129   2.339   1.968   6.131  1.0860 -0.0535  0.0100
  144DOPC   H4X17130   2.253   2.036   6.112  1.2475  0.3280  0.6245
  144DOPC   H4Y17131   2.304   1.875   6.182  1.2379  1.0929  2.3264
  144DOPC   C3517132   2.399   1.933   5.992 -0.1259 -0.4718 -0.5228
  144DOPC   H5X17133   2.483   1.860   5.992 -0.8106 -1.2847 -0.5056
  144DOPC   H5Y17134   2.441   2.025   5.947 -0.3843 -0.1767 -0.1594
  144DOPC   C3617135   2.299   1.878   5.892 -0.8110 -0.8380 -0.6349
  144DOPC   H6X17136   2.343   1.846   5.795 -0.4487  1.3199 -1.2277
  144DOPC   H6Y17137   2.246   1.790   5.935 -2.0145 -0.3425 -1.0601
  144DOPC   C3717138   2.197   1.988   5.855  0.0471  0.0079 -0.3938
  144DOPC   H7X17139   2.135   2.014   5.943 -0.7746  1.6726 -1.4126
  144DOPC   H7Y17140   2.250   2.085   5.841 -1.0657  0.7369  0.2400
  144DOPC   C3817141   2.112   1.955   5.732 -0.3206  0.1430 -0.1693
  144DOPC   H8X17142   2.179   1.909   5.656  2.7667  0.4031  2.1878
  144DOPC   H8Y17143   2.079   2.054   5.695  0.3621  0.3278 -0.2900
  144DOPC   C3917144   2.001   1.867   5.772 -0.1124  0.5893 -0.5091
  144DOPC   H9X17145   1.942   1.909   5.855 -1.9190 -1.8254 -0.4742
  144DOPC  C31017146   1.973   1.743   5.731 -0.1583  0.2503  0.0528
  144DOPC  H10X17147   1.888   1.693   5.780 -0.3140  0.2199 -0.2492
  144DOPC  C31117148   2.042   1.652   5.628  0.3783  0.0283  0.7814
  144DOPC  H11X17149   2.097   1.580   5.692  0.0730 -1.3231 -0.4059
  144DOPC  H11Y17150   2.121   1.708   5.573 -0.5090 -0.3628 -0.9671
  144DOPC  C31217151   1.959   1.583   5.522  0.7417  0.6236  0.2349
  144DOPC  H12X17152   1.885   1.518   5.574  2.6711 -2.1099 -0.2495
  144DOPC  H12Y17153   2.027   1.520   5.462  0.9606 -1.6215  2.6690
  144DOPC  C31317154   1.890   1.676   5.429 -0.2853  0.9777 -0.1171
  144DOPC  H13X17155   1.799   1.727   5.470 -1.1328  0.1068 -0.8762
  144DOPC  H13Y17156   1.961   1.757   5.404  1.6468 -0.3726  0.7309
  144DOPC  C31417157   1.847   1.624   5.292  0.1471  0.9902 -0.5471
  144DOPC  H14X17158   1.773   1.694   5.246 -1.3442 -0.2278 -0.0827
  144DOPC  H14Y17159   1.940   1.613   5.232 -0.5317 -0.7112 -1.3412
  144DOPC  C31517160   1.781   1.483   5.291 -0.5926 -0.6152  0.4109
  144DOPC  H15X17161   1.679   1.487   5.335 -0.7823  0.9889 -0.0886
  144DOPC  H15Y17162   1.844   1.408   5.342 -0.1449 -0.1218  0.5941
  144DOPC  C31617163   1.752   1.436   5.146 -1.0196 -0.1969 -0.4314
  144DOPC  H16X17164   1.684   1.506   5.093  0.4644  1.7822  0.1338
  144DOPC  H16Y17165   1.848   1.441   5.089  0.2988 -1.9082  1.4712
  144DOPC  C31717166   1.693   1.292   5.140  0.4999 -0.1102  0.2126
  144DOPC  H17X17167   1.755   1.222   5.199  0.2288  0.3833  1.0974
  144DOPC  H17Y17168   1.598   1.301   5.196  1.4982  1.8979  1.7375
  144DOPC  C31817169   1.697   1.249   4.996  0.3499 -0.3212 -0.0308
  144DOPC  H18X17170   1.655   1.333   4.937 -1.9767 -0.9731  0.6195
  144DOPC  H18Y17171   1.802   1.233   4.963  0.5142 -3.6832  1.6911
  144DOPC  H18Z17172   1.626   1.167   4.977  0.3707 -0.4803  0.5434
  145DOPC     N17173   1.161   4.729   7.026 -0.0065  0.1468  0.2870
  145DOPC   C1217174   1.212   4.702   6.886  0.1713  0.1811 -0.4942
  145DOPC  H12A17175   1.228   4.800   6.843 -2.3364  1.4720  1.2966
  145DOPC  H12B17176   1.135   4.643   6.838  0.3397 -0.4265 -0.0337
  145DOPC   C1317177   1.179   4.611   7.123  0.1098  0.1208  0.1465
  145DOPC  H13A17178   1.172   4.651   7.223 -1.1985 -0.8231  0.4580
  145DOPC  H13B17179   1.102   4.537   7.107 -1.5306  0.8862  3.6527
  145DOPC  H13C17180   1.278   4.571   7.111  0.3184  0.7704 -0.3980
  145DOPC   C1417181   1.026   4.781   7.023  0.4885 -0.6709 -0.1488
  145DOPC  H14A17182   1.001   4.819   7.121  1.2246 -0.7693  0.0824
  145DOPC  H14B17183   1.001   4.857   6.951 -1.2834  1.8060  2.8196
  145DOPC  H14C17184   0.953   4.704   7.001  0.2573 -0.3690 -0.4408
  145DOPC   C1517185   1.255   4.833   7.085  0.0559 -0.1951  0.3618
  145DOPC  H15A17186   1.280   4.911   7.014  0.1584  0.4162  1.0517
  145DOPC  H15B17187   1.345   4.776   7.103  0.1098 -0.4835 -0.7549
  145DOPC  H15C17188   1.225   4.877   7.179 -1.4804 -1.4524  0.4948
  145DOPC   C1117189   1.350   4.627   6.866  0.7089 -0.3200 -0.1222
  145DOPC  H11A17190   1.354   4.529   6.917 -2.3172  0.0704  1.0892
  145DOPC  H11B17191   1.353   4.604   6.758  2.0155  1.3788 -0.4957
  145DOPC     P17192   1.508   4.822   6.803  0.2661  0.4383 -0.1801
  145DOPC   O1317193   1.596   4.918   6.867 -0.1622 -0.0825  0.5870
  145DOPC   O1417194   1.396   4.875   6.722  0.0818 -0.2332 -0.7360
  145DOPC   O1217195   1.458   4.708   6.902 -0.0244 -0.3421  0.5831
  145DOPC   O1117196   1.600   4.747   6.696 -0.4766  0.2129  0.2088
  145DOPC    C117197   1.683   4.635   6.729  0.3683 -0.1799  0.0189
  145DOPC    HA17198   1.627   4.548   6.770 -0.0064  0.6781  1.3842
  145DOPC    HB17199   1.761   4.670   6.800  2.0257  2.8864 -3.0144
  145DOPC    C217200   1.772   4.575   6.617 -0.6968 -0.8936  0.1961
  145DOPC    HS17201   1.850   4.653   6.613 -2.2738  1.0786  3.3999
  145DOPC   O2117202   1.713   4.570   6.484  0.1595 -0.7432 -0.5255
  145DOPC   C2117203   1.611   4.482   6.479  0.8130 -0.2908 -0.5327
  145DOPC   O2217204   1.584   4.398   6.561  0.2922 -0.5704 -0.1042
  145DOPC   C2217205   1.536   4.503   6.356 -0.2670  0.6522 -0.2756
  145DOPC   H2R17206   1.513   4.611   6.341 -1.8682  0.3793  0.0335
  145DOPC   H2S17207   1.433   4.463   6.367 -0.5561  1.9020  2.3999
  145DOPC    C317208   1.845   4.447   6.664 -0.1238  0.0605 -0.0800
  145DOPC    HX17209   1.771   4.369   6.690 -2.0676  2.1354  0.9582
  145DOPC    HY17210   1.880   4.470   6.767 -1.0065  1.4985 -0.0654
  145DOPC   O3117211   1.945   4.397   6.574  0.1785  0.2294  0.2816
  145DOPC   C3117212   2.059   4.465   6.570  0.3595 -0.1789  0.1684
  145DOPC   O3217213   2.086   4.549   6.654 -0.5597 -0.6137  0.1137
  145DOPC   C3217214   2.154   4.394   6.469  0.1622  0.1712 -0.0383
  145DOPC   H2X17215   2.238   4.467   6.455  1.2892 -0.9626  0.5743
  145DOPC   H2Y17216   2.189   4.301   6.519  0.8126 -0.2495 -1.2396
  145DOPC   C2317217   1.621   4.471   6.232 -0.2617 -0.4639  0.3807
  145DOPC   H3R17218   1.652   4.366   6.214  1.3659  0.3322 -1.7053
  145DOPC   H3S17219   1.708   4.540   6.235 -0.0786 -0.6747 -0.0512
  145DOPC   C2417220   1.540   4.492   6.103 -0.3641  0.1344  0.1488
  145DOPC   H4R17221   1.486   4.590   6.103  1.3856  1.1466 -0.9724
  145DOPC   H4S17222   1.456   4.420   6.107 -0.8397  0.5865 -1.1972
  145DOPC   C2517223   1.619   4.474   5.972 -0.0342 -0.3877  0.8399
  145DOPC   H5R17224   1.684   4.384   5.983  0.2653 -0.0556  1.9063
  145DOPC   H5S17225   1.683   4.564   5.971 -0.4005 -0.0484  3.0894
  145DOPC   C2617226   1.544   4.463   5.846  0.7519 -0.0913  0.6998
  145DOPC   H6R17227   1.470   4.381   5.860  0.6659 -0.1187  0.1071
  145DOPC   H6S17228   1.613   4.442   5.762  1.0133  0.3577  0.7999
  145DOPC   C2717229   1.476   4.596   5.806 -0.1943  0.1722 -0.5696
  145DOPC   H7R17230   1.552   4.676   5.803  1.3509 -0.9693  2.8788
  145DOPC   H7S17231   1.398   4.633   5.877 -0.7534  2.4098 -2.2466
  145DOPC   C2817232   1.406   4.602   5.670 -0.5876  0.2556  0.3711
  145DOPC   H8R17233   1.356   4.701   5.664  1.4208  1.4294  2.0236
  145DOPC   H8S17234   1.330   4.521   5.663  0.3906 -0.6214 -0.5078
  145DOPC   C2917235   1.498   4.604   5.554  0.0517 -1.0964  0.6847
  145DOPC   H9R17236   1.539   4.704   5.532 -4.0710  0.7242  0.1271
  145DOPC  C21017237   1.524   4.502   5.469 -0.7191 -0.6163 -0.4130
  145DOPC  H10R17238   1.584   4.519   5.379 -2.4991  0.2119 -1.5108
  145DOPC  C21117239   1.484   4.361   5.498  0.3943  0.0905 -0.0286
  145DOPC  H11R17240   1.469   4.338   5.606 -0.8516  0.1375 -0.1802
  145DOPC  H11S17241   1.564   4.290   5.468 -0.3477 -1.1551  0.8330
  145DOPC  C21217242   1.359   4.308   5.427 -0.5299 -0.2593 -0.4627
  145DOPC  H12R17243   1.378   4.328   5.320 -0.2833  0.9617 -0.2007
  145DOPC  H12S17244   1.273   4.365   5.469  0.2787  0.5921  0.0834
  145DOPC  C21317245   1.333   4.157   5.450 -0.1720 -0.1956  0.4505
  145DOPC  H13R17246   1.433   4.109   5.441 -0.0062  0.5772 -2.9441
  145DOPC  H13S17247   1.277   4.109   5.367 -2.0811  3.6065 -0.6840
  145DOPC  C21417248   1.259   4.117   5.579  0.6606 -0.1187  0.1579
  145DOPC  H14R17249   1.162   4.172   5.581  2.2246  3.0035 -1.6043
  145DOPC  H14S17250   1.319   4.155   5.664  1.2212  2.2739 -1.1982
  145DOPC  C21517251   1.236   3.967   5.583 -0.2325  0.4572  0.4674
  145DOPC  H15R17252   1.326   3.908   5.556 -1.1322 -0.7878  0.1178
  145DOPC  H15S17253   1.161   3.954   5.502  0.3010  0.0502  0.0344
  145DOPC  C21617254   1.174   3.907   5.718  0.3018 -0.3707  0.0113
  145DOPC  H16R17255   1.065   3.922   5.729 -0.2487 -3.4624 -0.2215
  145DOPC  H16S17256   1.233   3.945   5.805 -1.1561 -1.2829  1.4551
  145DOPC  C21717257   1.179   3.758   5.715  0.1267  0.7043 -0.1846
  145DOPC  H17R17258   1.157   3.734   5.821  1.5451 -1.3296 -0.3006
  145DOPC  H17S17259   1.276   3.707   5.698 -1.4043 -2.5573  0.1534
  145DOPC  C21817260   1.071   3.694   5.627  0.6279  0.9247 -0.3068
  145DOPC  H18R17261   0.972   3.744   5.630  0.4959  0.7783 -1.6461
  145DOPC  H18S17262   1.062   3.594   5.674 -3.3868  1.2978  0.1021
  145DOPC  H18T17263   1.105   3.688   5.521  1.4902  1.3201 -0.0642
  145DOPC   C3317264   2.095   4.368   6.323  0.0535 -0.0048  0.4338
  145DOPC   H3X17265   2.007   4.299   6.324 -0.3808  0.4907  3.2415
  145DOPC   H3Y17266   2.168   4.326   6.250 -1.4026 -0.9391 -0.5427
  145DOPC   C3417267   2.051   4.502   6.263 -1.3899  0.6447 -0.6840
  145DOPC   H4X17268   2.104   4.594   6.297 -1.3534  0.6908 -0.8598
  145DOPC   H4Y17269   1.945   4.514   6.294 -1.0648  1.6232  0.1211
  145DOPC   C3517270   2.076   4.505   6.117 -0.3960  0.3912  0.3276
  145DOPC   H5X17271   2.022   4.422   6.067 -1.0715 -0.4050  2.2779
  145DOPC   H5Y17272   2.184   4.487   6.098 -0.3221  0.5866  0.5551
  145DOPC   C3617273   2.016   4.628   6.051  0.0015 -0.5541  0.1835
  145DOPC   H6X17274   1.906   4.622   6.035 -0.5423 -0.5814  3.2408
  145DOPC   H6Y17275   2.046   4.713   6.116 -1.0446  0.3942 -0.5310
  145DOPC   C3717276   2.087   4.653   5.925 -0.3468 -0.5248  0.2258
  145DOPC   H7X17277   2.192   4.685   5.944 -0.6147  1.0102 -0.6777
  145DOPC   H7Y17278   2.091   4.551   5.882 -1.1565 -1.5841  2.4794
  145DOPC   C3817279   2.009   4.745   5.829  0.2229 -0.1609 -0.3524
  145DOPC   H8X17280   1.976   4.842   5.871 -0.5493 -0.1947 -0.8544
  145DOPC   H8Y17281   1.916   4.689   5.806 -1.2384  1.7669  0.5454
  145DOPC   C3917282   2.084   4.787   5.705 -0.3219  0.6246  0.1051
  145DOPC   H9X17283   2.194   4.787   5.712 -0.3686 -0.7747  1.1431
  145DOPC  C31017284   2.023   4.824   5.588 -0.1357  0.1821 -0.4455
  145DOPC  H10X17285   2.093   4.839   5.505 -1.3839 -0.3437 -1.6228
  145DOPC  C31117286   1.876   4.826   5.561  0.7144 -0.3196  0.2699
  145DOPC  H11X17287   1.845   4.932   5.547  0.3001 -0.6588 -1.6370
  145DOPC  H11Y17288   1.816   4.781   5.643 -0.1210 -0.9696 -0.6589
  145DOPC  C31217289   1.830   4.744   5.447 -0.5012 -0.2228  0.3055
  145DOPC  H12X17290   1.719   4.745   5.447 -0.5454 -1.2946  1.5531
  145DOPC  H12Y17291   1.856   4.636   5.461  1.1771  0.0106 -0.6853
  145DOPC  C31317292   1.892   4.785   5.316 -1.0023 -0.0824 -0.3435
  145DOPC  H13X17293   1.884   4.895   5.328  2.1557  0.1247  0.7898
  145DOPC  H13Y17294   2.001   4.761   5.318 -0.3446  2.5320  1.9896
  145DOPC  C31417295   1.826   4.719   5.191  0.1481  0.0234 -0.6182
  145DOPC  H14X17296   1.717   4.732   5.211  0.3899 -1.4264  2.1254
  145DOPC  H14Y17297   1.859   4.771   5.099  1.1316  0.4572 -0.0337
  145DOPC  C31517298   1.862   4.569   5.182  0.3774 -0.1000  0.4809
  145DOPC  H15X17299   1.782   4.513   5.129 -0.2290  0.2205  1.0507
  145DOPC  H15Y17300   1.857   4.525   5.284 -0.1752 -0.9398  0.1041
  145DOPC  C31617301   2.001   4.549   5.120 -0.1297  0.3562  0.4235
  145DOPC  H16X17302   2.002   4.562   5.010  2.0476  2.3287  0.5829
  145DOPC  H16Y17303   2.063   4.636   5.151  0.3102 -0.0462  0.7076
  145DOPC  C31717304   2.075   4.425   5.164 -0.9660  0.2620  0.2583
  145DOPC  H17X17305   2.086   4.424   5.275 -1.0713 -0.6365  0.2697
  145DOPC  H17Y17306   2.015   4.336   5.135  2.4904 -1.4167 -2.4879
  145DOPC  C31817307   2.215   4.401   5.105 -0.3734 -0.4379  0.1947
  145DOPC  H18X17308   2.287   4.482   5.129 -2.5872  0.9481  2.7987
  145DOPC  H18Y17309   2.265   4.305   5.127 -1.4171 -1.2027 -0.6571
  145DOPC  H18Z17310   2.211   4.406   4.994  1.8333  2.1203  0.1228
  146DOPC     N17311   5.620   1.948   6.693 -0.9562  0.8024 -0.0825
  146DOPC   C1217312   5.757   1.907   6.740 -0.1895  0.0100  0.1796
  146DOPC  H12A17313   5.806   1.985   6.797 -0.6768  0.2774  0.2349
  146DOPC  H12B17314   5.818   1.898   6.652 -1.2371 -1.3381 -0.4381
  146DOPC   C1317315   5.559   2.002   6.819  0.2869  0.4939  0.0112
  146DOPC  H13A17316   5.458   2.032   6.799  0.4794  0.7157 -0.6740
  146DOPC  H13B17317   5.555   1.928   6.898 -2.6462  0.2269 -0.2835
  146DOPC  H13C17318   5.614   2.089   6.851  1.7344 -0.6888  0.9003
  146DOPC   C1417319   5.542   1.835   6.633 -0.2889  0.0361  0.0128
  146DOPC  H14A17320   5.536   1.760   6.710  2.0363  2.0318  2.3185
  146DOPC  H14B17321   5.442   1.870   6.614 -0.5297 -0.5981  0.1039
  146DOPC  H14C17322   5.588   1.797   6.543 -0.7467  2.1332 -1.1766
  146DOPC   C1517323   5.631   2.059   6.588  0.4630  0.2121 -0.2702
  146DOPC  H15A17324   5.536   2.109   6.576  0.0740 -0.5319 -0.3469
  146DOPC  H15B17325   5.665   2.018   6.494  1.9067  0.7622 -0.0094
  146DOPC  H15C17326   5.708   2.129   6.615 -1.2130  1.1677  2.4438
  146DOPC   C1117327   5.769   1.780   6.832 -0.1976  0.0193 -0.5128
  146DOPC  H11A17328   5.709   1.703   6.779 -1.4221  1.3127 -1.0891
  146DOPC  H11B17329   5.873   1.744   6.841 -0.3611 -0.2797  0.1679
  146DOPC     P17330   5.603   1.726   7.043  0.2212 -0.1040  0.2936
  146DOPC   O1317331   5.541   1.820   7.138  0.4131 -0.5217 -0.4067
  146DOPC   O1417332   5.659   1.606   7.106 -0.4885  0.2015 -0.1362
  146DOPC   O1217333   5.721   1.805   6.965 -0.0939 -0.5326  0.1464
  146DOPC   O1117334   5.503   1.689   6.933 -0.5603 -0.5169  0.1856
  146DOPC    C117335   5.394   1.607   6.966 -0.2231 -0.1788  0.0188
  146DOPC    HA17336   5.346   1.637   7.062  3.0159 -1.2122  2.1297
  146DOPC    HB17337   5.421   1.501   6.988  0.4760  0.0680  0.3704
  146DOPC    C217338   5.285   1.612   6.849  1.6591  0.1706 -0.1024
  146DOPC    HS17339   5.214   1.530   6.872  0.5466  1.3790  0.9222
  146DOPC   O2117340   5.352   1.598   6.719  0.6981 -0.3074  0.0651
  146DOPC   C2117341   5.379   1.474   6.691 -0.1022  0.0355  0.0660
  146DOPC   O2217342   5.345   1.377   6.757 -0.1502 -0.7196 -0.4832
  146DOPC   C2217343   5.461   1.458   6.560  0.7832  0.2946  0.1344
  146DOPC   H2R17344   5.458   1.347   6.549  2.0904  0.3086 -0.5846
  146DOPC   H2S17345   5.565   1.491   6.578  1.3155 -1.4132  0.3416
  146DOPC    C317346   5.203   1.748   6.868  0.3118  0.3970  0.4414
  146DOPC    HX17347   5.283   1.824   6.865 -0.2031  0.9780  0.9701
  146DOPC    HY17348   5.143   1.752   6.962 -0.9674  1.3460 -0.3799
  146DOPC   O3117349   5.106   1.775   6.763 -0.5388 -0.0123 -0.4484
  146DOPC   C3117350   5.132   1.867   6.673 -0.6817 -0.2336  0.6868
  146DOPC   O3217351   5.230   1.943   6.669  0.1532 -0.4833  0.0196
  146DOPC   C3217352   5.016   1.859   6.575 -0.5658 -0.3940 -0.3624
  146DOPC   H2X17353   4.919   1.860   6.630 -1.1312 -0.0567 -1.3275
  146DOPC   H2Y17354   5.026   1.955   6.519 -2.3194 -0.0282 -0.1110
  146DOPC   C2317355   5.395   1.525   6.436  0.6619 -0.3696  0.3132
  146DOPC   H3R17356   5.459   1.505   6.347 -0.8729  0.0498 -0.9355
  146DOPC   H3S17357   5.377   1.634   6.442 -0.1418 -0.3206 -1.9616
  146DOPC   C2417358   5.254   1.458   6.402  0.6734  0.0962  0.8167
  146DOPC   H4R17359   5.189   1.527   6.344  0.2685 -2.6393 -2.2837
  146DOPC   H4S17360   5.199   1.456   6.499  0.0210  0.9898  0.4821
  146DOPC   C2517361   5.284   1.322   6.332 -0.0846  0.4031  0.3621
  146DOPC   H5R17362   5.200   1.255   6.363 -0.8530  0.6048 -1.2073
  146DOPC   H5S17363   5.370   1.283   6.390 -0.6696  1.6538  2.2037
  146DOPC   C2617364   5.285   1.332   6.182 -0.2141 -0.3656 -0.7094
  146DOPC   H6R17365   5.375   1.384   6.142  1.8938 -0.7440  3.0284
  146DOPC   H6S17366   5.193   1.383   6.148  0.8392  3.0228  1.0609
  146DOPC   C2717367   5.276   1.192   6.113  0.7291 -0.0634  0.8013
  146DOPC   H7R17368   5.178   1.149   6.142  0.2552 -0.9723 -1.8671
  146DOPC   H7S17369   5.353   1.131   6.166 -1.4972 -3.5020  0.3829
  146DOPC   C2817370   5.297   1.206   5.965  0.6399 -0.4048  0.7423
  146DOPC   H8R17371   5.382   1.266   5.925 -0.7032  1.3543  0.3843
  146DOPC   H8S17372   5.209   1.267   5.935  1.5165  0.7628  0.4331
  146DOPC   C2917373   5.288   1.065   5.902 -0.3531 -0.4374 -0.7925
  146DOPC   H9R17374   5.296   0.978   5.968 -3.2913 -0.0684  0.1699
  146DOPC  C21017375   5.270   1.055   5.770 -0.0232 -0.1560 -0.1105
  146DOPC  H10R17376   5.268   0.953   5.732 -2.9157  0.2399 -1.2725
  146DOPC  C21117377   5.248   1.171   5.668  0.0193  0.1313 -0.2443
  146DOPC  H11R17378   5.322   1.158   5.586  0.7687 -0.3547  0.4880
  146DOPC  H11S17379   5.283   1.268   5.710 -1.2235 -0.0588  1.3408
  146DOPC  C21217380   5.107   1.193   5.619 -0.0665  0.6741 -0.0992
  146DOPC  H12R17381   5.047   1.200   5.712  0.8473 -0.4109  0.6064
  146DOPC  H12S17382   5.069   1.103   5.566  3.3200 -0.1030 -1.4998
  146DOPC  C21317383   5.084   1.313   5.534 -0.0390 -0.7946  0.7261
  146DOPC  H13R17384   5.172   1.345   5.474 -0.3493 -0.5947  0.3730
  146DOPC  H13S17385   5.056   1.398   5.599 -1.5037 -0.3094 -0.4687
  146DOPC  C21417386   4.968   1.284   5.433  0.0473  0.0871  0.2911
  146DOPC  H14R17387   4.886   1.230   5.485 -1.9761  1.8238 -0.9500
  146DOPC  H14S17388   4.996   1.211   5.355  0.5263 -0.2441  0.7620
  146DOPC  C21517389   4.923   1.402   5.351 -0.1833 -0.1592 -0.1874
  146DOPC  H15R17390   5.011   1.438   5.294 -0.1294  3.4729  1.8656
  146DOPC  H15S17391   4.881   1.478   5.421 -0.8781 -0.8617  0.1735
  146DOPC  C21617392   4.815   1.361   5.252  0.0393  0.1082  0.2526
  146DOPC  H16R17393   4.725   1.323   5.305  0.6583  0.3700  1.5338
  146DOPC  H16S17394   4.837   1.273   5.188 -3.1168  0.7991 -2.0536
  146DOPC  C21717395   4.769   1.472   5.156 -0.4504 -0.4760 -0.3438
  146DOPC  H17R17396   4.855   1.517   5.103  0.1838 -0.4321  0.6993
  146DOPC  H17S17397   4.726   1.554   5.218 -0.1609 -0.9150  0.4566
  146DOPC  C21817398   4.665   1.428   5.055 -0.0260  0.7193  0.0121
  146DOPC  H18R17399   4.579   1.383   5.110  1.3666  0.4961  2.1003
  146DOPC  H18S17400   4.709   1.354   4.986 -0.4062  2.1817 -1.8837
  146DOPC  H18T17401   4.633   1.520   5.002 -0.1664  0.7458  0.1384
  146DOPC   C3317402   5.018   1.743   6.479 -0.0076 -0.0700 -0.0919
  146DOPC   H3X17403   4.988   1.648   6.529 -3.0763  0.2393 -1.1401
  146DOPC   H3Y17404   5.123   1.718   6.451  0.2366 -0.9828  1.4966
  146DOPC   C3417405   4.920   1.766   6.364 -0.5758 -0.1758  0.3947
  146DOPC   H4X17406   4.822   1.798   6.405  0.9791  2.6143  2.2856
  146DOPC   H4Y17407   4.899   1.669   6.314  1.3201 -0.6944  0.5175
  146DOPC   C3517408   4.975   1.862   6.261  0.3647 -0.7659  0.1726
  146DOPC   H5X17409   5.073   1.819   6.231 -0.2326 -1.0591 -1.4317
  146DOPC   H5Y17410   4.995   1.963   6.304  0.7504 -0.7034 -0.1543
  146DOPC   C3617411   4.890   1.885   6.133 -0.2097 -0.5908 -1.0512
  146DOPC   H6X17412   4.890   1.792   6.074 -1.9734  0.4953 -2.8917
  146DOPC   H6Y17413   4.785   1.893   6.168 -0.3983  0.5857 -1.8458
  146DOPC   C3717414   4.937   1.997   6.042  0.4208  0.6709 -0.2805
  146DOPC   H7X17415   4.929   2.097   6.089  2.0501  0.4969  0.4505
  146DOPC   H7Y17416   5.047   1.988   6.026  0.3438 -0.1549 -0.3874
  146DOPC   C3817417   4.869   1.987   5.908  0.3683  0.7645  0.5268
  146DOPC   H8X17418   4.872   1.885   5.865  1.7232  0.7346  0.6597
  146DOPC   H8Y17419   4.925   2.057   5.843  0.3325  0.2135 -0.1119
  146DOPC   C3917420   4.726   2.030   5.915  0.2139 -0.4225  0.6124
  146DOPC   H9X17421   4.668   1.985   5.996  0.7006  1.2977  1.9890
  146DOPC  C31017422   4.673   2.111   5.815 -0.0606 -0.4958 -0.4097
  146DOPC  H10X17423   4.565   2.133   5.822 -0.0519 -0.3292 -0.7548
  146DOPC  C31117424   4.745   2.174   5.707  0.1864  0.0337  0.2331
  146DOPC  H11X17425   4.847   2.206   5.738 -0.5713  1.2095  1.6347
  146DOPC  H11Y17426   4.688   2.267   5.685 -0.0651 -0.6221 -2.2580
  146DOPC  C31217427   4.755   2.083   5.581 -0.2216  0.1496 -0.1227
  146DOPC  H12X17428   4.793   1.981   5.603  1.1267  0.3707 -1.2689
  146DOPC  H12Y17429   4.821   2.133   5.507  2.1634 -0.6457  1.3503
  146DOPC  C31317430   4.628   2.065   5.498  0.1567 -0.1426  0.4407
  146DOPC  H13X17431   4.548   2.022   5.561 -1.5353  0.3676 -1.2690
  146DOPC  H13Y17432   4.584   2.158   5.456  2.2952  1.3734  1.3765
  146DOPC  C31417433   4.662   1.972   5.377 -0.1207 -0.2572  0.0220
  146DOPC  H14X17434   4.724   2.019   5.299 -1.5568 -2.0846 -2.3857
  146DOPC  H14Y17435   4.722   1.884   5.408  0.0064 -1.1143 -2.4328
  146DOPC  C31517436   4.542   1.930   5.300 -0.3280  0.0247  0.3834
  146DOPC  H15X17437   4.479   2.020   5.286  0.8045  1.1644  2.2436
  146DOPC  H15Y17438   4.488   1.867   5.374 -1.9908  2.0118  0.9294
  146DOPC  C31617439   4.589   1.871   5.164  0.0432 -0.0587 -0.1574
  146DOPC  H16X17440   4.622   1.962   5.108 -1.5445  0.6684  0.0302
  146DOPC  H16Y17441   4.682   1.812   5.180  0.0134  0.1364  0.7463
  146DOPC  C31717442   4.482   1.793   5.083 -0.7494  0.0476 -0.6816
  146DOPC  H17X17443   4.408   1.863   5.040  0.1005  0.3503 -1.6922
  146DOPC  H17Y17444   4.529   1.749   4.992 -1.5965 -1.0436 -0.6280
  146DOPC  C31817445   4.408   1.679   5.152  0.5297  0.5120 -0.1097
  146DOPC  H18X17446   4.338   1.723   5.226  0.0837  0.3113 -0.4103
  146DOPC  H18Y17447   4.359   1.617   5.074  0.4749 -0.9430  1.0195
  146DOPC  H18Z17448   4.480   1.609   5.199  1.8709  1.6602 -0.3729
  147DOPC     N17449   1.110   2.487   7.217 -0.0608  0.0718 -0.1368
  147DOPC   C1217450   1.194   2.418   7.105 -0.3027  0.5968  0.3751
  147DOPC  H12A17451   1.198   2.312   7.123  2.4707  0.6955  0.8159
  147DOPC  H12B17452   1.295   2.451   7.124 -0.1138  0.6309 -0.6461
  147DOPC   C1317453   1.106   2.637   7.206 -0.9096  0.3045  0.0422
  147DOPC  H13A17454   1.194   2.684   7.247  0.0541 -1.8177  0.5167
  147DOPC  H13B17455   1.098   2.657   7.100 -1.5554 -0.4518 -0.0595
  147DOPC  H13C17456   1.013   2.666   7.254 -1.3234 -0.5988 -0.1922
  147DOPC   C1417457   1.161   2.455   7.354  0.2157 -0.0771 -1.0167
  147DOPC  H14A17458   1.164   2.348   7.371 -0.5874  0.2186  1.4014
  147DOPC  H14B17459   1.262   2.491   7.366  0.3500 -0.5117 -0.8098
  147DOPC  H14C17460   1.104   2.491   7.438  2.0212  0.1426  0.1637
  147DOPC   C1517461   0.965   2.435   7.210 -0.2417 -0.2388  0.5865
  147DOPC  H15A17462   0.964   2.331   7.236 -0.3224 -1.0095 -2.1670
  147DOPC  H15B17463   0.937   2.441   7.106  2.5651 -0.6487 -0.2864
  147DOPC  H15C17464   0.901   2.495   7.273  1.0273  1.9413 -0.0601
  147DOPC   C1117465   1.154   2.458   6.964  0.3738 -0.0179  0.1010
  147DOPC  H11A17466   1.198   2.385   6.892  1.5945  1.3958 -0.6394
  147DOPC  H11B17467   1.044   2.458   6.948  0.2752  2.4916  0.4188
  147DOPC     P17468   1.347   2.623   6.887  0.4306 -0.0669 -0.1847
  147DOPC   O1317469   1.428   2.544   6.983  0.2322  0.2306  0.3675
  147DOPC   O1417470   1.369   2.768   6.893 -0.0745 -0.0215  0.0404
  147DOPC   O1217471   1.189   2.596   6.929 -0.7451  0.1587  0.4490
  147DOPC   O1117472   1.354   2.560   6.740 -0.8854  0.0340  0.2431
  147DOPC    C117473   1.297   2.628   6.624 -0.0910 -0.1529  0.1921
  147DOPC    HA17474   1.374   2.698   6.583 -1.7936  0.9884 -1.1804
  147DOPC    HB17475   1.200   2.678   6.643 -0.3293 -1.6123  3.5499
  147DOPC    C217476   1.258   2.525   6.517  0.2102 -0.9713 -0.3538
  147DOPC    HS17477   1.172   2.476   6.567 -0.0873 -0.7672 -0.6661
  147DOPC   O2117478   1.371   2.445   6.487 -0.5513 -1.1967  0.4275
  147DOPC   C2117479   1.334   2.324   6.460  0.1863 -0.5456  0.3994
  147DOPC   O2217480   1.221   2.282   6.467 -0.2973 -0.3220 -0.1927
  147DOPC   C2217481   1.459   2.252   6.402  0.4830  0.4125 -0.9041
  147DOPC   H2R17482   1.473   2.169   6.475  1.6873  3.3999  2.6173
  147DOPC   H2S17483   1.552   2.311   6.415  1.3901 -1.4469  2.0703
  147DOPC    C317484   1.199   2.588   6.382 -0.5013  0.6279 -0.0031
  147DOPC    HX17485   1.161   2.516   6.307 -0.9236 -0.4825  1.2400
  147DOPC    HY17486   1.291   2.633   6.339 -0.4785  0.8609  0.2806
  147DOPC   O3117487   1.104   2.691   6.413 -0.1889 -0.0024  0.1746
  147DOPC   C3117488   0.973   2.649   6.438 -1.2293  0.5015 -0.0704
  147DOPC   O3217489   0.944   2.530   6.435  0.1625  0.0176 -0.1244
  147DOPC   C3217490   0.880   2.766   6.466  0.0622 -0.4330 -0.2452
  147DOPC   H2X17491   0.861   2.768   6.575  2.2188 -0.5549  0.1845
  147DOPC   H2Y17492   0.921   2.868   6.452 -0.9093  0.0698  0.5016
  147DOPC   C2317493   1.435   2.190   6.260  0.5067  0.0740 -0.4646
  147DOPC   H3R17494   1.393   2.087   6.254  3.6636 -1.2534 -2.3823
  147DOPC   H3S17495   1.541   2.173   6.231  0.6719  0.5048 -0.1183
  147DOPC   C2417496   1.360   2.280   6.160  0.6068  0.4198  0.3671
  147DOPC   H4R17497   1.400   2.382   6.174  2.4587 -0.3903  1.3331
  147DOPC   H4S17498   1.252   2.292   6.182 -0.0555 -2.5498 -0.7426
  147DOPC   C2517499   1.374   2.239   6.012 -0.4359 -0.3504  0.3419
  147DOPC   H5R17500   1.350   2.134   5.988 -0.0873 -0.6101  1.0945
  147DOPC   H5S17501   1.482   2.247   5.986 -0.3566  0.6716  0.9049
  147DOPC   C2617502   1.277   2.329   5.928 -0.1700  0.3299  0.3026
  147DOPC   H6R17503   1.292   2.436   5.950 -0.0448  0.4549 -0.3629
  147DOPC   H6S17504   1.180   2.287   5.962 -0.0693 -1.4474 -1.4001
  147DOPC   C2717505   1.290   2.299   5.776  0.2016  0.3823 -0.3525
  147DOPC   H7R17506   1.278   2.189   5.776 -0.6280  0.3834  2.6034
  147DOPC   H7S17507   1.388   2.328   5.734  0.4463  0.0103 -0.0426
  147DOPC   C2817508   1.179   2.354   5.683 -0.0687  0.3039  0.3079
  147DOPC   H8R17509   1.088   2.349   5.747 -0.8592 -1.7473 -0.9070
  147DOPC   H8S17510   1.173   2.295   5.589  2.2960  0.8318 -0.2178
  147DOPC   C2917511   1.212   2.499   5.658 -0.0802 -0.1975 -0.4940
  147DOPC   H9R17512   1.223   2.555   5.751  1.8896 -0.1167 -0.7439
  147DOPC  C21017513   1.232   2.555   5.538  0.5802  0.3408 -0.0528
  147DOPC  H10R17514   1.252   2.663   5.535 -1.8240  0.8763  1.0677
  147DOPC  C21117515   1.223   2.483   5.408  0.0962  0.0156 -0.0212
  147DOPC  H11R17516   1.140   2.537   5.356 -0.4678 -2.6229 -2.0677
  147DOPC  H11S17517   1.188   2.378   5.416  1.5136 -0.4735  0.0625
  147DOPC  C21217518   1.349   2.487   5.327 -0.2477 -0.5533  0.2013
  147DOPC  H12R17519   1.391   2.589   5.315 -0.8071 -0.4973 -1.5176
  147DOPC  H12S17520   1.322   2.467   5.221 -1.5615  1.2407  0.1723
  147DOPC  C21317521   1.459   2.382   5.359  0.2293 -0.0816 -0.5838
  147DOPC  H13R17522   1.424   2.277   5.356 -2.9958  0.6418  2.8604
  147DOPC  H13S17523   1.487   2.384   5.467 -0.7895 -2.0318 -0.2328
  147DOPC  C21417524   1.576   2.401   5.268 -0.4190  0.3060 -0.4961
  147DOPC  H14R17525   1.665   2.343   5.300 -1.3436 -1.2111 -0.6062
  147DOPC  H14S17526   1.600   2.508   5.287 -0.8989  0.6045 -1.5143
  147DOPC  C21517527   1.555   2.370   5.119  0.1452 -0.3698  0.0785
  147DOPC  H15R17528   1.472   2.430   5.076  0.4020 -1.6829 -2.4409
  147DOPC  H15S17529   1.526   2.263   5.113 -0.4069 -0.2933  1.1775
  147DOPC  C21617530   1.678   2.391   5.032  0.3544  0.2596  0.2601
  147DOPC  H16R17531   1.649   2.363   4.929  1.3120  0.4828 -0.0835
  147DOPC  H16S17532   1.759   2.326   5.071  1.8175  0.5387 -2.1589
  147DOPC  C21717533   1.735   2.536   5.028  0.2947 -0.1209 -0.2935
  147DOPC  H17R17534   1.784   2.557   5.126  0.7278  0.3329 -0.6026
  147DOPC  H17S17535   1.647   2.603   5.024 -1.9383 -2.9041 -2.6728
  147DOPC  C21817536   1.841   2.567   4.917  1.1123 -0.4090  0.6748
  147DOPC  H18R17537   1.913   2.486   4.895  0.1521 -0.9756 -0.5637
  147DOPC  H18S17538   1.892   2.664   4.936  0.7087  0.2983 -1.5078
  147DOPC  H18T17539   1.780   2.577   4.825 -0.3196  1.8992  1.7722
  147DOPC   C3317540   0.750   2.751   6.388  0.2480 -0.3491  0.2253
  147DOPC   H3X17541   0.689   2.668   6.430 -0.3914  0.2730  0.5570
  147DOPC   H3Y17542   0.768   2.741   6.278  0.2703 -0.6609  0.2574
  147DOPC   C3417543   0.657   2.880   6.401 -0.7856  0.6647 -0.2549
  147DOPC   H4X17544   0.680   2.943   6.312  2.0625  0.2977  0.1160
  147DOPC   H4Y17545   0.668   2.946   6.489 -2.2775  2.5446 -1.4022
  147DOPC   C3517546   0.507   2.849   6.405  0.0043 -0.5777  0.0483
  147DOPC   H5X17547   0.453   2.940   6.438  1.7140  0.3482  0.4177
  147DOPC   H5Y17548   0.486   2.779   6.489  0.2200 -1.9350 -0.9856
  147DOPC   C3617549   0.454   2.788   6.275  0.0505  0.4846  0.4848
  147DOPC   H6X17550   0.491   2.690   6.240 -0.9299 -0.3251  1.6576
  147DOPC   H6Y17551   0.353   2.768   6.317 -0.5599  2.0610 -0.1154
  147DOPC   C3717552   0.440   2.881   6.150  1.0201  0.6387 -0.2270
  147DOPC   H7X17553   0.404   2.980   6.186  0.1301  0.3944 -0.4301
  147DOPC   H7Y17554   0.531   2.882   6.086 -1.0091 -1.5621 -3.4651
  147DOPC   C3817555   0.331   2.831   6.054  0.0323 -0.4885 -0.3626
  147DOPC   H8X17556   0.345   2.897   5.966 -1.2244 -0.4861 -0.5830
  147DOPC   H8Y17557   0.230   2.861   6.091 -0.5535 -3.3248  0.5675
  147DOPC   C3917558   0.333   2.679   6.022  0.3815 -0.2046 -0.7076
  147DOPC   H9X17559   0.314   2.613   6.109 -2.2224  0.1527 -0.9212
  147DOPC  C31017560   0.367   2.630   5.899  0.3046 -0.3674  0.1694
  147DOPC  H10X17561   0.354   2.523   5.877 -0.4004 -0.1499 -0.5158
  147DOPC  C31117562   0.393   2.711   5.773  0.3364 -0.0670 -0.3114
  147DOPC  H11X17563   0.503   2.715   5.759  0.2340 -0.8573 -1.5102
  147DOPC  H11Y17564   0.338   2.806   5.786 -1.7942 -1.0978 -1.2931
  147DOPC  C31217565   0.326   2.656   5.642 -0.2578  0.6334  0.2492
  147DOPC  H12X17566   0.220   2.687   5.652 -0.2560 -0.0197  3.2162
  147DOPC  H12Y17567   0.326   2.545   5.648 -1.7841  0.5135 -1.1864
  147DOPC  C31317568   0.393   2.716   5.528  0.3955 -0.2567  0.4035
  147DOPC  H13X17569   0.425   2.821   5.541  0.0251 -0.3508  2.2827
  147DOPC  H13Y17570   0.493   2.668   5.517  1.2043  1.5519 -0.5494
  147DOPC  C31417571   0.334   2.694   5.389  0.6086 -1.1097  0.4361
  147DOPC  H14X17572   0.397   2.650   5.309 -3.6745 -2.4846 -2.5394
  147DOPC  H14Y17573   0.244   2.631   5.404 -0.5303 -0.0724 -1.6612
  147DOPC  C31517574   0.301   2.832   5.332  0.1169 -0.0105  0.2895
  147DOPC  H15X17575   0.391   2.894   5.312  0.1556  0.2753  1.3052
  147DOPC  H15Y17576   0.234   2.883   5.404  0.1079 -2.6155  2.2732
  147DOPC  C31617577   0.228   2.826   5.197  0.2069 -0.6112 -0.3351
  147DOPC  H16X17578   0.127   2.785   5.220  0.2716 -1.4393 -1.4502
  147DOPC  H16Y17579   0.217   2.933   5.168 -1.0629 -0.5879  0.1368
  147DOPC  C31717580   0.287   2.740   5.085  0.6735  0.1169  0.2424
  147DOPC  H17X17581   0.395   2.755   5.065  0.5194  0.3850 -0.4191
  147DOPC  H17Y17582   0.277   2.634   5.115  1.9309  0.0162  0.3711
  147DOPC  C31817583   0.217   2.743   4.949 -0.4269 -0.8249  0.4444
  147DOPC  H18X17584   0.249   2.650   4.896  0.5113 -0.4540  0.3392
  147DOPC  H18Y17585   0.107   2.748   4.960 -0.5578  2.5594 -1.3150
  147DOPC  H18Z17586   0.243   2.839   4.899 -0.6173 -0.7211  0.5436
  148DOPC     N17587   0.576   4.187   7.076  0.0449  1.0802  0.2452
  148DOPC   C1217588   0.689   4.186   6.978  0.2262  0.0251  0.3336
  148DOPC  H12A17589   0.754   4.269   7.005 -0.9085  0.2948  2.5472
  148DOPC  H12B17590   0.646   4.209   6.882  1.6428  0.3605 -0.2344
  148DOPC   C1317591   0.638   4.156   7.206 -0.1140  0.0780 -0.4720
  148DOPC  H13A17592   0.574   4.101   7.274 -0.4935  0.7463 -0.2742
  148DOPC  H13B17593   0.732   4.106   7.192  1.0916  2.1272 -0.2275
  148DOPC  H13C17594   0.665   4.245   7.262  0.9071  0.2663 -1.2467
  148DOPC   C1417595   0.477   4.072   7.052  0.1351 -0.4211  0.0429
  148DOPC  H14A17596   0.406   4.091   6.973  0.6708 -1.9181 -0.8209
  148DOPC  H14B17597   0.533   3.989   7.015  3.6615  1.9927 -0.4877
  148DOPC  H14C17598   0.435   4.046   7.149  2.4265  0.5336  1.3659
  148DOPC   C1517599   0.506   4.317   7.084 -0.4704 -0.0624  0.1700
  148DOPC  H15A17600   0.568   4.394   7.129  0.4886 -0.3859 -0.5589
  148DOPC  H15B17601   0.414   4.301   7.138 -1.1190 -3.6234 -1.7076
  148DOPC  H15C17602   0.488   4.347   6.982  0.3285  1.1674  0.3685
  148DOPC   C1117603   0.758   4.052   6.969 -0.0460  0.2436  0.1832
  148DOPC  H11A17604   0.863   4.064   6.937  0.1770 -2.3109 -0.2620
  148DOPC  H11B17605   0.763   3.989   7.061  0.2594 -1.5402 -1.0036
  148DOPC     P17606   0.691   3.988   6.723 -0.5344  0.0540  0.0267
  148DOPC   O1317607   0.624   4.111   6.676  0.5223  0.3502 -0.0171
  148DOPC   O1417608   0.633   3.863   6.668  0.0550 -0.4712  0.9781
  148DOPC   O1217609   0.687   3.975   6.878 -0.0023  0.5904 -0.0901
  148DOPC   O1117610   0.845   4.014   6.689 -0.5475  0.3013  0.0467
  148DOPC    C117611   0.944   3.920   6.739  0.1136  0.1844 -0.2428
  148DOPC    HA17612   0.896   3.841   6.801 -2.5455  0.5106 -1.7221
  148DOPC    HB17613   1.011   3.982   6.802  0.4889 -0.9845  0.5384
  148DOPC    C217614   1.018   3.851   6.626  0.0937 -0.7364 -0.0229
  148DOPC    HS17615   1.086   3.925   6.579 -0.5273  0.7669  1.3470
  148DOPC   O2117616   0.929   3.797   6.531 -0.3288  0.8897 -0.5616
  148DOPC   C2117617   0.892   3.876   6.433  0.6800  0.8202  0.2867
  148DOPC   O2217618   0.930   3.990   6.412 -0.1145 -0.7185  0.3360
  148DOPC   C2217619   0.768   3.809   6.362 -0.3837 -0.2253  0.3196
  148DOPC   H2R17620   0.690   3.789   6.439 -1.3156 -1.4427 -0.8932
  148DOPC   H2S17621   0.786   3.707   6.320 -0.6907 -0.7598  1.4314
  148DOPC    C317622   1.113   3.738   6.684  0.2630 -0.7479 -0.9066
  148DOPC    HX17623   1.054   3.665   6.744 -1.0008  0.4561 -0.6377
  148DOPC    HY17624   1.179   3.796   6.752  0.4546  2.5374 -3.6358
  148DOPC   O3117625   1.190   3.676   6.581  0.0464 -0.5991  0.3862
  148DOPC   C3117626   1.233   3.550   6.605 -0.4019  0.4414 -0.9809
  148DOPC   O3217627   1.219   3.493   6.711  0.2393  0.1023 -0.2570
  148DOPC   C3217628   1.299   3.481   6.478  0.3103  0.0675  0.1310
  148DOPC   H2X17629   1.353   3.397   6.526  0.8604  0.7101  0.6592
  148DOPC   H2Y17630   1.216   3.452   6.410 -0.9850  1.0182  1.2311
  148DOPC   C2317631   0.700   3.899   6.258 -0.6206 -0.3211  0.4123
  148DOPC   H3R17632   0.766   3.960   6.192 -1.5398  0.9300  0.6149
  148DOPC   H3S17633   0.631   3.968   6.311  1.9313  1.5583  1.5148
  148DOPC   C2417634   0.613   3.814   6.154  0.0912 -0.2649  0.2702
  148DOPC   H4R17635   0.546   3.879   6.094 -2.3453 -1.3091  1.7237
  148DOPC   H4S17636   0.534   3.756   6.206 -0.0187 -0.9220 -0.6026
  148DOPC   C2517637   0.697   3.715   6.075  0.0368 -0.7008  0.2253
  148DOPC   H5R17638   0.767   3.654   6.136 -0.5468 -0.0535  1.5815
  148DOPC   H5S17639   0.758   3.775   6.004  1.8790 -0.2575  2.0836
  148DOPC   C2617640   0.613   3.619   5.988  0.3024  0.1720  0.1112
  148DOPC   H6R17641   0.547   3.687   5.930 -1.8122  0.3788  2.5231
  148DOPC   H6S17642   0.558   3.555   6.060  0.0008 -0.6891 -0.8643
  148DOPC   C2717643   0.708   3.528   5.908  0.2182  0.0506  0.6796
  148DOPC   H7R17644   0.690   3.419   5.923 -1.6197  0.3634  1.0476
  148DOPC   H7S17645   0.811   3.545   5.946  0.1952  1.8854 -0.0001
  148DOPC   C2817646   0.721   3.572   5.764  0.0380  0.3873  0.3690
  148DOPC   H8R17647   0.817   3.530   5.726 -0.3797 -1.3096  1.1136
  148DOPC   H8S17648   0.740   3.682   5.762  1.8081  0.1332  1.3321
  148DOPC   C2917649   0.609   3.535   5.670 -0.6197  0.1655 -0.0376
  148DOPC   H9R17650   0.507   3.521   5.710 -0.5494  0.3037  0.1889
  148DOPC  C21017651   0.618   3.521   5.535  0.8689 -0.2748 -0.0649
  148DOPC  H10R17652   0.525   3.504   5.479  2.3707  0.5662 -3.0601
  148DOPC  C21117653   0.732   3.544   5.441  0.9108  0.3841 -0.5156
  148DOPC  H11R17654   0.733   3.459   5.370 -2.8397  0.7038 -1.1306
  148DOPC  H11S17655   0.827   3.557   5.498  1.4028 -2.0125 -0.6757
  148DOPC  C21217656   0.709   3.668   5.346  0.5999  0.5007 -0.1596
  148DOPC  H12R17657   0.804   3.682   5.291  0.2613 -2.8014 -1.8266
  148DOPC  H12S17658   0.672   3.750   5.410  2.2889 -0.9430  2.8948
  148DOPC  C21317659   0.605   3.644   5.230  1.1008 -0.4186  0.6112
  148DOPC  H13R17660   0.512   3.601   5.271  0.3713  0.1856 -0.3840
  148DOPC  H13S17661   0.654   3.564   5.170 -1.5487 -0.2992 -1.9278
  148DOPC  C21417662   0.571   3.768   5.142  1.4318 -0.0027  0.0436
  148DOPC  H14R17663   0.660   3.811   5.092  2.0305  0.4291  1.4510
  148DOPC  H14S17664   0.531   3.840   5.216 -1.7146  0.1653 -1.6447
  148DOPC  C21517665   0.455   3.749   5.037 -0.7056 -0.3920 -0.2058
  148DOPC  H15R17666   0.369   3.734   5.105 -0.0633  0.0663  0.7324
  148DOPC  H15S17667   0.461   3.653   4.981  0.6146  0.4027 -1.5276
  148DOPC  C21617668   0.430   3.848   4.920  0.0572 -0.1144  0.4342
  148DOPC  H16R17669   0.523   3.858   4.859 -0.6484 -0.2163 -0.6899
  148DOPC  H16S17670   0.409   3.947   4.965 -0.7410  0.2302 -0.6396
  148DOPC  C21717671   0.310   3.815   4.834  0.2684 -0.3455  0.2019
  148DOPC  H17R17672   0.281   3.898   4.767 -0.4181 -0.4775  0.3258
  148DOPC  H17S17673   0.230   3.785   4.905 -0.1083 -2.2583 -0.9479
  148DOPC  C21817674   0.336   3.699   4.733  0.3577  0.5520 -0.3117
  148DOPC  H18R17675   0.244   3.686   4.673 -0.1211  1.9685  0.0754
  148DOPC  H18S17676   0.346   3.601   4.786  0.3229  0.6036 -0.2106
  148DOPC  H18T17677   0.416   3.733   4.664 -0.3222  3.0632  0.0698
  148DOPC   C3317678   1.408   3.570   6.421 -0.0268 -0.2022 -0.3057
  148DOPC   H3X17679   1.491   3.573   6.494  1.6078  0.5338 -2.1015
  148DOPC   H3Y17680   1.375   3.673   6.394 -0.5614 -0.7772 -1.9937
  148DOPC   C3417681   1.469   3.514   6.292  0.4667  0.0272  0.7101
  148DOPC   H4X17682   1.465   3.403   6.287 -1.2190  0.1087 -1.4736
  148DOPC   H4Y17683   1.572   3.551   6.277  0.0586  0.5798 -1.0392
  148DOPC   C3517684   1.396   3.550   6.165 -0.1755 -0.0597 -0.6993
  148DOPC   H5X17685   1.419   3.654   6.133 -1.9353  1.4467  2.4465
  148DOPC   H5Y17686   1.287   3.559   6.186  0.2357  3.9347  0.4876
  148DOPC   C3617687   1.418   3.445   6.048  0.3957 -0.1047 -0.1422
  148DOPC   H6X17688   1.522   3.434   6.011 -0.8312 -1.4789 -3.5118
  148DOPC   H6Y17689   1.393   3.341   6.078 -1.6387 -0.1222 -1.6938
  148DOPC   C3717690   1.326   3.474   5.924 -0.0161  0.7468 -0.3052
  148DOPC   H7X17691   1.223   3.486   5.963  1.0333  1.9034  2.2790
  148DOPC   H7Y17692   1.369   3.573   5.896  1.1938 -0.0216 -1.2691
  148DOPC   C3817693   1.344   3.379   5.809  0.7922  0.2917 -0.5415
  148DOPC   H8X17694   1.453   3.377   5.786  1.1707  0.2469  1.1096
  148DOPC   H8Y17695   1.296   3.421   5.718 -1.0959  0.0183  0.3005
  148DOPC   C3917696   1.284   3.241   5.835 -0.1911  0.2949  0.7910
  148DOPC   H9X17697   1.318   3.192   5.927  0.7719 -1.6814 -0.5330
  148DOPC  C31017698   1.174   3.190   5.769  0.6229 -0.2640  0.0493
  148DOPC  H10X17699   1.148   3.086   5.794 -0.8212 -1.0060 -3.8103
  148DOPC  C31117700   1.076   3.261   5.675  0.6852 -0.1516  0.5438
  148DOPC  H11X17701   1.073   3.372   5.687 -1.1292 -0.1911  0.8427
  148DOPC  H11Y17702   0.974   3.240   5.715  0.4429  0.5180  0.3055
  148DOPC  C31217703   1.088   3.218   5.531 -0.3434 -0.6167  0.0761
  148DOPC  H12X17704   1.062   3.112   5.507  0.8166 -0.5072 -1.9005
  148DOPC  H12Y17705   1.198   3.210   5.518  0.2784  3.4407  1.6125
  148DOPC  C31317706   1.018   3.309   5.427  0.1308  0.1193  0.3344
  148DOPC  H13X17707   0.915   3.335   5.459  0.9261  3.7063  0.3540
  148DOPC  H13Y17708   1.066   3.409   5.437 -1.1864  1.1098 -2.3099
  148DOPC  C31417709   1.022   3.248   5.285 -0.4193  0.2475  0.1362
  148DOPC  H14X17710   1.128   3.240   5.254 -0.4564 -2.0507  0.4226
  148DOPC  H14Y17711   0.978   3.146   5.289  1.6907 -0.7383 -0.1805
  148DOPC  C31517712   0.944   3.325   5.174 -0.1889 -0.3332  0.2407
  148DOPC  H15X17713   0.838   3.332   5.207 -0.0648  3.5879  0.2397
  148DOPC  H15Y17714   0.953   3.276   5.074 -0.0173 -2.1153  1.1026
  148DOPC  C31617715   0.989   3.471   5.147  0.3415  0.0859 -0.4435
  148DOPC  H16X17716   0.978   3.529   5.241 -2.0104 -3.3441  1.6045
  148DOPC  H16Y17717   1.100   3.465   5.134  0.5365  1.4567  0.4013
  148DOPC  C31717718   0.924   3.534   5.026 -0.2490  0.0075 -0.3404
  148DOPC  H17X17719   0.937   3.464   4.941 -0.4489 -0.8296  0.3002
  148DOPC  H17Y17720   0.819   3.548   5.058 -0.3453 -0.9581 -0.2116
  148DOPC  C31817721   0.978   3.676   4.993 -0.0849  0.0423  0.2129
  148DOPC  H18X17722   0.925   3.711   4.902 -2.6523  1.7520  2.1929
  148DOPC  H18Y17723   0.955   3.756   5.068 -0.0271  1.1765 -0.9459
  148DOPC  H18Z17724   1.089   3.676   4.985  0.1745 -2.1164  2.6016
  149DOPC     N17725   1.400   1.735   7.459  0.5257 -0.1595 -0.9697
  149DOPC   C1217726   1.253   1.776   7.440  0.8734 -0.7006  0.1834
  149DOPC  H12A17727   1.229   1.844   7.521 -0.3649  0.7573 -1.3248
  149DOPC  H12B17728   1.188   1.690   7.442  0.5983 -0.5758 -1.7108
  149DOPC   C1317729   1.420   1.675   7.590  0.1198 -0.2572  0.3876
  149DOPC  H13A17730   1.337   1.606   7.603 -1.2382  1.0194 -1.1019
  149DOPC  H13B17731   1.506   1.612   7.606 -1.0240 -2.2344 -0.8036
  149DOPC  H13C17732   1.418   1.740   7.676 -1.1440  1.0827 -0.6142
  149DOPC   C1417733   1.490   1.844   7.426  0.2791  0.3546  0.2232
  149DOPC  H14A17734   1.480   1.927   7.494  0.3154 -0.1923  0.9062
  149DOPC  H14B17735   1.595   1.821   7.428  1.0520  3.2725 -1.1485
  149DOPC  H14C17736   1.476   1.870   7.322  1.1610 -2.0548 -0.5640
  149DOPC   C1517737   1.430   1.621   7.362 -0.7784 -0.1311  0.7233
  149DOPC  H15A17738   1.403   1.652   7.262  2.1568 -1.6312 -0.6623
  149DOPC  H15B17739   1.369   1.534   7.381 -1.4148  0.5259  1.8052
  149DOPC  H15C17740   1.535   1.599   7.346 -1.3266 -1.6423 -1.2277
  149DOPC   C1117741   1.221   1.831   7.292  0.1008 -0.4703 -0.3046
  149DOPC  H11A17742   1.116   1.867   7.291  0.5550  1.5700  3.7897
  149DOPC  H11B17743   1.276   1.925   7.269 -0.5990  0.3082  1.0658
  149DOPC     P17744   1.137   1.654   7.118 -0.2911 -0.4847  0.0212
  149DOPC   O1317745   1.011   1.667   7.184  0.7144 -0.5626 -0.4250
  149DOPC   O1417746   1.179   1.515   7.098 -0.5227  0.3873 -0.2822
  149DOPC   O1217747   1.254   1.746   7.180  0.2033  0.3068 -0.8336
  149DOPC   O1117748   1.125   1.729   6.978 -0.0459  0.3082  0.1613
  149DOPC    C117749   1.242   1.734   6.893 -0.4188 -0.1129 -0.2889
  149DOPC    HA17750   1.251   1.638   6.837  0.6761 -0.2819  0.1473
  149DOPC    HB17751   1.334   1.740   6.956  0.4251  3.5644 -1.6133
  149DOPC    C217752   1.239   1.861   6.816  0.4602  0.0421  0.1417
  149DOPC    HS17753   1.208   1.937   6.890  0.1958 -0.4366  0.5282
  149DOPC   O2117754   1.138   1.841   6.723 -0.2001  0.0588  1.0418
  149DOPC   C2117755   1.097   1.939   6.657  0.5171  0.1905  0.6246
  149DOPC   O2217756   1.127   2.053   6.675  0.5792 -0.3554 -0.9361
  149DOPC   C2217757   0.997   1.880   6.548 -0.6228  0.1682 -0.3954
  149DOPC   H2R17758   0.893   1.906   6.574 -0.4128  0.7361 -0.0977
  149DOPC   H2S17759   1.006   1.770   6.558  0.4099  0.2775  0.1227
  149DOPC    C317760   1.378   1.896   6.760 -0.5834  0.3905  0.3945
  149DOPC    HX17761   1.458   1.923   6.832 -0.5574  2.2192 -0.2745
  149DOPC    HY17762   1.372   1.987   6.698  0.6025  0.6356  0.6198
  149DOPC   O3117763   1.416   1.785   6.672 -0.3319  0.1203  0.0129
  149DOPC   C3117764   1.534   1.806   6.605  1.2473 -0.1910 -0.2939
  149DOPC   O3217765   1.613   1.895   6.638 -0.7158 -0.0655  0.8341
  149DOPC   C3217766   1.548   1.710   6.487  0.0315 -0.2912  0.4977
  149DOPC   H2X17767   1.541   1.605   6.524 -0.8658 -0.8158 -1.0390
  149DOPC   H2Y17768   1.469   1.730   6.411  0.2614  2.7219  0.9322
  149DOPC   C2317769   1.036   1.916   6.402  0.8248 -0.0448  0.5731
  149DOPC   H3R17770   1.145   1.900   6.391  0.5147 -1.6031 -0.5293
  149DOPC   H3S17771   1.015   2.025   6.392 -0.7088 -0.1680  1.9639
  149DOPC   C2417772   0.954   1.830   6.296 -1.1699 -0.6230 -0.2438
  149DOPC   H4R17773   0.877   1.899   6.255 -1.2982 -0.5877  0.0543
  149DOPC   H4S17774   0.901   1.749   6.352 -1.8748 -1.1746 -1.6653
  149DOPC   C2517775   1.058   1.761   6.202 -0.0817  0.0735 -0.1289
  149DOPC   H5R17776   1.004   1.681   6.148 -0.3252 -2.3709  3.4779
  149DOPC   H5S17777   1.136   1.718   6.268  0.6460  0.3245 -0.7958
  149DOPC   C2617778   1.120   1.857   6.098 -1.1111  0.2552 -0.3974
  149DOPC   H6R17779   1.218   1.813   6.070 -1.7272 -0.5186 -1.4053
  149DOPC   H6S17780   1.121   1.960   6.139 -1.1404 -0.0615  0.4250
  149DOPC   C2717781   1.033   1.860   5.967  0.0526 -1.0314  0.3691
  149DOPC   H7R17782   0.930   1.876   6.005 -0.4087  0.3854 -1.3843
  149DOPC   H7S17783   1.027   1.759   5.921 -2.8429 -0.8261  0.0949
  149DOPC   C2817784   1.067   1.969   5.861 -0.1991 -0.7467  1.0133
  149DOPC   H8R17785   1.074   2.068   5.910 -0.4980  0.0606 -0.5285
  149DOPC   H8S17786   0.978   1.985   5.798  1.4713 -0.2520 -1.3294
  149DOPC   C2917787   1.185   1.944   5.776 -0.2018  0.1519  0.2524
  149DOPC   H9R17788   1.280   1.934   5.831 -0.8823 -0.0973  1.4295
  149DOPC  C21017789   1.187   1.906   5.645 -0.3246 -0.2700  0.3926
  149DOPC  H10R17790   1.283   1.871   5.604 -0.4944  1.7409 -1.9044
  149DOPC  C21117791   1.072   1.916   5.542 -0.0498 -0.2873 -0.0967
  149DOPC  H11R17792   0.993   1.975   5.593  2.3387  3.2134 -0.0623
  149DOPC  H11S17793   1.029   1.816   5.519 -1.3062  0.0940  0.5619
  149DOPC  C21217794   1.103   1.985   5.402  0.0330  0.4583 -0.1948
  149DOPC  H12R17795   1.116   2.093   5.424 -1.6514  0.6953 -0.2515
  149DOPC  H12S17796   1.017   1.972   5.333 -0.0274 -0.4616  0.0458
  149DOPC  C21317797   1.235   1.944   5.332 -0.3122  0.2883  0.2663
  149DOPC  H13R17798   1.238   1.840   5.296  1.1932  1.1001 -2.1654
  149DOPC  H13S17799   1.330   1.958   5.387  1.4695 -0.0940 -2.5272
  149DOPC  C21417800   1.256   2.022   5.200 -0.1101 -0.6380 -1.0146
  149DOPC  H14R17801   1.269   2.131   5.218  0.3844 -0.8427 -0.0502
  149DOPC  H14S17802   1.174   2.016   5.125  0.2219 -0.1701 -1.4128
  149DOPC  C21517803   1.377   1.981   5.121  0.2037 -0.3749  0.2229
  149DOPC  H15R17804   1.397   1.871   5.124 -1.2520 -0.6409  1.7283
  149DOPC  H15S17805   1.467   2.022   5.169  1.3338 -0.5720 -1.6332
  149DOPC  C21617806   1.370   2.024   4.975  0.6116  0.0238  0.3593
  149DOPC  H16R17807   1.346   2.130   4.952 -2.3697 -0.6388 -0.0072
  149DOPC  H16S17808   1.282   1.975   4.929  0.4796  1.5533 -1.1017
  149DOPC  C21717809   1.508   2.001   4.904 -0.2996  0.3353  0.2526
  149DOPC  H17R17810   1.538   1.895   4.914  1.5909  1.0254  2.5586
  149DOPC  H17S17811   1.590   2.048   4.962  0.2996 -0.0272 -0.2954
  149DOPC  C21817812   1.503   2.051   4.755  0.1443 -0.6741 -0.3684
  149DOPC  H18R17813   1.417   2.011   4.698 -1.8922 -0.8320  2.5919
  149DOPC  H18S17814   1.595   2.020   4.700  2.1923 -0.0463  2.4457
  149DOPC  H18T17815   1.487   2.160   4.762  2.2995 -0.4251  2.5727
  149DOPC   C3317816   1.689   1.720   6.426 -0.5992  0.0006  0.4864
  149DOPC   H3X17817   1.779   1.700   6.488 -0.3153 -0.7105 -0.1394
  149DOPC   H3Y17818   1.711   1.821   6.387  1.2530 -1.2839 -2.1328
  149DOPC   C3417819   1.706   1.622   6.308  0.1813 -0.3482  0.4709
  149DOPC   H4X17820   1.637   1.659   6.229 -2.1283 -3.0075  1.0896
  149DOPC   H4Y17821   1.672   1.520   6.337 -3.7558 -0.0178 -2.1306
  149DOPC   C3517822   1.854   1.624   6.274  0.4009 -0.0302 -0.5170
  149DOPC   H5X17823   1.918   1.592   6.358 -1.4456 -2.0265  0.2313
  149DOPC   H5Y17824   1.887   1.727   6.248  1.9218 -0.3168  0.1946
  149DOPC   C3617825   1.902   1.514   6.174  0.3270 -0.0354  0.6661
  149DOPC   H6X17826   1.937   1.426   6.231  1.1509  0.3591  0.7741
  149DOPC   H6Y17827   1.810   1.486   6.118  0.2071  0.4936  0.5886
  149DOPC   C3717828   2.004   1.557   6.068  0.1073 -0.3869  0.6873
  149DOPC   H7X17829   1.978   1.648   6.009 -0.8462 -1.1186 -0.0485
  149DOPC   H7Y17830   2.103   1.573   6.116  0.4829 -0.7714  0.0521
  149DOPC   C3817831   2.017   1.451   5.947 -0.3241 -0.3910  0.0426
  149DOPC   H8X17832   2.080   1.509   5.875 -2.5597 -0.2947 -1.9579
  149DOPC   H8Y17833   1.916   1.441   5.903 -0.1611  0.1576 -0.4817
  149DOPC   C3917834   2.076   1.323   5.989 -0.7093  0.0046  0.5551
  149DOPC   H9X17835   2.158   1.335   6.061 -0.7137 -1.3169  0.8058
  149DOPC  C31017836   2.042   1.201   5.952  0.2319  0.4319  0.2951
  149DOPC  H10X17837   2.080   1.110   6.003 -0.6189 -0.1492 -0.0882
  149DOPC  C31117838   1.935   1.157   5.852  0.4967  0.1145  0.1943
  149DOPC  H11X17839   1.883   1.229   5.786  0.2112 -0.6123 -0.3900
  149DOPC  H11Y17840   1.855   1.096   5.899  1.7093 -1.1444  0.7170
  149DOPC  C31217841   1.996   1.068   5.741 -0.7651 -0.3422  0.8702
  149DOPC  H12X17842   1.917   1.019   5.680  0.7992 -0.4869 -1.1274
  149DOPC  H12Y17843   2.067   0.990   5.777 -0.0851 -0.9597 -1.5997
  149DOPC  C31317844   2.068   1.152   5.634  0.7462  0.9916  0.4256
  149DOPC  H13X17845   2.004   1.239   5.609 -0.6373 -0.3876 -1.0469
  149DOPC  H13Y17846   2.163   1.190   5.677  0.3348  1.5476  0.8712
  149DOPC  C31417847   2.102   1.071   5.515  0.0963 -0.0814  0.1727
  149DOPC  H14X17848   2.178   0.995   5.545 -0.9935 -1.9818 -1.6056
  149DOPC  H14Y17849   2.022   1.012   5.466  0.3908 -2.3438  2.2135
  149DOPC  C31517850   2.172   1.163   5.415  0.2725 -1.0572  0.5106
  149DOPC  H15X17851   2.261   1.206   5.466  1.4433 -1.1215 -1.3946
  149DOPC  H15Y17852   2.106   1.248   5.388 -0.5291 -0.6586  3.4108
  149DOPC  C31617853   2.202   1.089   5.287  0.4884  0.0336 -0.5610
  149DOPC  H16X17854   2.260   0.997   5.311 -1.0484 -0.5246  1.2814
  149DOPC  H16Y17855   2.105   1.046   5.253  0.0062 -0.1593  0.9534
  149DOPC  C31717856   2.259   1.172   5.177  0.0815  0.0472 -0.2315
  149DOPC  H17X17857   2.194   1.261   5.165  0.0939  0.4348  2.0616
  149DOPC  H17Y17858   2.354   1.212   5.217 -0.4114 -0.2982  1.3586
  149DOPC  C31817859   2.263   1.096   5.037 -0.1120  0.6939 -0.1319
  149DOPC  H18X17860   2.315   0.998   5.039  0.0889  0.8045  0.2314
  149DOPC  H18Y17861   2.158   1.070   5.009  0.4540 -0.0439 -1.6859
  149DOPC  H18Z17862   2.310   1.146   4.950  0.4474 -0.0502 -0.2639
  150DOPC     N17863   4.897   5.110   7.181  0.1382 -0.5174  0.0689
  150DOPC   C1217864   4.764   5.154   7.234  0.8188 -0.1675 -0.5838
  150DOPC  H12A17865   4.768   5.259   7.256  0.9270 -0.2810 -0.0488
  150DOPC  H12B17866   4.745   5.108   7.330 -1.7288  1.0244 -0.4338
  150DOPC   C1317867   4.999   5.130   7.292 -0.5897 -0.5024 -0.6136
  150DOPC  H13A17868   4.984   5.073   7.382  1.3991  1.1963  0.8832
  150DOPC  H13B17869   5.096   5.101   7.254 -0.5376 -0.1592 -0.7432
  150DOPC  H13C17870   5.019   5.233   7.315  1.8350 -0.7150 -1.5007
  150DOPC   C1417871   4.932   5.200   7.065 -0.6607 -0.4332  0.5137
  150DOPC  H14A17872   4.925   5.304   7.095  0.9710 -0.3778  0.7935
  150DOPC  H14B17873   5.032   5.181   7.030 -0.5739  0.3419  0.3106
  150DOPC  H14C17874   4.864   5.182   6.983  0.2817 -0.9841 -0.1606
  150DOPC   C1517875   4.884   4.968   7.138 -1.3243 -0.6496  0.3825
  150DOPC  H15A17876   4.971   4.931   7.085 -0.5042  1.5176  0.1402
  150DOPC  H15B17877   4.810   4.950   7.061 -0.2600 -2.1209 -0.3502
  150DOPC  H15C17878   4.857   4.907   7.223  2.5758 -1.3167  1.3271
  150DOPC   C1117879   4.629   5.138   7.152 -0.0924 -0.2979  0.1568
  150DOPC  H11A17880   4.546   5.205   7.181  0.2544 -0.3706  1.3773
  150DOPC  H11B17881   4.656   5.150   7.044 -4.3069 -3.3496 -1.5120
  150DOPC     P17882   4.535   4.922   7.036  0.7138  0.3150  0.2493
  150DOPC   O1317883   4.435   4.818   7.067  0.5763  0.0711  0.4203
  150DOPC   O1417884   4.653   4.876   6.962 -0.7255 -0.2348 -0.7575
  150DOPC   O1217885   4.581   5.001   7.164  0.6686 -0.2655 -0.4572
  150DOPC   O1117886   4.469   5.041   6.960  0.3107  0.7984  0.5913
  150DOPC    C117887   4.333   5.081   6.975 -0.5469  0.1407  0.0184
  150DOPC    HA17888   4.308   5.108   7.080 -1.7513  2.4842 -0.7793
  150DOPC    HB17889   4.273   4.995   6.941  0.3084  0.2414 -1.8424
  150DOPC    C217890   4.290   5.203   6.892 -0.4687 -0.3263 -0.3812
  150DOPC    HS17891   4.179   5.199   6.886 -0.4820 -0.1297 -0.2833
  150DOPC   O2117892   4.357   5.183   6.766 -0.1569 -0.5881 -0.0622
  150DOPC   C2117893   4.321   5.088   6.683  0.1244 -0.3276 -0.5314
  150DOPC   O2217894   4.214   5.031   6.692  0.0618 -0.7229 -0.1172
  150DOPC   C2217895   4.429   5.058   6.580 -0.4638 -0.5099 -1.2234
  150DOPC   H2R17896   4.503   4.988   6.624  0.7186  0.8059 -1.0400
  150DOPC   H2S17897   4.491   5.150   6.578 -0.3164 -0.2267  3.9132
  150DOPC    C317898   4.332   5.342   6.950  0.1759  0.1549  0.1899
  150DOPC    HX17899   4.440   5.335   6.975  0.6247 -0.1951 -1.6808
  150DOPC    HY17900   4.273   5.341   7.044  1.3075 -0.7197  0.9178
  150DOPC   O3117901   4.288   5.451   6.859 -0.6274 -0.2285 -0.0799
  150DOPC   C3117902   4.389   5.543   6.841  0.2908  0.3462  0.8281
  150DOPC   O3217903   4.484   5.563   6.912  0.2606 -0.3707  0.2198
  150DOPC   C3217904   4.368   5.620   6.709 -0.0762 -0.0375 -0.0119
  150DOPC   H2X17905   4.262   5.609   6.679 -0.5193  2.9071  0.1314
  150DOPC   H2Y17906   4.388   5.728   6.726  1.5476 -0.1334 -1.1046
  150DOPC   C2317907   4.378   5.005   6.452  0.3603  0.2724  0.4703
  150DOPC   H3R17908   4.450   5.009   6.368  0.1700 -2.0082  0.1382
  150DOPC   H3S17909   4.296   5.074   6.426 -0.3713 -0.6987  0.1279
  150DOPC   C2417910   4.315   4.866   6.449 -0.0634  0.5743 -0.0827
  150DOPC   H4R17911   4.219   4.876   6.504 -0.2094 -1.4739  0.0902
  150DOPC   H4S17912   4.371   4.785   6.501 -0.3644  0.8686  0.7159
  150DOPC   C2517913   4.279   4.831   6.305 -0.0582  0.3850  0.2466
  150DOPC   H5R17914   4.365   4.854   6.239 -1.8688  3.9468 -1.0954
  150DOPC   H5S17915   4.200   4.899   6.268  1.5198  1.6111 -1.0466
  150DOPC   C2617916   4.235   4.688   6.297  0.7488 -0.3549  0.3747
  150DOPC   H6R17917   4.296   4.623   6.363 -1.4266 -1.9021  0.9657
  150DOPC   H6S17918   4.231   4.653   6.191 -3.6592  0.2925  0.1071
  150DOPC   C2717919   4.096   4.659   6.343  0.6109  0.8237  0.1098
  150DOPC   H7R17920   4.024   4.743   6.329  0.6984  0.6049 -2.1210
  150DOPC   H7S17921   4.105   4.644   6.452 -0.4702 -0.3783  0.0510
  150DOPC   C2817922   4.031   4.528   6.288  0.5670 -0.0087 -0.2202
  150DOPC   H8R17923   3.968   4.477   6.364  0.6844  1.6444  1.0558
  150DOPC   H8S17924   4.108   4.452   6.264  1.5789  1.8790 -3.6611
  150DOPC   C2917925   3.963   4.564   6.154 -0.6839  0.6132 -0.3105
  150DOPC   H9R17926   4.034   4.585   6.072 -0.1267 -0.8228 -0.2173
  150DOPC  C21017927   3.830   4.561   6.132  0.1121  0.2527  0.1785
  150DOPC  H10R17928   3.795   4.576   6.028 -0.0073 -0.6361  0.0803
  150DOPC  C21117929   3.717   4.525   6.224  0.4102 -0.0584  0.9543
  150DOPC  H11R17930   3.679   4.609   6.286  0.3952  0.4412  0.2699
  150DOPC  H11S17931   3.750   4.447   6.296  0.6160 -0.2720  0.6328
  150DOPC  C21217932   3.603   4.472   6.138  0.3259  0.0675  0.0031
  150DOPC  H12R17933   3.633   4.391   6.069 -0.2298  0.5247 -0.7895
  150DOPC  H12S17934   3.565   4.553   6.073 -0.5370  0.7231  1.2867
  150DOPC  C21317935   3.487   4.406   6.212 -0.0531  0.1918  0.0654
  150DOPC  H13R17936   3.391   4.409   6.156 -1.0784 -1.7663  1.6053
  150DOPC  H13S17937   3.467   4.453   6.311  0.1278 -3.4079  1.9751
  150DOPC  C21417938   3.514   4.263   6.248 -0.8032 -0.0582  0.4238
  150DOPC  H14R17939   3.608   4.266   6.307  0.7486  0.9083 -1.9392
  150DOPC  H14S17940   3.520   4.199   6.158  2.5969 -0.1329  0.5618
  150DOPC  C21517941   3.414   4.197   6.334  0.9217 -0.0719 -0.2577
  150DOPC  H15R17942   3.314   4.197   6.285  0.0173 -0.6501  1.4935
  150DOPC  H15S17943   3.398   4.258   6.426  1.6153 -1.2036  0.6312
  150DOPC  C21617944   3.454   4.053   6.361  0.2202  0.7526  0.2551
  150DOPC  H16R17945   3.534   4.047   6.437 -0.0058 -1.9549  0.3636
  150DOPC  H16S17946   3.489   4.009   6.265  0.5858 -2.3671  1.6989
  150DOPC  C21717947   3.334   3.983   6.420  0.1144  1.2265 -0.5862
  150DOPC  H17R17948   3.259   3.975   6.338 -1.2648 -0.5664  0.7604
  150DOPC  H17S17949   3.294   4.048   6.502  0.3809 -0.2058  0.7120
  150DOPC  C21817950   3.379   3.855   6.489  0.0530  0.3259  0.0111
  150DOPC  H18R17951   3.298   3.813   6.553  1.1196  0.8534  1.8027
  150DOPC  H18S17952   3.464   3.877   6.558  0.3434  0.2292 -0.3131
  150DOPC  H18T17953   3.415   3.785   6.410 -0.3383  0.2004 -0.0563
  150DOPC   C3317954   4.464   5.558   6.604  0.3240 -0.9643 -0.2364
  150DOPC   H3X17955   4.421   5.589   6.507 -1.8086  0.0275  0.9761
  150DOPC   H3Y17956   4.474   5.448   6.596 -0.7716 -1.0157 -0.9785
  150DOPC   C3417957   4.602   5.611   6.628  0.0029 -0.0597  0.1904
  150DOPC   H4X17958   4.657   5.561   6.711 -0.2666 -0.3385  0.2014
  150DOPC   H4Y17959   4.603   5.721   6.648  0.9462 -0.0729  0.2422
  150DOPC   C3517960   4.693   5.594   6.504 -0.0433 -0.7733 -0.3239
  150DOPC   H5X17961   4.783   5.657   6.520  0.6398 -2.0377  1.0812
  150DOPC   H5Y17962   4.637   5.637   6.418 -0.0454  1.0276  0.5328
  150DOPC   C3617963   4.744   5.451   6.479 -0.6814 -0.8198  0.1669
  150DOPC   H6X17964   4.820   5.428   6.557  0.9497  2.3463 -0.3163
  150DOPC   H6Y17965   4.656   5.384   6.495 -1.3095  0.2191  1.3006
  150DOPC   C3717966   4.785   5.413   6.336  0.3870 -0.0685  0.7749
  150DOPC   H7X17967   4.860   5.480   6.289 -0.1102  1.3234  1.8837
  150DOPC   H7Y17968   4.839   5.316   6.335  2.3353  0.9697 -0.3706
  150DOPC   C3817969   4.660   5.404   6.239 -0.4286 -0.1291 -0.5209
  150DOPC   H8X17970   4.610   5.503   6.242  1.3106  0.8726 -2.2686
  150DOPC   H8Y17971   4.586   5.329   6.275 -1.1615  1.0289  0.4828
  150DOPC   C3917972   4.689   5.380   6.093  0.0915  0.1967 -0.7554
  150DOPC   H9X17973   4.699   5.467   6.027  0.2623  1.7273  1.2087
  150DOPC  C31017974   4.695   5.251   6.038  0.6305 -0.4708 -0.2783
  150DOPC  H10X17975   4.728   5.234   5.934  1.2874  2.2758 -0.6078
  150DOPC  C31117976   4.675   5.113   6.109  0.0506  0.5479 -0.3132
  150DOPC  H11X17977   4.683   5.116   6.219  0.5241  0.8620 -0.3546
  150DOPC  H11Y17978   4.743   5.037   6.064 -2.3387 -1.6277 -0.5128
  150DOPC  C31217979   4.532   5.072   6.070 -0.3580 -0.2501  0.5763
  150DOPC  H12X17980   4.458   5.154   6.082  2.0401  2.2114 -0.2103
  150DOPC  H12Y17981   4.485   4.991   6.129 -2.8925  0.2556 -0.6338
  150DOPC  C31317982   4.523   5.029   5.925 -0.7761 -0.1473  0.2131
  150DOPC  H13X17983   4.558   5.119   5.870 -1.6088 -0.7232 -1.3203
  150DOPC  H13Y17984   4.595   4.947   5.906  1.5855  1.9850 -0.5376
  150DOPC  C31417985   4.381   4.990   5.892 -0.2528 -0.1422 -0.1298
  150DOPC  H14X17986   4.357   4.887   5.927 -0.6162  0.8169  2.6869
  150DOPC  H14Y17987   4.307   5.054   5.943  1.4369  0.4088  1.7638
  150DOPC  C31517988   4.342   4.997   5.742 -0.3051  0.2712 -0.4122
  150DOPC  H15X17989   4.244   4.946   5.735 -0.2131 -0.6808  3.2487
  150DOPC  H15Y17990   4.413   4.935   5.685 -1.2177 -1.3786  0.1876
  150DOPC  C31617991   4.338   5.134   5.691  0.0200 -0.2864  0.0824
  150DOPC  H16X17992   4.282   5.197   5.764  1.6174 -0.7271  1.7631
  150DOPC  H16Y17993   4.441   5.173   5.678 -0.0522  0.5254  1.6496
  150DOPC  C31717994   4.269   5.135   5.557  0.5013 -0.0586  0.4494
  150DOPC  H17X17995   4.321   5.049   5.509  2.0672  0.1418  1.7156
  150DOPC  H17Y17996   4.162   5.105   5.563  0.2273  0.4903 -1.0989
  150DOPC  C31817997   4.280   5.262   5.475 -0.5419  0.1519 -0.1189
  150DOPC  H18X17998   4.245   5.239   5.372  1.9512 -3.3256 -0.3970
  150DOPC  H18Y17999   4.218   5.341   5.523 -0.1171 -0.6018  1.7582
  150DOPC  H18Z18000   4.381   5.309   5.469 -1.0126  1.0020 -2.0965
  151DOPC     N18001   7.291   3.010   6.935  0.0529  0.4929  0.1320
  151DOPC   C1218002   7.290   3.002   6.784  0.2435  0.1584 -0.2249
  151DOPC  H12A18003   7.203   3.057   6.752  0.4492  1.1961  0.9248
  151DOPC  H12B18004   7.288   2.897   6.761  1.5822 -0.0156  0.3568
  151DOPC   C1318005   7.397   2.929   7.002  0.4311  0.5574  0.1195
  151DOPC  H13A18006   7.380   2.827   6.970  0.3296  0.1630  1.3595
  151DOPC  H13B18007   7.495   2.961   6.971  0.6722  0.5083  0.8049
  151DOPC  H13C18008   7.392   2.922   7.110 -0.7266 -2.6061 -0.0254
  151DOPC   C1418009   7.161   2.965   6.988  0.2424  1.0568 -0.1184
  151DOPC  H14A18010   7.119   2.883   6.932  0.5608 -1.7494  3.3752
  151DOPC  H14B18011   7.181   2.934   7.090  2.0677 -0.0008 -0.7416
  151DOPC  H14C18012   7.090   3.045   6.976  1.3297  1.8740 -1.3549
  151DOPC   C1518013   7.307   3.152   6.979 -0.3557  0.4489 -0.6023
  151DOPC  H15A18014   7.235   3.186   7.052  0.5701  0.9350  0.1091
  151DOPC  H15B18015   7.301   3.212   6.889  0.4869 -1.4757 -2.0152
  151DOPC  H15C18016   7.405   3.163   7.022  0.7670 -0.4888 -2.7514
  151DOPC   C1118017   7.422   3.045   6.714  0.0218  0.1334 -0.4230
  151DOPC  H11A18018   7.392   3.074   6.612 -1.5097  0.2354  0.0320
  151DOPC  H11B18019   7.452   3.145   6.753 -0.2277  0.6320 -1.4705
  151DOPC     P18020   7.522   2.819   6.618 -0.0664  0.0573 -0.2733
  151DOPC   O1318021   7.414   2.730   6.649 -0.6968 -0.3148  0.0906
  151DOPC   O1418022   7.653   2.764   6.594  0.0917  0.2867 -0.1805
  151DOPC   O1218023   7.524   2.944   6.723  0.0272 -0.1970  0.7522
  151DOPC   O1118024   7.475   2.884   6.482 -0.1455  0.4080  0.3804
  151DOPC    C118025   7.555   2.989   6.419 -0.3909 -0.0839 -0.1017
  151DOPC    HA18026   7.643   3.023   6.476 -0.3707  0.2085 -0.2983
  151DOPC    HB18027   7.502   3.087   6.419 -0.7260 -0.2620  0.5443
  151DOPC    C218028   7.579   2.951   6.278  0.3677  0.3978  0.1347
  151DOPC    HS18029   7.645   3.028   6.232  1.0386 -1.8359 -2.9559
  151DOPC   O2118030   7.456   2.931   6.199 -0.0382  0.3379  0.5064
  151DOPC   C2118031   7.404   3.045   6.150 -0.2881 -0.0108 -0.0636
  151DOPC   O2218032   7.453   3.155   6.172 -0.0568  0.0534  0.1194
  151DOPC   C2218033   7.277   3.014   6.061  0.1965 -0.0891 -0.2733
  151DOPC   H2R18034   7.205   2.971   6.134  1.2464 -1.6860 -0.1049
  151DOPC   H2S18035   7.288   2.925   5.994 -2.0607  0.4427 -1.4387
  151DOPC    C318036   7.663   2.818   6.252 -0.2506 -0.5959  0.3804
  151DOPC    HX18037   7.627   2.742   6.324  2.8255 -0.2969  2.4165
  151DOPC    HY18038   7.763   2.841   6.295 -0.4184 -1.0569  1.0418
  151DOPC   O3118039   7.676   2.777   6.112  0.8985 -0.5528  0.1248
  151DOPC   C3118040   7.585   2.689   6.068  0.4624 -0.1076  0.0169
  151DOPC   O3218041   7.508   2.636   6.146 -0.2925 -0.2174  0.3818
  151DOPC   C3218042   7.588   2.675   5.919  0.4667 -0.1619 -0.2704
  151DOPC   H2X18043   7.636   2.770   5.887  1.0165  0.0522  1.1256
  151DOPC   H2Y18044   7.660   2.596   5.892 -0.1861 -1.5334  1.8030
  151DOPC   C2318045   7.226   3.137   5.992 -0.0661 -0.2296  0.3675
  151DOPC   H3R18046   7.225   3.218   6.068 -1.7499  1.3776 -1.2424
  151DOPC   H3S18047   7.122   3.118   5.958 -0.5400  0.4742  1.3916
  151DOPC   C2418048   7.313   3.190   5.876 -0.2891  0.0578 -1.0777
  151DOPC   H4R18049   7.341   3.105   5.809  2.8599 -0.8935  1.2060
  151DOPC   H4S18050   7.409   3.219   5.923 -0.4704 -1.4710  0.3430
  151DOPC   C2518051   7.252   3.314   5.804 -0.7740 -0.3262 -0.9399
  151DOPC   H5R18052   7.273   3.397   5.875 -0.6354 -0.0363 -1.3150
  151DOPC   H5S18053   7.142   3.298   5.797 -0.7772 -0.9023  0.2176
  151DOPC   C2618054   7.310   3.352   5.665  0.1096  0.0964  0.1392
  151DOPC   H6R18055   7.258   3.451   5.663  0.2294  0.1826  0.8509
  151DOPC   H6S18056   7.269   3.280   5.591  2.3875 -2.0861  0.8726
  151DOPC   C2718057   7.455   3.367   5.663  0.1504 -0.2412  0.0532
  151DOPC   H7R18058   7.506   3.269   5.655 -1.8339 -1.2450 -1.2215
  151DOPC   H7S18059   7.491   3.403   5.762  0.9109 -0.7108 -0.0436
  151DOPC   C2818060   7.516   3.455   5.554  0.6006  0.0321  0.6006
  151DOPC   H8R18061   7.489   3.419   5.453 -3.2216  2.1705  0.6491
  151DOPC   H8S18062   7.625   3.445   5.570  0.9928  0.9905 -1.2144
  151DOPC   C2918063   7.491   3.605   5.558 -0.3454 -0.9074 -0.2350
  151DOPC   H9R18064   7.518   3.645   5.657 -1.9873 -1.6112  0.5351
  151DOPC  C21018065   7.451   3.687   5.464 -0.3284  0.1980 -0.6753
  151DOPC  H10R18066   7.452   3.794   5.490 -1.4536  0.3559 -1.2230
  151DOPC  C21118067   7.433   3.654   5.320  0.0896 -0.1310 -0.2524
  151DOPC  H11R18068   7.454   3.548   5.297 -1.5809 -0.5167 -0.1278
  151DOPC  H11S18069   7.514   3.702   5.261  2.3822 -0.9860  1.9960
  151DOPC  C21218070   7.292   3.677   5.257  0.5767  0.1547 -0.2165
  151DOPC  H12R18071   7.226   3.625   5.328 -1.2703 -0.1930 -2.0912
  151DOPC  H12S18072   7.285   3.632   5.155  0.3972 -0.0846 -0.0974
  151DOPC  C21318073   7.249   3.821   5.256 -0.8616 -0.0661 -0.4289
  151DOPC  H13R18074   7.285   3.883   5.341 -0.9998 -1.3066  0.5456
  151DOPC  H13S18075   7.139   3.832   5.267 -0.9877 -0.6340 -1.0230
  151DOPC  C21418076   7.281   3.899   5.125  1.2023 -0.2536  0.4445
  151DOPC  H14R18077   7.249   3.840   5.037 -1.0462  0.5768  0.6246
  151DOPC  H14S18078   7.392   3.908   5.123  1.3588 -1.9705 -0.2579
  151DOPC  C21518079   7.211   4.038   5.122  0.2839 -0.1663 -0.7582
  151DOPC  H15R18080   7.267   4.109   5.185 -0.6678  1.2248 -1.4272
  151DOPC  H15S18081   7.112   4.014   5.168 -0.4516 -1.5263 -2.8764
  151DOPC  C21618082   7.185   4.092   4.985  0.2429 -0.4977 -0.3327
  151DOPC  H16R18083   7.116   4.177   5.007  0.6175 -0.7439  2.1510
  151DOPC  H16S18084   7.135   4.019   4.919  0.6091 -1.3102  0.2666
  151DOPC  C21718085   7.314   4.150   4.921  0.4671  0.2421  0.8621
  151DOPC  H17R18086   7.382   4.064   4.905 -0.5718 -1.3276  4.1997
  151DOPC  H17S18087   7.358   4.210   5.003  0.1350 -0.8434  1.8544
  151DOPC  C21818088   7.280   4.236   4.798  0.1607  0.3912 -0.7581
  151DOPC  H18R18089   7.202   4.309   4.829  0.5859  0.2172  0.8262
  151DOPC  H18S18090   7.239   4.164   4.724 -1.5227  2.2781 -1.7698
  151DOPC  H18T18091   7.379   4.275   4.766  1.5987 -2.7865 -0.5231
  151DOPC   C3318092   7.458   2.647   5.847  0.0894  0.5039  0.2875
  151DOPC   H3X18093   7.370   2.689   5.900  1.0688  0.0238  2.4209
  151DOPC   H3Y18094   7.445   2.536   5.842  0.5904  0.4739 -0.4739
  151DOPC   C3418095   7.456   2.693   5.705  0.2511  0.2863 -0.1605
  151DOPC   H4X18096   7.373   2.636   5.657 -0.0237 -1.2454  1.9899
  151DOPC   H4Y18097   7.547   2.651   5.657  1.0673 -1.5806  2.7743
  151DOPC   C3518098   7.438   2.839   5.689  0.4883 -0.1816 -0.2144
  151DOPC   H5X18099   7.520   2.895   5.738  1.8597 -1.3532 -1.0906
  151DOPC   H5Y18100   7.340   2.877   5.725  1.6793  2.2058  0.7647
  151DOPC   C3618101   7.434   2.879   5.534 -0.7288 -0.4285  0.2059
  151DOPC   H6X18102   7.533   2.847   5.495 -0.2796  0.9728  0.1375
  151DOPC   H6Y18103   7.355   2.831   5.472  0.1874 -2.7696  0.7296
  151DOPC   C3718104   7.437   3.028   5.503  0.6202 -0.2560 -0.2816
  151DOPC   H7X18105   7.356   3.087   5.550  1.4295 -0.2722  1.1734
  151DOPC   H7Y18106   7.534   3.076   5.527  0.5589 -0.3122  0.0785
  151DOPC   C3818107   7.428   3.046   5.347 -0.2350 -0.2539  0.5163
  151DOPC   H8X18108   7.340   2.987   5.314 -0.0388  0.4609 -1.3803
  151DOPC   H8Y18109   7.515   2.989   5.308  0.1325  0.1418  0.7590
  151DOPC   C3918110   7.422   3.187   5.285 -0.6742  0.4611  0.0568
  151DOPC   H9X18111   7.516   3.242   5.273 -0.0659 -0.6092 -0.2921
  151DOPC  C31018112   7.304   3.251   5.266  0.0536  0.1136  0.4080
  151DOPC  H10X18113   7.315   3.354   5.231  2.0814 -0.1077  0.3060
  151DOPC  C31118114   7.171   3.197   5.317 -0.2817  0.0293  0.2797
  151DOPC  H11X18115   7.135   3.260   5.400  0.3935  1.4196 -0.4563
  151DOPC  H11Y18116   7.180   3.098   5.366 -0.5858  0.6676  1.6479
  151DOPC  C31218117   7.066   3.195   5.208  0.7774  0.6640  0.0989
  151DOPC  H12X18118   7.055   3.291   5.153 -0.8926  0.5083  0.0863
  151DOPC  H12Y18119   6.966   3.178   5.253  0.2575  1.0331 -0.8737
  151DOPC  C31318120   7.090   3.080   5.103  0.3670  0.0707  0.5233
  151DOPC  H13X18121   7.179   3.018   5.124  1.2727  1.2336  0.2686
  151DOPC  H13Y18122   7.004   3.012   5.089  1.5698 -1.9018  2.2162
  151DOPC  C31418123   7.126   3.136   4.966 -0.3436  0.5463 -0.6168
  151DOPC  H14X18124   7.044   3.193   4.918 -1.3219  2.0827  2.6036
  151DOPC  H14Y18125   7.221   3.194   4.964 -0.4291  0.6814 -2.1180
  151DOPC  C31518126   7.159   3.022   4.870 -0.1945  0.4342  0.1329
  151DOPC  H15X18127   7.226   2.941   4.905  0.1496  1.3414  1.6697
  151DOPC  H15Y18128   7.202   3.070   4.780  2.1603  2.0267  1.9720
  151DOPC  C31618129   7.035   2.941   4.805 -0.0790  0.4558 -0.5075
  151DOPC  H16X18130   6.983   2.883   4.884 -0.0082  2.2356  0.9241
  151DOPC  H16Y18131   6.965   3.023   4.777  0.7135  1.3605  0.0804
  151DOPC  C31718132   7.066   2.847   4.686 -0.1096 -0.0182  0.1914
  151DOPC  H17X18133   7.088   2.904   4.594  0.8101  0.1672  0.5046
  151DOPC  H17Y18134   7.154   2.786   4.716 -0.2148  0.1599  0.8835
  151DOPC  C31818135   6.941   2.765   4.664 -0.9920  0.6767  0.2394
  151DOPC  H18X18136   6.861   2.840   4.643 -2.4360 -0.7358  0.5035
  151DOPC  H18Y18137   6.946   2.706   4.570  0.4223  0.6946  0.2881
  151DOPC  H18Z18138   6.920   2.695   4.748  1.0839  0.8855  0.9909
  152DOPC     N18139   3.653   0.709   7.261  0.3753  0.7356  0.0542
  152DOPC   C1218140   3.574   0.803   7.184  0.1644 -0.3106 -0.0618
  152DOPC  H12A18141   3.635   0.825   7.097 -0.6495  0.7157 -0.3979
  152DOPC  H12B18142   3.558   0.892   7.243  1.2253 -1.8986  2.7827
  152DOPC   C1318143   3.570   0.667   7.381 -0.3377 -0.6434  0.2268
  152DOPC  H13A18144   3.527   0.747   7.440 -0.8056 -1.5297  1.1016
  152DOPC  H13B18145   3.487   0.606   7.349  0.5786 -1.8095  0.0243
  152DOPC  H13C18146   3.637   0.618   7.450  1.5553  1.0685 -0.2652
  152DOPC   C1418147   3.776   0.788   7.300  0.3822 -0.5418  0.2069
  152DOPC  H14A18148   3.837   0.731   7.368 -0.2945 -1.2188  0.2534
  152DOPC  H14B18149   3.830   0.819   7.211 -0.5479 -2.6761 -1.1813
  152DOPC  H14C18150   3.751   0.879   7.352  1.1574 -0.2771  0.1322
  152DOPC   C1518151   3.682   0.579   7.184 -0.0021 -0.2483 -0.8237
  152DOPC  H15A18152   3.586   0.532   7.169 -0.4625  0.5241 -0.3829
  152DOPC  H15B18153   3.747   0.516   7.243 -0.8001  0.1830  0.5674
  152DOPC  H15C18154   3.723   0.587   7.084 -0.9580  0.8463 -1.1503
  152DOPC   C1118155   3.434   0.760   7.135 -0.4892 -0.2514  0.2707
  152DOPC  H11A18156   3.367   0.748   7.223  0.3612 -0.0101  0.9688
  152DOPC  H11B18157   3.393   0.839   7.068  0.2389 -0.9582 -1.0415
  152DOPC     P18158   3.476   0.645   6.904 -0.2169  0.4309  0.3614
  152DOPC   O1318159   3.542   0.518   6.865 -0.1183  0.0192 -0.0089
  152DOPC   O1418160   3.557   0.769   6.890 -0.2100  0.4863  0.1361
  152DOPC   O1218161   3.428   0.632   7.052  0.0744  0.0975  0.2771
  152DOPC   O1118162   3.350   0.665   6.817 -0.4721  0.4520  0.7971
  152DOPC    C118163   3.276   0.554   6.767  0.3146 -0.0299  0.7495
  152DOPC    HA18164   3.169   0.586   6.764  0.6259  1.0528 -3.0808
  152DOPC    HB18165   3.290   0.459   6.822  0.4260  0.3237  1.3523
  152DOPC    C218166   3.313   0.526   6.615 -0.0706 -0.1241 -0.1235
  152DOPC    HS18167   3.422   0.510   6.610  0.0485  0.4216  0.6193
  152DOPC   O2118168   3.269   0.636   6.532 -0.0717 -0.1044 -0.1812
  152DOPC   C2118169   3.348   0.730   6.509 -0.2396  0.5157  0.6055
  152DOPC   O2218170   3.462   0.748   6.549  0.2425 -0.3767  0.1284
  152DOPC   C2218171   3.263   0.828   6.425 -0.6587  0.2454  0.8077
  152DOPC   H2R18172   3.175   0.864   6.482 -2.5073 -1.2153 -0.9631
  152DOPC   H2S18173   3.214   0.776   6.340  2.6549  0.8356 -1.6563
  152DOPC    C318174   3.247   0.393   6.567  0.0814  0.6901 -0.4283
  152DOPC    HX18175   3.137   0.391   6.586 -0.0078 -1.6762 -0.8880
  152DOPC    HY18176   3.292   0.315   6.631  0.7696  1.3784 -0.0558
  152DOPC   O3118177   3.268   0.377   6.424 -0.5808  0.1740 -0.4028
  152DOPC   C3118178   3.169   0.418   6.344  0.7433  0.9367  0.0413
  152DOPC   O3218179   3.061   0.462   6.376  0.6089  0.3856 -0.2587
  152DOPC   C3218180   3.215   0.392   6.202 -0.1528  0.2759 -0.0855
  152DOPC   H2X18181   3.305   0.456   6.186 -1.2371  1.6044 -1.0850
  152DOPC   H2Y18182   3.253   0.289   6.185 -0.0470  0.4043 -0.6680
  152DOPC   C2318183   3.339   0.955   6.371 -0.1177  0.1343  0.0600
  152DOPC   H3R18184   3.397   0.996   6.456  3.5767 -1.0936 -1.6364
  152DOPC   H3S18185   3.267   1.034   6.339 -0.3899  0.0901  0.5560
  152DOPC   C2418186   3.427   0.918   6.255 -0.2745  0.1310  0.0424
  152DOPC   H4R18187   3.503   0.840   6.276  0.3538 -0.2111 -2.9860
  152DOPC   H4S18188   3.489   1.005   6.225  0.4442 -0.7611 -1.1282
  152DOPC   C2518189   3.354   0.879   6.123  0.6649  0.3649 -0.5128
  152DOPC   H5R18190   3.273   0.951   6.104  0.7369  0.1206 -1.8711
  152DOPC   H5S18191   3.302   0.781   6.131  0.4296  0.3434 -2.0035
  152DOPC   C2618192   3.441   0.873   5.998 -0.7753 -0.1661 -0.2223
  152DOPC   H6R18193   3.513   0.795   6.029 -1.0491 -0.4994 -0.4225
  152DOPC   H6S18194   3.489   0.971   5.976  2.3824 -1.0802  1.9384
  152DOPC   C2718195   3.371   0.813   5.875  0.2761 -0.1740 -0.1295
  152DOPC   H7R18196   3.278   0.869   5.853  0.4520 -0.1428 -0.8001
  152DOPC   H7S18197   3.326   0.717   5.907 -0.7759  0.8039  1.5351
  152DOPC   C2818198   3.459   0.828   5.753 -0.3323 -0.0437  0.3509
  152DOPC   H8R18199   3.411   0.760   5.680  2.5061 -3.7563  1.5960
  152DOPC   H8S18200   3.560   0.793   5.783 -1.0835 -1.0159  1.8662
  152DOPC   C2918201   3.464   0.972   5.703  0.0799  0.6067  0.5618
  152DOPC   H9R18202   3.433   1.047   5.776  2.3898  1.4789  0.7386
  152DOPC  C21018203   3.532   1.011   5.591  0.2942  0.5835  0.4382
  152DOPC  H10R18204   3.521   1.110   5.544  1.0065  0.3568 -0.2296
  152DOPC  C21118205   3.606   0.915   5.511  0.0119  0.0191 -0.0708
  152DOPC  H11R18206   3.575   0.808   5.520 -1.1131  0.3610  0.3264
  152DOPC  H11S18207   3.712   0.927   5.541  0.1365 -0.3518 -0.3495
  152DOPC  C21218208   3.613   0.959   5.362  0.6360  0.3687 -0.0998
  152DOPC  H12R18209   3.695   0.898   5.319 -0.2776 -2.5024  1.9561
  152DOPC  H12S18210   3.630   1.069   5.357 -1.1388  0.6874  0.2065
  152DOPC  C21318211   3.496   0.923   5.268  0.1926 -0.4256 -0.3516
  152DOPC  H13R18212   3.535   0.892   5.169 -0.6150  0.2627 -0.8971
  152DOPC  H13S18213   3.435   1.014   5.252  0.1273  0.0117  1.9970
  152DOPC  C21418214   3.414   0.810   5.328 -0.0696  0.1522  0.3703
  152DOPC  H14R18215   3.383   0.827   5.433 -3.5936 -2.5700 -0.0141
  152DOPC  H14S18216   3.480   0.723   5.347  0.5160  0.8311  1.5006
  152DOPC  C21518217   3.294   0.776   5.247  0.2393  1.0718 -0.3657
  152DOPC  H15R18218   3.309   0.776   5.137  0.4646 -0.4775 -0.3573
  152DOPC  H15S18219   3.221   0.851   5.285  1.8179  1.7630  1.4723
  152DOPC  C21618220   3.250   0.635   5.284 -0.7730  0.2668 -0.6554
  152DOPC  H16R18221   3.251   0.609   5.392 -1.8535 -0.0357 -0.7121
  152DOPC  H16S18222   3.317   0.554   5.246 -1.6885 -0.9306  0.2053
  152DOPC  C21718223   3.104   0.605   5.238  0.0259  0.3745 -0.0863
  152DOPC  H17R18224   3.096   0.602   5.127  1.4852  1.0110 -0.2348
  152DOPC  H17S18225   3.030   0.679   5.277 -0.0198  0.7332 -0.8349
  152DOPC  C21818226   3.056   0.460   5.276 -0.7233 -0.1415  0.2370
  152DOPC  H18R18227   2.956   0.436   5.235 -0.9708  1.1134  0.0642
  152DOPC  H18S18228   3.066   0.454   5.387  1.4346  2.3451  0.2847
  152DOPC  H18T18229   3.121   0.389   5.221 -1.7786 -0.8978 -0.0499
  152DOPC   C3318230   3.108   0.413   6.091  0.0668  0.3551 -0.0895
  152DOPC   H3X18231   3.083   0.521   6.100 -0.7879 -0.0162  2.9455
  152DOPC   H3Y18232   3.017   0.356   6.119  0.1606 -0.7920 -1.9749
  152DOPC   C3418233   3.164   0.375   5.954 -0.0274  0.0094 -0.0760
  152DOPC   H4X18234   3.222   0.281   5.963  1.2023  0.8215  0.7779
  152DOPC   H4Y18235   3.227   0.464   5.931 -0.5095  0.6478  1.0167
  152DOPC   C3518236   3.044   0.367   5.850 -0.3932  0.1653  0.0129
  152DOPC   H5X18237   2.982   0.459   5.858  1.9162  1.7685  0.5017
  152DOPC   H5Y18238   2.973   0.285   5.875 -0.1329  0.1643  0.7943
  152DOPC   C3618239   3.090   0.353   5.701  0.3716 -0.2492 -0.1440
  152DOPC   H6X18240   3.158   0.270   5.672 -0.3748 -0.5927 -0.9754
  152DOPC   H6Y18241   2.999   0.342   5.637  1.0315  0.5714 -1.2444
  152DOPC   C3718242   3.176   0.472   5.647  0.1148  0.5387 -0.2643
  152DOPC   H7X18243   3.272   0.472   5.702 -0.2071 -0.1303  0.3205
  152DOPC   H7Y18244   3.190   0.466   5.537 -0.5361  0.7362 -0.3643
  152DOPC   C3818245   3.108   0.606   5.687  0.2136 -0.0399  0.5637
  152DOPC   H8X18246   3.188   0.678   5.660  0.0732 -0.5725 -1.4913
  152DOPC   H8Y18247   3.106   0.610   5.798  1.7723 -1.3684  0.6865
  152DOPC   C3918248   2.979   0.632   5.614  0.2433 -0.0450 -0.8634
  152DOPC   H9X18249   2.912   0.546   5.625  0.5976 -0.1252  1.0156
  152DOPC  C31018250   2.942   0.737   5.541 -0.0211  0.3019  0.1676
  152DOPC  H10X18251   2.842   0.746   5.496  0.6354 -0.1116 -1.4227
  152DOPC  C31118252   3.020   0.864   5.522 -0.1305  0.3413 -0.1594
  152DOPC  H11X18253   3.024   0.883   5.413 -3.6146  1.9919 -0.1371
  152DOPC  H11Y18254   3.123   0.848   5.560  0.0202  1.4924 -0.0407
  152DOPC  C31218255   2.951   0.981   5.590 -0.5181  0.1026  0.1935
  152DOPC  H12X18256   2.843   0.994   5.564 -0.8731 -0.7757  1.1532
  152DOPC  H12Y18257   3.008   1.072   5.562 -1.6480 -0.2437 -3.8830
  152DOPC  C31318258   2.963   0.982   5.745  0.4379  1.2680  0.6731
  152DOPC  H13X18259   2.901   0.899   5.786 -0.7261  0.8957 -1.6355
  152DOPC  H13Y18260   3.070   0.966   5.770  0.3951  2.5048  1.7372
  152DOPC  C31418261   2.922   1.116   5.807  0.0072  0.1227 -0.5224
  152DOPC  H14X18262   3.004   1.190   5.799 -0.2932  0.4626 -0.5213
  152DOPC  H14Y18263   2.830   1.146   5.752 -0.2723 -1.6931 -1.0923
  152DOPC  C31518264   2.877   1.100   5.956 -0.2117 -0.2837 -0.5490
  152DOPC  H15X18265   2.776   1.052   5.959 -1.3149  1.9282 -0.4335
  152DOPC  H15Y18266   2.858   1.199   6.001  2.4289 -0.3332  0.8373
  152DOPC  C31618267   2.980   1.044   6.070  0.1597  0.1874  1.0500
  152DOPC  H16X18268   3.013   0.943   6.037 -1.4995 -0.3596  0.9424
  152DOPC  H16Y18269   3.060   1.120   6.066 -1.3435  1.7873 -2.0662
  152DOPC  C31718270   2.923   1.035   6.214  0.4694  0.0088  0.5619
  152DOPC  H17X18271   2.841   0.961   6.211  0.2875  0.1229  1.9941
  152DOPC  H17Y18272   3.012   1.016   6.278  2.9391  3.0502 -1.6665
  152DOPC  C31818273   2.856   1.166   6.261  0.3410 -0.0360  0.0418
  152DOPC  H18X18274   2.807   1.153   6.359 -1.6254 -0.9057 -1.0076
  152DOPC  H18Y18275   2.933   1.246   6.261 -0.6820  1.1059 -2.9810
  152DOPC  H18Z18276   2.770   1.203   6.201 -0.9235 -0.8497  1.3106
  153DOPC     N18277   3.740   6.480   7.422  0.4086 -0.1780 -0.8586
  153DOPC   C1218278   3.835   6.401   7.334 -0.1541 -0.8487  0.4035
  153DOPC  H12A18279   3.937   6.430   7.356 -0.3452  1.6962 -1.6862
  153DOPC  H12B18280   3.810   6.421   7.231 -1.2767  3.4827  1.3240
  153DOPC   C1318281   3.728   6.434   7.564 -0.0261  0.1480 -0.0706
  153DOPC  H13A18282   3.656   6.494   7.617 -1.4672  0.3346 -2.1284
  153DOPC  H13B18283   3.707   6.329   7.553  0.3453  0.0184  0.4165
  153DOPC  H13C18284   3.822   6.450   7.615  1.2461  0.3077 -2.3294
  153DOPC   C1418285   3.603   6.462   7.369  0.0601  0.3706  0.5039
  153DOPC  H14A18286   3.531   6.520   7.424  1.1440 -1.1064  3.7075
  153DOPC  H14B18287   3.597   6.493   7.265 -0.2287  2.8456  1.1956
  153DOPC  H14C18288   3.570   6.359   7.376  0.9852 -0.1577 -1.7983
  153DOPC   C1518289   3.771   6.629   7.416  0.2774  0.6231  0.0417
  153DOPC  H15A18290   3.849   6.655   7.486  1.4982 -2.3681 -0.0412
  153DOPC  H15B18291   3.685   6.691   7.432  0.7626  1.6862 -1.2821
  153DOPC  H15C18292   3.795   6.650   7.312 -0.2939  0.1805 -0.1852
  153DOPC   C1118293   3.827   6.245   7.343  0.0099 -0.3406  0.3917
  153DOPC  H11A18294   3.723   6.211   7.323 -0.7019  0.9247  1.7749
  153DOPC  H11B18295   3.882   6.207   7.254 -1.4830  1.0574 -1.1864
  153DOPC     P18296   3.867   6.035   7.487 -0.0793  0.1481 -0.2304
  153DOPC   O1318297   3.740   6.019   7.568 -0.2580 -0.1309 -0.3789
  153DOPC   O1418298   3.988   5.983   7.547 -0.4985  0.2453  0.2313
  153DOPC   O1218299   3.882   6.192   7.465 -0.4585  0.6213 -0.0249
  153DOPC   O1118300   3.854   5.980   7.341 -0.1684  0.2203 -0.3129
  153DOPC    C118301   3.908   5.849   7.308  0.4082  0.0916 -0.7500
  153DOPC    HA18302   3.865   5.768   7.370 -0.0151  1.3227  0.6062
  153DOPC    HB18303   4.019   5.849   7.315  0.3988  2.5787  1.0285
  153DOPC    C218304   3.869   5.827   7.164 -0.0535  0.0021  0.2387
  153DOPC    HS18305   3.899   5.726   7.128  0.4281  0.4582 -0.6580
  153DOPC   O2118306   3.916   5.941   7.082  0.2700  0.3819 -0.2696
  153DOPC   C2118307   4.035   5.920   7.026  0.2071 -0.4343 -0.9023
  153DOPC   O2218308   4.111   5.825   7.052 -0.5629  0.2229  0.6830
  153DOPC   C2218309   4.073   6.034   6.932 -0.3391  0.9298 -0.5236
  153DOPC   H2R18310   4.114   6.118   6.993  1.0750 -1.5490  2.1719
  153DOPC   H2S18311   3.975   6.072   6.894 -1.9151 -1.6085  0.7199
  153DOPC    C318312   3.716   5.817   7.150  0.0993  0.2317 -0.3664
  153DOPC    HX18313   3.689   5.925   7.152 -0.3569  0.1149  0.8023
  153DOPC    HY18314   3.678   5.767   7.241 -0.8155  0.7964 -0.4216
  153DOPC   O3118315   3.681   5.749   7.029 -0.3797  0.1932 -0.1890
  153DOPC   C3118316   3.588   5.800   6.953  0.5153 -0.1179  0.0217
  153DOPC   O3218317   3.520   5.901   6.967  0.0309 -0.4565  0.4356
  153DOPC   C3218318   3.574   5.706   6.837  0.8807 -0.1060 -0.3561
  153DOPC   H2X18319   3.657   5.633   6.825 -0.2149 -1.4014 -0.3116
  153DOPC   H2Y18320   3.479   5.651   6.854  2.0105 -1.9434  0.3504
  153DOPC   C2318321   4.179   5.986   6.833  0.2477  0.3832 -0.0063
  153DOPC   H3R18322   4.269   5.955   6.890  0.0918  1.3370  0.7965
  153DOPC   H3S18323   4.206   6.076   6.775 -1.0797  0.5907 -0.3541
  153DOPC   C2418324   4.142   5.882   6.720  0.2686  0.1819 -0.9742
  153DOPC   H4R18325   4.121   5.783   6.767 -0.8884 -0.7747 -3.3302
  153DOPC   H4S18326   4.228   5.864   6.653  1.1881 -1.2566  0.5143
  153DOPC   C2518327   4.017   5.926   6.639  0.6392 -0.7530  0.2927
  153DOPC   H5R18328   4.011   6.036   6.646 -0.1870 -0.8231  0.7967
  153DOPC   H5S18329   3.919   5.887   6.673 -0.7250  1.9384 -0.2969
  153DOPC   C2618330   4.012   5.885   6.489  0.3032  0.0042 -0.5190
  153DOPC   H6R18331   3.919   5.922   6.442 -1.1143 -1.6167  0.8613
  153DOPC   H6S18332   4.002   5.774   6.488 -1.2335  0.0514  1.8342
  153DOPC   C2718333   4.134   5.924   6.408  0.0523  0.2717  0.4183
  153DOPC   H7R18334   4.229   5.879   6.443  0.3797  0.6364  0.0132
  153DOPC   H7S18335   4.142   6.033   6.426  0.3949  0.3870 -0.3654
  153DOPC   C2818336   4.121   5.900   6.256  0.0302 -0.3199  0.7938
  153DOPC   H8R18337   4.120   5.792   6.232 -1.4470  0.1621 -1.6512
  153DOPC   H8S18338   4.201   5.952   6.199 -1.0056  0.3777 -0.0729
  153DOPC   C2918339   3.991   5.960   6.207 -0.2228  0.5346  0.2152
  153DOPC   H9R18340   3.961   6.057   6.249 -0.4139 -0.0031  1.3647
  153DOPC  C21018341   3.898   5.894   6.139  0.0402 -0.1011  0.0075
  153DOPC  H10R18342   3.806   5.949   6.111 -0.1471  0.2463  1.2446
  153DOPC  C21118343   3.900   5.752   6.079  0.0654 -0.0561 -0.1571
  153DOPC  H11R18344   3.804   5.704   6.109 -1.0415  2.2940  0.3177
  153DOPC  H11S18345   3.978   5.685   6.121  0.1364  0.0023 -0.1940
  153DOPC  C21218346   3.915   5.739   5.931  0.5055 -1.0263 -0.7092
  153DOPC  H12R18347   3.840   5.809   5.887  0.1331 -0.8203  0.2371
  153DOPC  H12S18348   3.908   5.635   5.892  0.9909 -1.0152 -0.8307
  153DOPC  C21318349   4.056   5.769   5.873 -0.2095  0.1376  0.3449
  153DOPC  H13R18350   4.096   5.851   5.936 -3.1845  0.6704  1.7020
  153DOPC  H13S18351   4.056   5.796   5.766  2.8226 -1.4034 -0.1650
  153DOPC  C21418352   4.153   5.656   5.898 -0.7794  0.3626 -0.8629
  153DOPC  H14R18353   4.123   5.568   5.838  0.6302 -0.6079 -0.2165
  153DOPC  H14S18354   4.161   5.625   6.005 -0.2444 -0.1004 -1.0354
  153DOPC  C21518355   4.291   5.701   5.851 -0.0213  0.3150 -0.4918
  153DOPC  H15R18356   4.330   5.796   5.894  3.9538 -0.6518 -1.5585
  153DOPC  H15S18357   4.284   5.723   5.742  0.6077  0.8799 -0.4248
  153DOPC  C21618358   4.396   5.594   5.867 -0.1179  0.0982 -0.5446
  153DOPC  H16R18359   4.360   5.491   5.842  0.6193 -0.9588  2.3620
  153DOPC  H16S18360   4.424   5.585   5.974  0.9917  0.0813 -0.8214
  153DOPC  C21718361   4.521   5.616   5.785  0.4016 -0.6778  0.6894
  153DOPC  H17R18362   4.600   5.562   5.841  1.3968 -0.6654 -0.6605
  153DOPC  H17S18363   4.538   5.725   5.796  0.6622 -0.7944  1.4771
  153DOPC  C21818364   4.506   5.569   5.639 -0.1309  0.3640  0.8539
  153DOPC  H18R18365   4.595   5.585   5.574 -1.2814  0.0425 -0.8794
  153DOPC  H18S18366   4.411   5.612   5.603 -0.6666 -0.2406  1.5162
  153DOPC  H18T18367   4.491   5.459   5.642 -0.3384  0.3732  0.2971
  153DOPC   C3318368   3.563   5.796   6.710  0.5983 -0.3173 -0.6016
  153DOPC   H3X18369   3.659   5.850   6.695  0.9711 -0.1842  1.8441
  153DOPC   H3Y18370   3.475   5.863   6.719 -0.1243 -0.8979 -2.6594
  153DOPC   C3418371   3.545   5.713   6.585  0.0572  0.1916  0.3020
  153DOPC   H4X18372   3.470   5.638   6.620 -0.9080 -0.6382 -3.1187
  153DOPC   H4Y18373   3.634   5.658   6.549  2.0909  1.2015  3.3803
  153DOPC   C3518374   3.479   5.780   6.463  0.2879 -0.5207 -0.0759
  153DOPC   H5X18375   3.381   5.826   6.487  0.5339  0.8198 -1.4381
  153DOPC   H5Y18376   3.460   5.690   6.401  1.1115  1.0208 -2.7724
  153DOPC   C3618377   3.573   5.888   6.406  0.2636  0.1372 -0.0330
  153DOPC   H6X18378   3.596   5.963   6.484 -2.7990  1.6240 -0.4268
  153DOPC   H6Y18379   3.660   5.828   6.372 -0.1869 -0.1868 -0.6420
  153DOPC   C3718380   3.516   5.958   6.290 -0.2214 -0.6895  0.5479
  153DOPC   H7X18381   3.415   5.995   6.317 -0.8039 -1.1591 -0.8904
  153DOPC   H7Y18382   3.584   6.038   6.252  0.8167 -2.1882 -0.8969
  153DOPC   C3818383   3.499   5.875   6.160 -0.6001 -0.7690 -0.3782
  153DOPC   H8X18384   3.457   5.783   6.206  0.8924 -0.8450  0.9152
  153DOPC   H8Y18385   3.595   5.850   6.112 -0.5650 -0.8285 -0.2782
  153DOPC   C3918386   3.404   5.947   6.065  0.1643  0.1618 -0.1839
  153DOPC   H9X18387   3.303   5.906   6.056  0.5715 -1.1142  0.7754
  153DOPC  C31018388   3.441   6.035   5.971 -0.0378  1.1602  0.5765
  153DOPC  H10X18389   3.363   6.069   5.901 -0.4897  0.2447  0.6184
  153DOPC  C31118390   3.575   6.108   5.962 -0.0450 -0.3463  0.3803
  153DOPC  H11X18391   3.667   6.066   6.009 -0.5381  0.2071  1.9103
  153DOPC  H11Y18392   3.562   6.197   6.028  1.4787  0.3662 -0.2337
  153DOPC  C31218393   3.606   6.168   5.826  0.2163 -0.0678 -0.5733
  153DOPC  H12X18394   3.593   6.092   5.746 -0.7548 -0.1095 -0.3838
  153DOPC  H12Y18395   3.711   6.204   5.815  0.5681 -0.6067  0.8097
  153DOPC  C31318396   3.512   6.285   5.781  0.0743 -0.3479  0.0482
  153DOPC  H13X18397   3.413   6.240   5.756  0.7849 -0.6006 -2.6713
  153DOPC  H13Y18398   3.501   6.353   5.868  0.1700 -0.4518  0.1406
  153DOPC  C31418399   3.552   6.357   5.650  0.1917 -0.1206 -0.1064
  153DOPC  H14X18400   3.599   6.283   5.581 -0.2115 -0.6449  0.1782
  153DOPC  H14Y18401   3.459   6.391   5.600 -1.4060 -0.3662  2.5246
  153DOPC  C31518402   3.646   6.480   5.664  0.3949 -0.1476 -0.0715
  153DOPC  H15X18403   3.733   6.457   5.729  0.2909  0.9434  0.4910
  153DOPC  H15Y18404   3.593   6.560   5.721 -1.3381 -2.7989  2.3104
  153DOPC  C31618405   3.687   6.548   5.532  0.1941  0.4254  0.5373
  153DOPC  H16X18406   3.741   6.644   5.543 -0.0522  1.2226 -3.6483
  153DOPC  H16Y18407   3.764   6.485   5.482 -0.5077  0.3364 -0.4674
  153DOPC  C31718408   3.573   6.579   5.427 -0.4656  0.0001 -0.3668
  153DOPC  H17X18409   3.501   6.497   5.404  0.5143 -0.7889 -0.6931
  153DOPC  H17Y18410   3.510   6.658   5.473 -0.6324 -1.1343  1.4546
  153DOPC  C31818411   3.620   6.646   5.303 -0.6867  0.2862 -0.5688
  153DOPC  H18X18412   3.548   6.646   5.218 -0.2245 -0.8215 -0.9786
  153DOPC  H18Y18413   3.647   6.753   5.319 -0.2334  0.2122 -0.8159
  153DOPC  H18Z18414   3.706   6.588   5.262 -0.0610 -0.5114  1.7297
  154DOPC     N18415   4.828   2.392   7.348  0.3021 -0.4328 -0.2613
  154DOPC   C1218416   4.819   2.377   7.196 -0.6713 -0.0528 -0.0082
  154DOPC  H12A18417   4.750   2.297   7.175 -1.4517  0.8572 -1.0197
  154DOPC  H12B18418   4.918   2.343   7.167 -0.4284  0.5390  0.1162
  154DOPC   C1318419   4.935   2.488   7.383 -0.2722 -0.4745  0.0232
  154DOPC  H13A18420   4.946   2.520   7.486  1.2815  1.5644 -0.7052
  154DOPC  H13B18421   5.031   2.449   7.354  0.6078  2.1016 -0.7696
  154DOPC  H13C18422   4.921   2.580   7.328  0.3304 -1.4349 -1.7774
  154DOPC   C1418423   4.880   2.269   7.414 -0.0322  0.3999  0.1050
  154DOPC  H14A18424   4.824   2.184   7.378  0.9364 -0.8685  1.4523
  154DOPC  H14B18425   4.981   2.253   7.379 -1.3435  0.8671 -4.5976
  154DOPC  H14C18426   4.897   2.280   7.520  1.8923  0.8670 -0.2101
  154DOPC   C1518427   4.703   2.433   7.415  0.3072  0.0239  0.0062
  154DOPC  H15A18428   4.617   2.369   7.401  0.8045 -0.8391  0.8062
  154DOPC  H15B18429   4.678   2.536   7.396 -0.4775  0.2329  1.9209
  154DOPC  H15C18430   4.726   2.433   7.521 -1.1673  3.3716  0.4542
  154DOPC   C1118431   4.762   2.496   7.112  0.3135 -0.1296 -0.4876
  154DOPC  H11A18432   4.707   2.469   7.020 -1.2439  1.8161 -0.1990
  154DOPC  H11B18433   4.690   2.544   7.182  1.3436  0.2778  0.3163
  154DOPC     P18434   4.948   2.595   6.961 -0.3261  0.2619 -0.3559
  154DOPC   O1318435   5.090   2.613   7.005  0.1500 -0.1192 -0.1318
  154DOPC   O1418436   4.900   2.698   6.868 -0.6250 -0.1682  0.3221
  154DOPC   O1218437   4.854   2.602   7.088 -0.0173 -0.5380 -0.2524
  154DOPC   O1118438   4.931   2.450   6.902 -0.3175  0.0879 -0.1106
  154DOPC    C118439   5.007   2.407   6.787 -0.4513  0.7601 -0.2719
  154DOPC    HA18440   5.094   2.353   6.831 -0.7595  1.7022  1.6199
  154DOPC    HB18441   5.038   2.494   6.725  2.1161 -0.0732 -0.2526
  154DOPC    C218442   4.932   2.308   6.690 -1.2619 -0.2630  0.5458
  154DOPC    HS18443   4.930   2.212   6.746 -1.0931  0.0797  1.1442
  154DOPC   O2118444   5.005   2.290   6.562  0.1287  0.0425  0.4402
  154DOPC   C2118445   5.009   2.386   6.477 -0.8799  0.3922 -0.0789
  154DOPC   O2218446   4.956   2.495   6.493  0.1380 -0.6785  0.1927
  154DOPC   C2218447   5.095   2.353   6.360 -0.4044  0.3046  0.0116
  154DOPC   H2R18448   5.118   2.245   6.368  1.9243  0.8884  3.7578
  154DOPC   H2S18449   5.191   2.408   6.359  0.0336 -0.4039  1.0341
  154DOPC    C318450   4.778   2.344   6.685 -0.3766 -0.3166 -0.2020
  154DOPC    HX18451   4.765   2.454   6.697 -3.1958 -0.6640  0.7032
  154DOPC    HY18452   4.728   2.308   6.777 -0.0410  0.9462  0.5009
  154DOPC   O3118453   4.710   2.294   6.565 -0.7111  0.1991  0.0640
  154DOPC   C3118454   4.673   2.165   6.571 -0.3857 -0.4684  0.3966
  154DOPC   O3218455   4.700   2.087   6.657 -0.4647  0.7662 -0.6201
  154DOPC   C3218456   4.588   2.134   6.449  0.2002 -0.2013 -0.8505
  154DOPC   H2X18457   4.501   2.204   6.451  1.1599  1.0280 -1.2015
  154DOPC   H2Y18458   4.651   2.166   6.363  0.7454  0.0285 -0.3708
  154DOPC   C2318459   5.029   2.385   6.229 -0.2884 -0.1401 -0.0124
  154DOPC   H3R18460   4.988   2.487   6.242  0.2671 -0.1128  1.8188
  154DOPC   H3S18461   4.942   2.316   6.222  0.1137 -0.7760  0.9255
  154DOPC   C2418462   5.123   2.365   6.111 -0.8903 -0.1147 -0.3405
  154DOPC   H4R18463   5.174   2.268   6.127  0.8949  0.5357 -1.7987
  154DOPC   H4S18464   5.192   2.451   6.123 -3.3531  2.0639 -0.9434
  154DOPC   C2518465   5.054   2.372   5.981 -0.3299  0.1868 -0.4138
  154DOPC   H5R18466   4.994   2.466   5.979 -0.3759  0.1409 -1.3180
  154DOPC   H5S18467   4.991   2.281   5.976  0.5577 -0.3532 -2.4732
  154DOPC   C2618468   5.133   2.354   5.856 -0.1900 -0.8762  0.0395
  154DOPC   H6R18469   5.067   2.323   5.772  0.3362 -1.8576 -0.0298
  154DOPC   H6S18470   5.198   2.265   5.865  2.2922  0.6429 -1.4873
  154DOPC   C2718471   5.208   2.485   5.819 -0.2324  0.0670 -0.0887
  154DOPC   H7R18472   5.273   2.512   5.905 -0.8477 -0.9752  0.7191
  154DOPC   H7S18473   5.133   2.567   5.815 -0.6592 -0.3238 -0.0996
  154DOPC   C2818474   5.281   2.481   5.675  0.1861  0.4847  0.7456
  154DOPC   H8R18475   5.206   2.500   5.596 -2.0287  0.0203  2.6106
  154DOPC   H8S18476   5.311   2.376   5.654  2.7870  1.0577  1.2296
  154DOPC   C2918477   5.388   2.581   5.667  0.0270  0.4501 -0.4084
  154DOPC   H9R18478   5.414   2.626   5.764 -1.8340  1.2514 -0.2244
  154DOPC  C21018479   5.443   2.629   5.553 -0.6186 -0.3424 -0.3399
  154DOPC  H10R18480   5.510   2.716   5.560  0.2723 -1.0404 -0.0252
  154DOPC  C21118481   5.426   2.588   5.408 -0.4155  0.3866 -0.3732
  154DOPC  H11R18482   5.347   2.511   5.395  0.3537 -0.3962 -0.4471
  154DOPC  H11S18483   5.522   2.541   5.379 -0.8008  0.7481 -2.3401
  154DOPC  C21218484   5.404   2.704   5.308 -0.9621  0.5767 -0.5574
  154DOPC  H12R18485   5.486   2.780   5.308 -0.2089 -0.1885 -2.3064
  154DOPC  H12S18486   5.313   2.760   5.340 -0.5122  1.0067  0.0173
  154DOPC  C21318487   5.377   2.656   5.163  0.2430 -0.0056 -0.3974
  154DOPC  H13R18488   5.475   2.615   5.130  1.3935  0.1343  2.5504
  154DOPC  H13S18489   5.368   2.743   5.095  0.1416  0.0159 -0.3579
  154DOPC  C21418490   5.276   2.552   5.138  0.2155  0.4355  0.0297
  154DOPC  H14R18491   5.182   2.608   5.158  0.0946  1.8809 -3.7252
  154DOPC  H14S18492   5.286   2.462   5.201  0.1268  1.0592  0.9488
  154DOPC  C21518493   5.289   2.499   4.988  0.6022  0.2760 -0.1014
  154DOPC  H15R18494   5.391   2.459   4.969  0.4354  0.7343 -2.1686
  154DOPC  H15S18495   5.283   2.587   4.920  0.4805 -0.2515 -0.7890
  154DOPC  C21618496   5.180   2.406   4.937  0.1212 -0.1137  0.3804
  154DOPC  H16R18497   5.085   2.464   4.939 -0.0013 -0.2707 -0.3752
  154DOPC  H16S18498   5.173   2.312   4.996 -0.8370  0.0036  0.4768
  154DOPC  C21718499   5.205   2.352   4.793  0.7295 -1.1617  0.2664
  154DOPC  H17R18500   5.302   2.301   4.812  0.9142 -1.1624 -0.6231
  154DOPC  H17S18501   5.228   2.430   4.717  1.1362  0.4446  1.9769
  154DOPC  C21818502   5.110   2.254   4.742  0.2138  0.3295  0.4964
  154DOPC  H18R18503   5.118   2.151   4.784  0.6599 -0.5431 -1.6125
  154DOPC  H18S18504   5.127   2.237   4.634 -0.6164 -2.5209  0.7378
  154DOPC  H18T18505   5.003   2.279   4.759  0.0359 -0.0076 -0.1100
  154DOPC   C3318506   4.537   1.988   6.441 -0.4349 -0.1592  0.2617
  154DOPC   H3X18507   4.496   1.957   6.539  1.1136 -2.1204  0.3635
  154DOPC   H3Y18508   4.626   1.923   6.423 -0.6242 -0.0318 -1.2334
  154DOPC   C3418509   4.426   1.970   6.343 -0.4369 -0.1554  1.0957
  154DOPC   H4X18510   4.357   2.053   6.368  1.6617  1.4065  1.9595
  154DOPC   H4Y18511   4.377   1.870   6.350  1.6548 -1.1404  2.4933
  154DOPC   C3518512   4.468   2.003   6.193  0.3510 -0.3383  0.3172
  154DOPC   H5X18513   4.538   1.920   6.167 -1.0780 -1.6273  0.4075
  154DOPC   H5Y18514   4.515   2.103   6.202 -0.3506 -0.0549  0.9145
  154DOPC   C3618515   4.358   2.006   6.082 -0.4770  0.1943 -0.8805
  154DOPC   H6X18516   4.290   2.082   6.127  0.6097  1.4801 -1.3689
  154DOPC   H6Y18517   4.408   2.039   5.988  0.0884  0.0446 -0.6342
  154DOPC   C3718518   4.292   1.873   6.063  0.4204 -0.3198 -0.1681
  154DOPC   H7X18519   4.263   1.829   6.161 -2.3645  1.1383 -0.2284
  154DOPC   H7Y18520   4.201   1.902   6.006  0.7886 -1.2627 -1.2880
  154DOPC   C3818521   4.384   1.775   5.985  0.1721  0.1356 -0.7690
  154DOPC   H8X18522   4.461   1.750   6.062 -0.4702  1.0648  0.1913
  154DOPC   H8Y18523   4.441   1.826   5.904  1.8543  0.8082  0.7620
  154DOPC   C3918524   4.295   1.666   5.924 -0.4223  0.0397  0.5254
  154DOPC   H9X18525   4.271   1.574   5.980 -0.2552 -0.6901 -0.5643
  154DOPC  C31018526   4.233   1.685   5.807  0.2675  0.5452  0.5614
  154DOPC  H10X18527   4.156   1.611   5.780 -0.0940  1.5038 -1.1129
  154DOPC  C31118528   4.249   1.793   5.702  0.7610  0.2017  0.4135
  154DOPC  H11X18529   4.294   1.759   5.606 -2.3606  1.9410 -1.8252
  154DOPC  H11Y18530   4.302   1.879   5.748  1.3088 -0.7260  1.5949
  154DOPC  C31218531   4.105   1.837   5.655 -0.0685  0.2325 -0.8718
  154DOPC  H12X18532   4.072   1.893   5.745 -0.5328 -3.3828  1.3936
  154DOPC  H12Y18533   4.036   1.751   5.639 -0.0261 -0.1191  0.6557
  154DOPC  C31318534   4.104   1.932   5.531 -0.5198 -0.8008  0.4911
  154DOPC  H13X18535   4.171   1.889   5.454  0.8869  0.5160  0.9361
  154DOPC  H13Y18536   4.003   1.938   5.485 -0.1879 -0.2467 -0.1888
  154DOPC  C31418537   4.155   2.075   5.550 -0.0296 -0.7402  0.3266
  154DOPC  H14X18538   4.246   2.072   5.613 -0.2706  0.3258  0.7394
  154DOPC  H14Y18539   4.172   2.129   5.455 -2.7171 -0.4152 -0.0429
  154DOPC  C31518540   4.045   2.160   5.618 -0.3788  0.7835 -0.7987
  154DOPC  H15X18541   3.993   2.111   5.703  0.6573  0.3425 -0.4060
  154DOPC  H15Y18542   3.957   2.182   5.554 -0.0873  0.6769 -1.2373
  154DOPC  C31618543   4.096   2.294   5.678 -0.1416 -0.0925 -0.0569
  154DOPC  H16X18544   4.130   2.350   5.589 -0.3888  0.1368 -0.0092
  154DOPC  H16Y18545   4.007   2.342   5.723  0.1033 -0.9486  1.4106
  154DOPC  C31718546   4.197   2.276   5.796  0.0244 -0.0575 -0.0479
  154DOPC  H17X18547   4.276   2.204   5.764  0.8472 -0.5928  2.9034
  154DOPC  H17Y18548   4.264   2.365   5.803  0.8436 -0.6567 -0.0517
  154DOPC  C31818549   4.134   2.251   5.936 -0.0564  0.4464 -0.3676
  154DOPC  H18X18550   4.206   2.266   6.019  1.2411  1.4914 -1.6505
  154DOPC  H18Y18551   4.047   2.316   5.962  0.1878 -0.5197  3.4660
  154DOPC  H18Z18552   4.096   2.146   5.939 -1.4325  0.9441  0.9265
  155DOPC     N18553   1.861   2.100   6.937 -0.3169  0.3043  0.1734
  155DOPC   C1218554   1.937   1.999   6.857  0.0107 -0.3856  0.5673
  155DOPC  H12A18555   2.043   2.005   6.878  0.2857 -1.4102 -0.4193
  155DOPC  H12B18556   1.922   2.020   6.752  0.4894  1.4551  0.8285
  155DOPC   C1318557   1.894   2.241   6.899  0.1548  0.1456  0.0052
  155DOPC  H13A18558   2.002   2.248   6.905  0.2023  0.7856 -1.1372
  155DOPC  H13B18559   1.852   2.274   6.805 -3.3487 -1.2083  0.9551
  155DOPC  H13C18560   1.844   2.306   6.970 -1.5550 -1.4564  0.3241
  155DOPC   C1418561   1.870   2.085   7.086 -1.0132  0.1735  0.7189
  155DOPC  H14A18562   1.821   2.166   7.139 -1.9146  1.0240 -1.3143
  155DOPC  H14B18563   1.855   1.982   7.114  0.7212  0.0871  1.4166
  155DOPC  H14C18564   1.969   2.110   7.119  0.3157 -1.8490 -1.4452
  155DOPC   C1518565   1.720   2.081   6.894 -0.2435  0.2521  0.2797
  155DOPC  H15A18566   1.655   2.159   6.929  0.2802  1.5266 -1.4634
  155DOPC  H15B18567   1.677   1.998   6.948 -0.5847  0.5922  0.5310
  155DOPC  H15C18568   1.711   2.061   6.788  0.0189 -1.3203  0.5259
  155DOPC   C1118569   1.903   1.849   6.887 -0.2445 -0.1927  1.4425
  155DOPC  H11A18570   1.808   1.824   6.836  1.1447 -1.4030 -0.7361
  155DOPC  H11B18571   1.981   1.790   6.833  0.4830 -0.2132  2.4775
  155DOPC     P18572   1.792   1.716   7.085  0.1756 -0.5120 -0.0170
  155DOPC   O1318573   1.664   1.781   7.105 -0.3416 -0.0269 -0.4761
  155DOPC   O1418574   1.859   1.654   7.197 -0.4055  0.0685  0.3993
  155DOPC   O1218575   1.900   1.814   7.024 -0.2064 -0.2857 -0.4874
  155DOPC   O1118576   1.772   1.605   6.977  0.3833 -0.5838 -0.1684
  155DOPC    C118577   1.641   1.555   6.953 -0.2155 -0.4420  0.0741
  155DOPC    HA18578   1.598   1.625   6.878  0.5719 -0.2691 -0.2176
  155DOPC    HB18579   1.578   1.545   7.044 -2.6009 -2.3403 -1.6625
  155DOPC    C218580   1.638   1.407   6.895  0.3133 -0.0688  0.0965
  155DOPC    HS18581   1.670   1.340   6.977  3.3546  0.7108 -0.3168
  155DOPC   O2118582   1.734   1.389   6.787 -0.0592  0.2364  0.1604
  155DOPC   C2118583   1.754   1.279   6.730 -0.3101  0.7091  0.1904
  155DOPC   O2218584   1.719   1.166   6.768  0.5084  0.7122  0.0120
  155DOPC   C2218585   1.831   1.308   6.601 -0.8282 -0.1339  0.2230
  155DOPC   H2R18586   1.918   1.368   6.634 -1.7143  1.7020 -0.6480
  155DOPC   H2S18587   1.766   1.365   6.531 -0.6809  0.7841  0.8199
  155DOPC    C318588   1.495   1.351   6.859  0.0092  0.5460 -0.2289
  155DOPC    HX18589   1.434   1.372   6.950  3.0923 -1.6470  2.5742
  155DOPC    HY18590   1.492   1.240   6.847 -2.1155  0.4222  0.8028
  155DOPC   O3118591   1.452   1.410   6.741 -0.5325  0.5879  0.5002
  155DOPC   C3118592   1.321   1.401   6.719  0.2827 -0.0566 -0.0601
  155DOPC   O3218593   1.239   1.346   6.791 -0.0184 -0.2968 -0.0808
  155DOPC   C3218594   1.281   1.467   6.582 -0.7142 -0.2048 -0.5300
  155DOPC   H2X18595   1.173   1.446   6.576 -0.9484  0.6873  0.3574
  155DOPC   H2Y18596   1.294   1.577   6.592  1.0272 -0.3447 -0.8728
  155DOPC   C2318597   1.892   1.185   6.522  0.6379  0.2470  0.2518
  155DOPC   H3R18598   1.824   1.145   6.444  0.8432 -0.8136  0.5944
  155DOPC   H3S18599   1.909   1.103   6.595 -0.4363  0.1045  0.3494
  155DOPC   C2418600   2.027   1.214   6.449  0.0313 -0.9955 -0.1510
  155DOPC   H4R18601   2.092   1.272   6.518 -1.4194 -0.3036  0.6877
  155DOPC   H4S18602   2.001   1.294   6.377 -0.5058 -0.2831  0.8041
  155DOPC   C2518603   2.098   1.086   6.404  0.2665  0.0786  0.5386
  155DOPC   H5R18604   2.140   1.035   6.494  0.8966  0.2053  0.3213
  155DOPC   H5S18605   2.178   1.122   6.336 -0.0841  2.0266  1.1079
  155DOPC   C2618606   2.016   0.986   6.324  0.1528 -0.2054 -0.3578
  155DOPC   H6R18607   1.965   1.034   6.238 -2.1561 -1.5137  0.1861
  155DOPC   H6S18608   1.943   0.935   6.390  0.0540 -0.6939 -0.8318
  155DOPC   C2718609   2.098   0.868   6.268  0.4451  0.3367  0.0340
  155DOPC   H7R18610   2.158   0.816   6.345 -0.1146 -0.2570  0.0746
  155DOPC   H7S18611   2.163   0.913   6.190 -1.1834 -0.9691 -2.1831
  155DOPC   C2818612   2.017   0.765   6.185  0.3834  0.0668  0.4762
  155DOPC   H8R18613   1.969   0.818   6.100  0.6273  0.1146  0.3661
  155DOPC   H8S18614   1.935   0.720   6.245 -1.2295 -0.1892 -1.7865
  155DOPC   C2918615   2.083   0.640   6.127  0.4835  0.3464  0.0754
  155DOPC   H9R18616   2.115   0.559   6.194 -0.4800  1.2449  1.6886
  155DOPC  C21018617   2.104   0.611   5.995  0.2265  0.3195 -0.8098
  155DOPC  H10R18618   2.153   0.517   5.964 -0.6762  0.1694 -1.8533
  155DOPC  C21118619   2.064   0.681   5.868  0.1819  0.1475  0.1610
  155DOPC  H11R18620   2.089   0.789   5.871  0.0157  0.1594  1.9873
  155DOPC  H11S18621   1.953   0.675   5.859 -0.0448  0.5575  2.2558
  155DOPC  C21218622   2.136   0.615   5.754 -0.9456 -0.0177  0.7616
  155DOPC  H12R18623   2.130   0.504   5.754 -0.9703 -0.0204  2.0370
  155DOPC  H12S18624   2.244   0.638   5.749 -1.1428  0.9243  0.5832
  155DOPC  C21318625   2.086   0.667   5.614  0.0277  0.3793 -0.6350
  155DOPC  H13R18626   2.123   0.772   5.618 -2.0782  1.2458 -1.9450
  155DOPC  H13S18627   1.977   0.650   5.608  0.3004 -2.2560  0.3470
  155DOPC  C21418628   2.162   0.610   5.493  0.1934  0.6658 -0.4935
  155DOPC  H14R18629   2.175   0.500   5.503  1.9533  0.7846 -1.0948
  155DOPC  H14S18630   2.261   0.659   5.483 -0.2177  1.3077 -1.5294
  155DOPC  C21518631   2.090   0.632   5.363  0.2281  0.0026  1.1154
  155DOPC  H15R18632   2.073   0.741   5.348  0.3168  0.0359  1.2610
  155DOPC  H15S18633   1.992   0.580   5.368  0.9761 -1.5908  0.0330
  155DOPC  C21618634   2.165   0.585   5.235 -0.0522 -0.7841 -0.4769
  155DOPC  H16R18635   2.121   0.487   5.208  0.7839 -1.2370 -0.2469
  155DOPC  H16S18636   2.269   0.553   5.259  0.3261  0.0829 -0.9096
  155DOPC  C21718637   2.151   0.673   5.113 -0.6206  0.0375  0.6367
  155DOPC  H17R18638   2.192   0.774   5.132 -1.9484  0.4782  1.3048
  155DOPC  H17S18639   2.045   0.683   5.079 -0.2268  0.9715 -0.3558
  155DOPC  C21818640   2.239   0.615   5.001  0.2233 -0.7444  0.0741
  155DOPC  H18R18641   2.345   0.609   5.034  0.3116 -0.7725 -0.2077
  155DOPC  H18S18642   2.231   0.674   4.907  1.7837 -0.1440  0.2841
  155DOPC  H18T18643   2.206   0.512   4.976  2.0717 -0.8887 -2.0632
  155DOPC   C3318644   1.355   1.415   6.461 -0.1752 -0.3426 -0.4836
  155DOPC   H3X18645   1.332   1.306   6.455 -1.8642  0.0607 -2.2550
  155DOPC   H3Y18646   1.464   1.432   6.467 -0.2303  0.0162 -0.4726
  155DOPC   C3418647   1.315   1.495   6.340  0.1693  0.3381  0.7677
  155DOPC   H4X18648   1.331   1.604   6.355  0.6600  0.5820 -1.1769
  155DOPC   H4Y18649   1.208   1.475   6.320  0.2339 -2.2654  2.6491
  155DOPC   C3518650   1.388   1.446   6.210 -0.0621 -0.1789 -0.5934
  155DOPC   H5X18651   1.367   1.339   6.187 -0.9034 -0.2152  0.3253
  155DOPC   H5Y18652   1.495   1.448   6.242 -0.3750 -0.7733  0.5356
  155DOPC   C3618653   1.378   1.538   6.088 -0.6111  0.0034  0.5960
  155DOPC   H6X18654   1.277   1.524   6.045  0.2892 -1.2397 -1.2401
  155DOPC   H6Y18655   1.394   1.643   6.123 -0.2526  0.2843 -0.3939
  155DOPC   C3718656   1.473   1.499   5.974 -0.3031 -0.0469 -0.5122
  155DOPC   H7X18657   1.553   1.442   6.026 -0.1200  0.8401  0.2066
  155DOPC   H7Y18658   1.421   1.425   5.909 -0.1319  0.5198 -1.3062
  155DOPC   C3818659   1.521   1.618   5.899 -0.4298 -0.2270  0.2811
  155DOPC   H8X18660   1.556   1.695   5.971  0.5226  0.0313 -0.4411
  155DOPC   H8Y18661   1.424   1.657   5.861 -0.0101  1.2264  0.6289
  155DOPC   C3918662   1.624   1.592   5.794 -0.4256  0.0248  0.1462
  155DOPC   H9X18663   1.723   1.580   5.842 -1.2064 -1.3715  1.5086
  155DOPC  C31018664   1.601   1.596   5.663  0.0605  0.4438  0.0174
  155DOPC  H10X18665   1.679   1.556   5.596 -1.0409  1.2942 -1.8352
  155DOPC  C31118666   1.468   1.620   5.587  0.6075 -0.3988 -0.2226
  155DOPC  H11X18667   1.486   1.680   5.495 -0.4584 -0.8605 -0.7641
  155DOPC  H11Y18668   1.390   1.664   5.653  1.8059  2.0732 -0.3336
  155DOPC  C31218669   1.410   1.484   5.542 -0.1582 -1.0115 -0.0053
  155DOPC  H12X18670   1.386   1.432   5.637  1.1841 -0.0063  0.9226
  155DOPC  H12Y18671   1.490   1.427   5.492 -0.7554 -3.1919  1.3699
  155DOPC  C31318672   1.286   1.502   5.463  0.2464 -0.0231  0.6891
  155DOPC  H13X18673   1.225   1.410   5.478  1.0725 -0.5739  0.7380
  155DOPC  H13Y18674   1.223   1.583   5.506 -0.5564 -0.8688  1.1628
  155DOPC  C31418675   1.326   1.513   5.315  0.9766  0.2124 -0.0376
  155DOPC  H14X18676   1.399   1.597   5.312  0.2482  0.9055  0.8635
  155DOPC  H14Y18677   1.373   1.418   5.282 -2.2161 -1.8833  0.9664
  155DOPC  C31518678   1.203   1.534   5.225 -0.4949  0.3826 -0.2500
  155DOPC  H15X18679   1.137   1.600   5.285  0.0303  1.4766 -0.8470
  155DOPC  H15Y18680   1.159   1.433   5.214 -0.9175  0.2436  2.2493
  155DOPC  C31618681   1.228   1.603   5.095 -0.5700  0.5542 -0.3118
  155DOPC  H16X18682   1.296   1.691   5.102 -0.1012  0.3768 -1.9823
  155DOPC  H16Y18683   1.277   1.524   5.034 -0.0143  1.1884 -0.6990
  155DOPC  C31718684   1.101   1.649   5.035  0.2453  0.3455 -0.1717
  155DOPC  H17X18685   1.033   1.561   5.039 -1.3518  1.4843 -0.7482
  155DOPC  H17Y18686   1.048   1.725   5.097 -0.2079 -1.1386  1.3179
  155DOPC  C31818687   1.116   1.699   4.888  0.1853 -0.4295  0.2456
  155DOPC  H18X18688   1.207   1.763   4.884  0.1579 -0.2913  1.3951
  155DOPC  H18Y18689   1.141   1.611   4.826 -0.9829 -0.8342  0.3328
  155DOPC  H18Z18690   1.025   1.754   4.856 -0.6714 -2.4350 -0.9111
  156DOPC     N18691   6.308   4.837   7.019 -0.1179  0.5037  0.4175
  156DOPC   C1218692   6.295   4.796   6.868  0.3616 -0.2726 -0.5092
  156DOPC  H12A18693   6.220   4.719   6.860 -1.2802  1.1798  0.2881
  156DOPC  H12B18694   6.384   4.753   6.822 -2.0629 -1.0586 -5.0193
  156DOPC   C1318695   6.179   4.872   7.081 -0.8541  0.9788  0.2531
  156DOPC  H13A18696   6.148   4.967   7.038 -1.9591  0.8942  0.8252
  156DOPC  H13B18697   6.101   4.799   7.065  0.2542 -0.5985  1.6907
  156DOPC  H13C18698   6.174   4.892   7.187 -0.7260  0.8368  0.2864
  156DOPC   C1418699   6.413   4.939   7.031  0.4288 -0.0556  1.1869
  156DOPC  H14A18700   6.382   5.035   6.991 -0.9905 -0.5089  1.1481
  156DOPC  H14B18701   6.450   4.954   7.132  0.2064 -0.3351  1.3098
  156DOPC  H14C18702   6.493   4.910   6.964 -0.9461 -0.7633 -0.2077
  156DOPC   C1518703   6.356   4.711   7.092 -0.3450  0.5516  0.0072
  156DOPC  H15A18704   6.274   4.640   7.090 -1.2625  1.6017 -1.2605
  156DOPC  H15B18705   6.374   4.737   7.195 -0.1525 -0.3476  0.2093
  156DOPC  H15C18706   6.450   4.675   7.054 -2.0966 -3.2835 -1.1866
  156DOPC   C1118707   6.241   4.901   6.769 -0.2441 -0.3225  0.2245
  156DOPC  H11A18708   6.308   4.990   6.773 -0.3120 -0.2905  0.6251
  156DOPC  H11B18709   6.259   4.855   6.669  0.4399  0.2690  0.0619
  156DOPC     P18710   5.997   4.840   6.738 -0.0889  0.2684  0.1146
  156DOPC   O1318711   5.869   4.908   6.763 -1.1003 -0.1747  0.0232
  156DOPC   O1418712   6.019   4.710   6.800  0.1596 -0.3104 -0.4452
  156DOPC   O1218713   6.107   4.937   6.792 -0.2807 -0.1377 -0.2405
  156DOPC   O1118714   6.009   4.829   6.581 -1.0073  0.1816 -0.3049
  156DOPC    C118715   6.020   4.948   6.503 -0.0716 -0.1148 -0.3586
  156DOPC    HA18716   6.090   4.921   6.421 -1.7943 -3.5716 -0.8786
  156DOPC    HB18717   6.073   5.029   6.559 -0.1128  0.8916 -1.7135
  156DOPC    C218718   5.888   4.992   6.433  0.0154  0.2207  0.3078
  156DOPC    HS18719   5.825   5.005   6.523  0.7091 -2.7887  1.3400
  156DOPC   O2118720   5.836   4.881   6.360  0.2284  0.3034 -0.4593
  156DOPC   C2118721   5.717   4.894   6.304 -0.2141 -0.3228 -1.4285
  156DOPC   O2218722   5.632   4.975   6.337  0.2211 -0.0090  0.1166
  156DOPC   C2218723   5.708   4.798   6.190  0.1573 -0.7199 -0.4304
  156DOPC   H2R18724   5.676   4.699   6.231  0.8197 -0.5120  0.6154
  156DOPC   H2S18725   5.813   4.784   6.157  0.3502 -3.3265  0.9592
  156DOPC    C318726   5.902   5.122   6.346 -0.3947  0.1812 -1.3512
  156DOPC    HX18727   5.799   5.161   6.329 -0.3280  2.0262  1.7535
  156DOPC    HY18728   5.942   5.089   6.248 -1.0368 -1.9305 -0.9502
  156DOPC   O3118729   5.988   5.218   6.405 -0.7397 -0.3685  0.5001
  156DOPC   C3118730   5.925   5.318   6.472 -0.8439  0.2728  0.5791
  156DOPC   O3218731   5.806   5.334   6.465  0.2175  0.6115  0.0038
  156DOPC   C3218732   6.023   5.398   6.560 -0.0005 -0.4001  0.5862
  156DOPC   H2X18733   5.991   5.503   6.577  1.8973  0.9905 -3.3984
  156DOPC   H2Y18734   6.027   5.338   6.654  1.3135 -0.4605  0.5019
  156DOPC   C2318735   5.622   4.863   6.084 -0.1673  0.0755  0.0237
  156DOPC   H3R18736   5.528   4.890   6.135  1.0587 -0.1626  2.5451
  156DOPC   H3S18737   5.603   4.800   5.994 -1.5686  1.2385 -0.5362
  156DOPC   C2418738   5.682   4.990   6.019 -0.0122  0.6936 -0.3450
  156DOPC   H4R18739   5.682   5.070   6.095  0.2046 -0.0891  0.5003
  156DOPC   H4S18740   5.607   5.026   5.945 -0.1550  0.7559 -0.1694
  156DOPC   C2518741   5.820   4.977   5.947  0.1749  0.2742  0.0078
  156DOPC   H5R18742   5.821   4.904   5.862  1.1248  0.6326 -0.2954
  156DOPC   H5S18743   5.897   4.936   6.016  1.5321  1.9182 -0.4657
  156DOPC   C2618744   5.886   5.106   5.906  0.4238 -0.5203 -0.1672
  156DOPC   H6R18745   5.992   5.098   5.873  0.5584 -0.5187  0.2587
  156DOPC   H6S18746   5.895   5.168   5.998  2.8733 -2.8710  1.3145
  156DOPC   C2718747   5.807   5.178   5.795 -0.2871 -0.4204  0.0102
  156DOPC   H7R18748   5.706   5.206   5.832 -0.0300  1.2723 -0.4879
  156DOPC   H7S18749   5.792   5.118   5.702 -0.0628 -0.4243 -0.0234
  156DOPC   C2818750   5.864   5.310   5.736  0.1681 -0.4964 -0.3544
  156DOPC   H8R18751   5.957   5.289   5.678  0.5870  2.4063 -0.8605
  156DOPC   H8S18752   5.897   5.385   5.811 -0.9459  1.9527 -2.1661
  156DOPC   C2918753   5.767   5.383   5.643  0.1756 -0.3053 -0.6008
  156DOPC   H9R18754   5.672   5.401   5.697  0.4573 -0.1253 -0.1548
  156DOPC  C21018755   5.782   5.410   5.509 -0.3712 -0.0699 -0.6818
  156DOPC  H10R18756   5.697   5.449   5.452  0.3242 -1.2396 -2.6036
  156DOPC  C21118757   5.914   5.404   5.439 -0.0678  0.5511  0.1721
  156DOPC  H11R18758   5.917   5.322   5.363 -0.0758  0.0786  0.6744
  156DOPC  H11S18759   5.990   5.371   5.513 -0.5157 -0.3797  0.2322
  156DOPC  C21218760   5.954   5.539   5.380  0.2477 -0.1474 -0.0805
  156DOPC  H12R18761   6.063   5.547   5.364  0.0088 -0.1564 -1.9131
  156DOPC  H12S18762   5.941   5.611   5.464 -0.7655  1.3790 -1.5044
  156DOPC  C21318763   5.877   5.588   5.257 -0.2092  0.4183 -0.1608
  156DOPC  H13R18764   5.901   5.696   5.245 -1.1664  0.5802 -0.6622
  156DOPC  H13S18765   5.768   5.589   5.279 -0.4055  2.2977 -1.0666
  156DOPC  C21418766   5.911   5.501   5.134  0.8476  0.2919  0.4603
  156DOPC  H14R18767   5.885   5.396   5.159 -1.1324  1.0548  1.8522
  156DOPC  H14S18768   6.021   5.494   5.123  0.7573 -0.4456 -0.0553
  156DOPC  C21518769   5.842   5.558   5.010 -0.2271  0.4517 -0.6307
  156DOPC  H15R18770   5.900   5.648   4.978  1.0565 -0.3568 -0.6661
  156DOPC  H15S18771   5.738   5.593   5.026  0.3308  1.5484  0.8446
  156DOPC  C21618772   5.838   5.451   4.901  0.1896  0.1745 -0.7225
  156DOPC  H16R18773   5.764   5.379   4.942  1.6582 -0.6485  0.5890
  156DOPC  H16S18774   5.937   5.400   4.896 -1.2244 -2.7138 -1.8759
  156DOPC  C21718775   5.799   5.502   4.764 -0.2057 -0.7900 -0.2211
  156DOPC  H17R18776   5.858   5.587   4.724 -1.3583 -0.2674 -0.8864
  156DOPC  H17S18777   5.694   5.537   4.778 -0.8687 -2.3515 -1.0362
  156DOPC  C21818778   5.794   5.386   4.660  0.6975  0.2010 -0.0412
  156DOPC  H18R18779   5.894   5.339   4.658  0.6388  0.0625  0.2214
  156DOPC  H18S18780   5.753   5.419   4.562  0.6967 -2.4650 -1.0394
  156DOPC  H18T18781   5.725   5.308   4.700 -0.1644  1.3090  0.6927
  156DOPC   C3318782   6.168   5.414   6.499  0.1520  0.5525  0.2396
  156DOPC   H3X18783   6.206   5.313   6.473 -0.2238  0.0850  1.4166
  156DOPC   H3Y18784   6.233   5.444   6.584 -0.7822 -1.3526  1.7107
  156DOPC   C3418785   6.194   5.518   6.387  0.5943 -0.0286  0.0299
  156DOPC   H4X18786   6.301   5.513   6.356  0.4908 -1.6914 -0.1432
  156DOPC   H4Y18787   6.165   5.621   6.415 -1.5146  0.2057 -2.5487
  156DOPC   C3518788   6.106   5.485   6.260  0.1722 -0.1495  0.3150
  156DOPC   H5X18789   6.001   5.516   6.272  0.3818  1.6365 -1.7947
  156DOPC   H5Y18790   6.115   5.377   6.236  2.0422  0.1405 -0.4961
  156DOPC   C3618791   6.175   5.551   6.137  0.2727  0.4569 -0.0257
  156DOPC   H6X18792   6.193   5.660   6.140 -0.9682  0.6903 -0.3882
  156DOPC   H6Y18793   6.281   5.516   6.143  0.1397 -0.2947 -1.5847
  156DOPC   C3718794   6.105   5.504   6.008 -0.9811 -0.5014 -0.1649
  156DOPC   H7X18795   6.071   5.401   6.031 -1.2725 -0.4709 -0.4531
  156DOPC   H7Y18796   6.020   5.571   5.986  0.1753  1.2045  0.3752
  156DOPC   C3818797   6.206   5.490   5.895 -0.1142  0.6745 -0.4027
  156DOPC   H8X18798   6.157   5.425   5.820 -1.0176 -0.5601  1.2070
  156DOPC   H8Y18799   6.292   5.424   5.921 -0.0845  0.8416 -0.0723
  156DOPC   C3918800   6.255   5.625   5.834  0.1628  0.7033  0.3952
  156DOPC   H9X18801   6.175   5.698   5.850 -3.4112 -3.1400  2.2197
  156DOPC  C31018802   6.359   5.647   5.753  0.8908  0.2237 -0.5068
  156DOPC  H10X18803   6.375   5.753   5.726  0.9160  0.1604 -0.7482
  156DOPC  C31118804   6.457   5.537   5.712 -0.2811  0.4960  0.1296
  156DOPC  H11X18805   6.420   5.432   5.716 -1.2228  0.8565  2.5440
  156DOPC  H11Y18806   6.539   5.531   5.788 -0.7366 -0.8478  0.5423
  156DOPC  C31218807   6.522   5.568   5.578 -0.3875  0.1388  0.2906
  156DOPC  H12X18808   6.564   5.669   5.596 -1.0621  0.2679  1.2543
  156DOPC  H12Y18809   6.438   5.578   5.507 -1.1053  1.2054  1.2496
  156DOPC  C31318810   6.628   5.468   5.536  0.2860 -0.7322 -0.4866
  156DOPC  H13X18811   6.591   5.364   5.554 -1.8374 -0.0545 -0.6080
  156DOPC  H13Y18812   6.664   5.487   5.433  0.5952  1.5698 -0.0131
  156DOPC  C31418813   6.757   5.477   5.618 -0.1283 -0.4191  0.0110
  156DOPC  H14X18814   6.812   5.566   5.583  1.7288 -2.1471 -1.7575
  156DOPC  H14Y18815   6.740   5.486   5.728  1.6821  1.3543  0.2047
  156DOPC  C31518816   6.852   5.356   5.594  0.3222 -0.1804  0.1158
  156DOPC  H15X18817   6.864   5.351   5.484 -2.0325  1.9713 -0.3490
  156DOPC  H15Y18818   6.805   5.261   5.628  0.2512 -0.8233 -1.6789
  156DOPC  C31618819   6.999   5.383   5.646 -0.1802  0.7319  0.0202
  156DOPC  H16X18820   6.992   5.432   5.745  0.8075 -0.4348  0.6825
  156DOPC  H16Y18821   7.049   5.285   5.660  2.8511  2.1575 -0.0030
  156DOPC  C31718822   7.089   5.454   5.546  0.6547 -1.1513  0.6329
  156DOPC  H17X18823   7.087   5.425   5.439  0.7453  1.4246 -0.1393
  156DOPC  H17Y18824   7.043   5.555   5.550 -1.2940 -2.0040  0.7342
  156DOPC  C31818825   7.235   5.465   5.589 -0.0578  0.6760 -0.4202
  156DOPC  H18X18826   7.244   5.536   5.674 -0.0183 -0.3430  0.4441
  156DOPC  H18Y18827   7.278   5.367   5.617  0.5342  1.2628  0.8309
  156DOPC  H18Z18828   7.296   5.496   5.501 -0.5244 -0.2967 -1.0961
  157DOPC     N18829   5.538   0.313   7.194 -0.4138 -0.1439 -0.0958
  157DOPC   C1218830   5.569   0.274   7.047  0.1906 -0.7098  0.1948
  157DOPC  H12A18831   5.560   0.167   7.032 -1.0615 -0.4005 -1.5908
  157DOPC  H12B18832   5.673   0.293   7.025 -0.5019  1.3925 -1.6397
  157DOPC   C1318833   5.575   0.451   7.221  0.6012 -0.9651 -0.2561
  157DOPC  H13A18834   5.528   0.517   7.149 -2.2475 -0.3468  2.0121
  157DOPC  H13B18835   5.539   0.482   7.317  1.8611 -2.5618  0.7870
  157DOPC  H13C18836   5.683   0.461   7.224  0.5019  1.0820 -1.3485
  157DOPC   C1418837   5.628   0.227   7.282  0.4797 -0.3285  0.6760
  157DOPC  H14A18838   5.643   0.125   7.248 -0.6650 -0.3165  0.0840
  157DOPC  H14B18839   5.719   0.284   7.283 -1.7591  3.6621 -0.4447
  157DOPC  H14C18840   5.598   0.231   7.386 -0.7879 -2.8878  0.4879
  157DOPC   C1518841   5.397   0.277   7.227 -1.0469  0.0176  0.7192
  157DOPC  H15A18842   5.376   0.281   7.333  1.4625 -1.2773  1.3468
  157DOPC  H15B18843   5.385   0.171   7.210  2.4210 -0.3048 -0.4141
  157DOPC  H15C18844   5.327   0.330   7.164  0.2283  0.5296 -0.3009
  157DOPC   C1118845   5.481   0.348   6.942 -0.1431 -0.5410  0.1773
  157DOPC  H11A18846   5.477   0.457   6.964 -4.4407 -0.9797  2.9016
  157DOPC  H11B18847   5.541   0.333   6.850  1.1605 -0.4677  0.9915
  157DOPC     P18848   5.297   0.226   6.821  0.3915  0.2643 -0.3542
  157DOPC   O1318849   5.154   0.196   6.836 -0.0462  0.4303 -0.2421
  157DOPC   O1418850   5.386   0.106   6.805  0.3378  0.4469  0.6716
  157DOPC   O1218851   5.344   0.297   6.951 -0.2449  0.4971  0.1805
  157DOPC   O1118852   5.313   0.330   6.706  0.5700  0.1004  0.4737
  157DOPC    C118853   5.281   0.468   6.724  0.3976  0.3736 -0.1768
  157DOPC    HA18854   5.365   0.535   6.697 -0.6072  1.8217  0.1585
  157DOPC    HB18855   5.261   0.493   6.831 -0.5288 -1.5286  0.1371
  157DOPC    C218856   5.171   0.512   6.617  0.1390 -0.0057 -0.7665
  157DOPC    HS18857   5.078   0.473   6.664 -0.2260 -1.8388 -2.8792
  157DOPC   O2118858   5.202   0.451   6.494 -0.0877  0.2297  0.3100
  157DOPC   C2118859   5.144   0.335   6.459 -0.0200 -0.0140 -0.4060
  157DOPC   O2218860   5.049   0.285   6.513 -0.4290 -0.1848 -0.5472
  157DOPC   C2218861   5.245   0.262   6.369 -0.1504  0.8092 -0.3953
  157DOPC   H2R18862   5.312   0.206   6.438 -1.6103 -0.0766  0.3638
  157DOPC   H2S18863   5.295   0.335   6.302 -0.4863  0.4553 -1.0364
  157DOPC    C318864   5.165   0.664   6.610 -0.4234  0.1674 -0.6064
  157DOPC    HX18865   5.264   0.696   6.571 -0.5646 -0.1137 -1.2003
  157DOPC    HY18866   5.156   0.710   6.711 -1.4408  0.1216 -0.6735
  157DOPC   O3118867   5.054   0.705   6.534  0.2387 -0.6004  0.7291
  157DOPC   C3118868   5.079   0.814   6.459  0.3421  0.0399 -0.3499
  157DOPC   O3218869   5.175   0.886   6.462  0.1814 -0.0597  0.3381
  157DOPC   C3218870   4.946   0.846   6.377  0.2462 -0.0072 -0.1291
  157DOPC   H2X18871   4.869   0.774   6.413 -0.1635  1.0108  1.1058
  157DOPC   H2Y18872   4.915   0.948   6.408 -1.1864 -0.9078  1.6485
  157DOPC   C2318873   5.167   0.166   6.274 -0.0723 -0.7488  0.9438
  157DOPC   H3R18874   5.085   0.110   6.325 -1.1424 -0.6656 -0.6225
  157DOPC   H3S18875   5.227   0.082   6.233 -1.6778 -1.0524 -0.9080
  157DOPC   C2418876   5.100   0.244   6.162 -0.3643  0.1792 -0.1491
  157DOPC   H4R18877   5.183   0.303   6.117 -0.0825 -1.2794 -1.6255
  157DOPC   H4S18878   5.026   0.313   6.208 -0.0213  0.1979  0.3821
  157DOPC   C2518879   5.038   0.143   6.061 -0.4561  0.2368 -0.8480
  157DOPC   H5R18880   4.982   0.068   6.120  0.8800  0.3790  0.6613
  157DOPC   H5S18881   5.107   0.073   6.009 -1.6746  0.6086 -3.1077
  157DOPC   C2618882   4.956   0.214   5.953  0.1601 -0.0676  0.1636
  157DOPC   H6R18883   4.875   0.271   6.004  0.4988 -0.8173  1.6039
  157DOPC   H6S18884   4.924   0.128   5.890 -0.0843 -1.1971  1.7727
  157DOPC   C2718885   5.023   0.324   5.864  0.1106 -0.5497 -0.5110
  157DOPC   H7R18886   5.118   0.277   5.832  1.1644  2.1720 -1.7402
  157DOPC   H7S18887   5.043   0.408   5.934 -0.3699 -0.2606 -0.7139
  157DOPC   C2818888   4.950   0.385   5.743 -0.6046  0.9474  0.9706
  157DOPC   H8R18889   5.012   0.467   5.703 -0.6280  0.7194  0.4527
  157DOPC   H8S18890   4.849   0.425   5.766 -1.3767 -0.2757 -0.1047
  157DOPC   C2918891   4.917   0.275   5.644  0.4533  0.0577 -0.1769
  157DOPC   H9R18892   4.850   0.195   5.679  0.2721 -0.6091 -1.9798
  157DOPC  C21018893   4.971   0.262   5.523 -0.6101 -0.0498  0.3516
  157DOPC  H10R18894   4.939   0.175   5.464  1.8176 -1.0583  0.4105
  157DOPC  C21118895   5.075   0.349   5.452  0.3082 -0.4301 -0.5013
  157DOPC  H11R18896   5.161   0.284   5.424  0.0620 -0.2443 -1.7469
  157DOPC  H11S18897   5.111   0.436   5.511 -0.7509  1.1057 -2.0203
  157DOPC  C21218898   5.020   0.406   5.314 -0.6617 -0.2782 -0.3136
  157DOPC  H12R18899   4.964   0.502   5.319  0.5355  0.4908 -1.0529
  157DOPC  H12S18900   4.948   0.339   5.263 -2.0086  0.1524  0.9842
  157DOPC  C21318901   5.148   0.424   5.229  0.5554 -0.4658  1.1060
  157DOPC  H13R18902   5.207   0.331   5.211  0.7852  0.0052 -0.8095
  157DOPC  H13S18903   5.208   0.511   5.262  0.2800  0.0998  0.1319
  157DOPC  C21418904   5.116   0.462   5.082 -0.0212  0.0063 -0.3649
  157DOPC  H14R18905   5.022   0.522   5.079 -0.1442 -0.1654 -0.0445
  157DOPC  H14S18906   5.084   0.370   5.029 -2.2549  0.7907 -0.5204
  157DOPC  C21518907   5.216   0.544   5.011 -0.1661 -0.0091  0.2708
  157DOPC  H15R18908   5.257   0.621   5.080 -1.8363  2.5576 -1.4461
  157DOPC  H15S18909   5.177   0.604   4.926  0.3352 -1.3671 -0.9690
  157DOPC  C21618910   5.337   0.468   4.958  0.3314 -0.1348  0.0099
  157DOPC  H16R18911   5.325   0.407   4.865  0.0079 -1.7224  1.0577
  157DOPC  H16S18912   5.364   0.401   5.042 -0.1141 -0.5363 -0.1642
  157DOPC  C21718913   5.462   0.547   4.940 -0.5075  0.2981 -0.1629
  157DOPC  H17R18914   5.467   0.627   5.017  2.1761  1.3111 -1.2498
  157DOPC  H17S18915   5.458   0.598   4.841 -3.1882  1.6870  0.5881
  157DOPC  C21818916   5.586   0.456   4.928  0.1661 -0.5848  0.8998
  157DOPC  H18R18917   5.574   0.379   4.849 -1.8291 -0.3965  0.9656
  157DOPC  H18S18918   5.598   0.394   5.019  1.8129 -1.8646 -0.1260
  157DOPC  H18T18919   5.685   0.507   4.923  0.5616 -1.2377  1.8580
  157DOPC   C3318920   4.979   0.836   6.221 -0.6630 -0.6948 -0.1718
  157DOPC   H3X18921   5.046   0.917   6.185 -0.7838 -0.9344 -0.9385
  157DOPC   H3Y18922   4.879   0.845   6.172 -0.6326  1.0542  0.0341
  157DOPC   C3418923   5.048   0.710   6.165  0.5187 -0.0026 -0.2570
  157DOPC   H4X18924   4.979   0.626   6.186  0.0969  0.4562  0.2283
  157DOPC   H4Y18925   5.147   0.694   6.212  1.8369  1.2414 -2.4375
  157DOPC   C3518926   5.079   0.721   6.017  0.4399 -0.5443  0.4253
  157DOPC   H5X18927   5.125   0.623   5.991  1.6199 -0.0120  0.4329
  157DOPC   H5Y18928   5.149   0.805   5.998  0.0848 -0.0566  1.2161
  157DOPC   C3618929   4.952   0.739   5.926 -0.3364  0.0769  0.0809
  157DOPC   H6X18930   4.890   0.646   5.933  1.4602 -1.3012 -1.2800
  157DOPC   H6Y18931   4.891   0.826   5.958 -0.0198  0.3738 -0.1231
  157DOPC   C3718932   4.986   0.770   5.777 -0.3529 -0.0690 -0.2100
  157DOPC   H7X18933   5.048   0.863   5.773 -0.1929 -0.2232 -2.5005
  157DOPC   H7Y18934   5.061   0.697   5.741  0.6241  0.5755  0.4536
  157DOPC   C3818935   4.867   0.786   5.688  0.3000  0.2964 -0.2708
  157DOPC   H8X18936   4.811   0.690   5.694  1.6883 -0.5421 -0.2021
  157DOPC   H8Y18937   4.902   0.787   5.582  0.5209  1.6916 -0.2020
  157DOPC   C3918938   4.779   0.902   5.701  0.8722 -0.4796 -0.4733
  157DOPC   H9X18939   4.833   0.998   5.705 -1.3299  0.8313  3.3048
  157DOPC  C31018940   4.642   0.896   5.707  0.7285  0.5316 -0.0588
  157DOPC  H10X18941   4.593   0.994   5.703  0.7324  0.5430  0.1426
  157DOPC  C31118942   4.557   0.769   5.715  0.2504 -0.3392 -0.3034
  157DOPC  H11X18943   4.611   0.691   5.773 -0.6833 -0.3201  0.6235
  157DOPC  H11Y18944   4.553   0.735   5.610  1.2411  0.5134 -0.6368
  157DOPC  C31218945   4.425   0.801   5.784  0.2210 -0.6776  0.4946
  157DOPC  H12X18946   4.375   0.702   5.791  0.2199 -0.6624  0.7391
  157DOPC  H12Y18947   4.364   0.853   5.707 -0.1284  0.6308  1.5974
  157DOPC  C31318948   4.430   0.877   5.918  0.9940  0.0208 -0.2234
  157DOPC  H13X18949   4.487   0.972   5.911 -0.6206  0.9324 -2.0971
  157DOPC  H13Y18950   4.325   0.906   5.941 -0.1094 -1.6648 -2.6929
  157DOPC  C31418951   4.483   0.795   6.039  0.2154  0.3788  0.0867
  157DOPC  H14X18952   4.429   0.698   6.045  1.4412 -0.5624 -2.4308
  157DOPC  H14Y18953   4.593   0.781   6.024  0.3124  0.4768  0.6805
  157DOPC  C31518954   4.467   0.862   6.171  1.0780  0.5251  0.2977
  157DOPC  H15X18955   4.371   0.916   6.187  1.6236  1.0700  1.9807
  157DOPC  H15Y18956   4.548   0.936   6.191  0.1256  0.6807  4.7280
  157DOPC  C31618957   4.470   0.741   6.268  0.0783 -0.3304  0.5004
  157DOPC  H16X18958   4.412   0.648   6.248  2.3528 -1.5258 -1.0385
  157DOPC  H16Y18959   4.576   0.707   6.273 -0.1639 -1.7334 -2.1743
  157DOPC  C31718960   4.423   0.780   6.406 -0.4535 -0.0266  0.2869
  157DOPC  H17X18961   4.317   0.812   6.402 -0.5944 -0.3332  1.2278
  157DOPC  H17Y18962   4.422   0.682   6.459  1.4531  0.8333  2.1143
  157DOPC  C31818963   4.510   0.880   6.485 -0.1880 -0.1449 -0.6406
  157DOPC  H18X18964   4.619   0.862   6.470 -0.5895 -1.2774 -2.5185
  157DOPC  H18Y18965   4.499   0.982   6.442  3.1604  0.4492 -0.3690
  157DOPC  H18Z18966   4.480   0.879   6.592  0.0241 -0.6005 -0.5809
  158DOPC     N18967   4.976   7.000   7.337  0.7836 -0.3626  0.5118
  158DOPC   C1218968   4.884   7.030   7.221  0.5750 -0.4823  0.1012
  158DOPC  H12A18969   4.929   7.108   7.161 -1.7297 -0.4229 -1.7332
  158DOPC  H12B18970   4.799   7.083   7.262  1.1956  0.1346  0.6047
  158DOPC   C1318971   4.928   6.871   7.406 -0.5681 -0.2827 -0.1455
  158DOPC  H13A18972   4.830   6.883   7.451 -0.0920  0.0290  0.8243
  158DOPC  H13B18973   4.938   6.787   7.339  3.4961 -0.3696  0.3665
  158DOPC  H13C18974   4.986   6.836   7.490  2.1298  1.7705 -1.0363
  158DOPC   C1418975   4.966   7.116   7.434  0.6227  0.6121  0.6686
  158DOPC  H14A18976   5.017   7.093   7.526 -0.3342  0.5387  1.1995
  158DOPC  H14B18977   5.008   7.204   7.387 -1.1210  1.5805  0.8227
  158DOPC  H14C18978   4.863   7.135   7.460  1.1133 -0.3819  3.7096
  158DOPC   C1518979   5.117   6.992   7.293 -0.4947 -0.5669 -0.4471
  158DOPC  H15A18980   5.179   6.934   7.361  2.4822 -0.1318 -2.5660
  158DOPC  H15B18981   5.162   7.086   7.264 -0.3289 -0.1391  1.1004
  158DOPC  H15C18982   5.126   6.932   7.204  0.0676  1.7335 -2.0305
  158DOPC   C1118983   4.830   6.910   7.138 -0.1058 -0.2299 -0.1299
  158DOPC  H11A18984   4.738   6.865   7.181  1.2561 -0.4701  2.7983
  158DOPC  H11B18985   4.792   6.979   7.060  1.3677  1.8007  0.8594
  158DOPC     P18986   5.010   6.841   6.959 -0.3558 -0.1248  0.6243
  158DOPC   O1318987   4.997   6.723   6.872  0.5321  0.5893 -0.8470
  158DOPC   O1418988   5.144   6.880   7.001  0.2443  0.2343 -0.1889
  158DOPC   O1218989   4.928   6.822   7.093  0.0028  0.2730  0.1965
  158DOPC   O1118990   4.949   6.968   6.886  0.3044  0.7765  0.3253
  158DOPC    C118991   4.846   6.959   6.787  0.0844 -0.8487 -0.7952
  158DOPC    HA18992   4.762   6.900   6.829 -1.4209  2.2561  0.8869
  158DOPC    HB18993   4.883   6.917   6.691  2.0113  2.6332 -1.7524
  158DOPC    C218994   4.798   7.100   6.753  0.2167 -0.0756  0.9786
  158DOPC    HS18995   4.783   7.152   6.851  2.7409 -0.1498  1.4680
  158DOPC   O2118996   4.677   7.077   6.676  0.3395 -0.4434  1.0704
  158DOPC   C2118997   4.610   7.188   6.659  0.6173  0.5273  0.4578
  158DOPC   O2218998   4.616   7.294   6.716  0.4806 -0.5525 -0.2406
  158DOPC   C2218999   4.497   7.161   6.559  0.3001  0.4469  0.2198
  158DOPC   H2R19000   4.422   7.241   6.576 -1.4617 -1.0517 -0.1710
  158DOPC   H2S19001   4.455   7.063   6.590  1.6773 -0.0283  0.6768
  158DOPC    C319002   4.904   7.175   6.661 -0.0066  0.2157 -0.5738
  158DOPC    HX19003   5.006   7.168   6.703  0.2832 -0.7499 -1.3820
  158DOPC    HY19004   4.877   7.282   6.655 -1.9824 -0.2706 -1.0730
  158DOPC   O3119005   4.920   7.112   6.532  0.1271 -0.1606  0.0470
  158DOPC   C3119006   4.946   7.194   6.431  0.1120  0.0210 -0.0147
  158DOPC   O3219007   4.951   7.317   6.433  0.3343  0.1040 -0.8472
  158DOPC   C3219008   4.960   7.111   6.297 -0.1028  0.7776  0.3625
  158DOPC   H2X19009   4.868   7.135   6.239 -0.2670  0.4663  0.4906
  158DOPC   H2Y19010   5.054   7.152   6.254  1.2177 -3.2620 -1.0970
  158DOPC   C2319011   4.529   7.165   6.403  1.6810  0.2983 -0.6266
  158DOPC   H3R19012   4.619   7.101   6.391  0.8058 -1.0542 -0.2949
  158DOPC   H3S19013   4.553   7.270   6.376  1.0337  0.4375 -0.6810
  158DOPC   C2419014   4.423   7.113   6.312  0.6644 -0.4195 -0.9426
  158DOPC   H4R19015   4.333   7.178   6.320 -0.0302 -1.4360 -0.3296
  158DOPC   H4S19016   4.381   7.017   6.349 -0.6276 -0.0924 -1.4918
  158DOPC   C2519017   4.462   7.100   6.165 -0.1971  0.2208  0.2615
  158DOPC   H5R19018   4.555   7.039   6.156 -0.3357  0.0465 -0.0008
  158DOPC   H5S19019   4.492   7.202   6.132 -0.0575  0.2494  0.4768
  158DOPC   C2619020   4.348   7.055   6.071 -0.3418  0.1821 -0.0426
  158DOPC   H6R19021   4.270   7.123   6.112 -0.6675 -0.9688  1.2998
  158DOPC   H6S19022   4.334   6.950   6.104  1.1531 -0.1680 -0.4458
  158DOPC   C2719023   4.388   7.050   5.926 -0.2938 -0.0634 -0.2164
  158DOPC   H7R19024   4.344   6.963   5.873 -0.8862  0.6066 -0.8351
  158DOPC   H7S19025   4.498   7.034   5.925 -0.6252 -2.8425 -0.5111
  158DOPC   C2819026   4.370   7.177   5.851 -0.1540  0.3728  0.3215
  158DOPC   H8R19027   4.444   7.177   5.767  0.9453  0.2857  1.2616
  158DOPC   H8S19028   4.417   7.252   5.918  2.4888 -1.1528  0.3126
  158DOPC   C2919029   4.237   7.223   5.804 -0.0116 -0.5041 -0.2851
  158DOPC   H9R19030   4.165   7.273   5.871 -1.7815 -0.1482 -2.3513
  158DOPC  C21019031   4.194   7.207   5.673 -0.2508  0.1494  0.2105
  158DOPC  H10R19032   4.097   7.251   5.646 -1.0233 -0.1964  2.2620
  158DOPC  C21119033   4.271   7.149   5.554  0.1852  0.7014 -0.1970
  158DOPC  H11R19034   4.215   7.067   5.505 -0.6979  0.8842  0.4802
  158DOPC  H11S19035   4.360   7.094   5.592  0.9308 -0.2706 -3.1004
  158DOPC  C21219036   4.315   7.262   5.458  0.8721 -0.4612 -0.5343
  158DOPC  H12R19037   4.358   7.347   5.514 -1.4884  1.1218 -0.9798
  158DOPC  H12S19038   4.229   7.311   5.408  0.3253 -0.8908 -0.0300
  158DOPC  C21319039   4.425   7.231   5.358 -0.3013 -0.9429 -0.0981
  158DOPC  H13R19040   4.392   7.150   5.289 -0.7595 -2.1980  1.5389
  158DOPC  H13S19041   4.519   7.206   5.412  1.5932  2.2232 -1.6387
  158DOPC  C21419042   4.466   7.348   5.261  0.2338  0.0132 -0.1339
  158DOPC  H14R19043   4.380   7.381   5.200  0.9576  1.5961 -0.3620
  158DOPC  H14S19044   4.547   7.309   5.196 -1.4492 -0.3518 -2.1251
  158DOPC  C21519045   4.524   7.469   5.327  0.2299 -0.6174  0.3018
  158DOPC  H15R19046   4.598   7.433   5.401  1.7300 -0.8984 -1.2656
  158DOPC  H15S19047   4.445   7.519   5.386  0.5357  1.1178 -0.6849
  158DOPC  C21619048   4.577   7.574   5.217  0.0964  0.5909 -0.0597
  158DOPC  H16R19049   4.505   7.585   5.133  0.6389 -0.9730 -0.7682
  158DOPC  H16S19050   4.664   7.527   5.167 -1.0171 -2.0814  0.3159
  158DOPC  C21719051   4.597   7.715   5.279 -0.2540 -0.0035  0.2425
  158DOPC  H17R19052   4.690   7.764   5.242 -1.0517 -0.4191 -2.5160
  158DOPC  H17S19053   4.612   7.705   5.389  1.4986 -1.4194 -0.0758
  158DOPC  C21819054   4.476   7.805   5.248 -0.0309 -0.4297  0.0638
  158DOPC  H18R19055   4.467   7.897   5.310  0.5971  0.9364 -1.7765
  158DOPC  H18S19056   4.385   7.741   5.250  1.4891 -3.6274 -6.4921
  158DOPC  H18T19057   4.482   7.847   5.145  0.4153 -0.8638 -0.0942
  158DOPC   C3319058   4.976   6.963   6.312  0.1154  0.7360  0.2225
  158DOPC   H3X19059   4.887   6.937   6.374 -0.9464  2.4569 -0.5124
  158DOPC   H3Y19060   5.065   6.944   6.377  0.1440  1.1753  0.3140
  158DOPC   C3419061   4.994   6.893   6.177 -0.5954  0.1067  0.9810
  158DOPC   H4X19062   5.072   6.948   6.120 -0.8662 -0.7300 -0.2312
  158DOPC   H4Y19063   4.901   6.909   6.119  0.8737  3.1579 -0.8072
  158DOPC   C3519064   5.032   6.744   6.184 -0.3673  0.2256 -1.0537
  158DOPC   H5X19065   4.937   6.687   6.195 -0.2814 -0.0367 -1.6542
  158DOPC   H5Y19066   5.094   6.730   6.275 -0.8704  1.8300 -0.4398
  158DOPC   C3619067   5.114   6.695   6.065  0.6959 -0.3544  0.6122
  158DOPC   H6X19068   5.192   6.772   6.046  1.1447 -1.0705 -0.5701
  158DOPC   H6Y19069   5.162   6.596   6.080  0.7246 -0.4796 -0.2472
  158DOPC   C3719070   5.038   6.682   5.936 -0.6304  0.3858  1.1098
  158DOPC   H7X19071   4.936   6.643   5.958 -0.3550 -0.8486  0.2557
  158DOPC   H7Y19072   5.005   6.785   5.908  1.1246  0.3512 -1.4414
  158DOPC   C3819073   5.105   6.606   5.819  0.0852 -0.5058  0.7197
  158DOPC   H8X19074   5.022   6.591   5.746 -0.5398 -0.6342  1.4437
  158DOPC   H8Y19075   5.137   6.503   5.847  1.6993 -0.2307 -0.0038
  158DOPC   C3919076   5.224   6.679   5.763 -0.0355  0.3631  0.0953
  158DOPC   H9X19077   5.304   6.696   5.837  1.2438 -0.6078 -1.0099
  158DOPC  C31019078   5.248   6.697   5.631  0.3850  0.5559 -0.0164
  158DOPC  H10X19079   5.339   6.747   5.595  0.7736  0.8301  1.3045
  158DOPC  C31119080   5.147   6.673   5.518 -0.1639  0.4487 -0.1930
  158DOPC  H11X19081   5.096   6.771   5.502  1.6741  1.4442 -0.2164
  158DOPC  H11Y19082   5.073   6.592   5.537  0.0005  0.3573  0.0553
  158DOPC  C31219083   5.212   6.643   5.384 -0.0899  0.1634  0.2489
  158DOPC  H12X19084   5.308   6.698   5.383 -1.3001  2.4960  1.5425
  158DOPC  H12Y19085   5.136   6.677   5.309  0.3833  0.4516 -0.1038
  158DOPC  C31319086   5.222   6.495   5.339  0.1095  0.0156  0.0619
  158DOPC  H13X19087   5.115   6.470   5.330  0.0242  0.8657 -1.8249
  158DOPC  H13Y19088   5.261   6.490   5.235 -0.0901  0.6965 -0.0497
  158DOPC  C31419089   5.289   6.388   5.427  0.0803 -0.1202 -0.2640
  158DOPC  H14X19090   5.236   6.383   5.524 -0.5185  1.7256 -0.4655
  158DOPC  H14Y19091   5.264   6.292   5.377 -1.6711 -1.3531  2.7601
  158DOPC  C31519092   5.434   6.406   5.442 -0.3930  0.9134 -0.2811
  158DOPC  H15X19093   5.466   6.497   5.498  1.1447 -0.3403  0.9507
  158DOPC  H15Y19094   5.485   6.417   5.344  0.5183  2.7385  0.3464
  158DOPC  C31619095   5.497   6.287   5.519  0.5500  0.0974 -0.8806
  158DOPC  H16X19096   5.449   6.273   5.618  1.4974 -0.0072 -0.4280
  158DOPC  H16Y19097   5.469   6.204   5.450  0.8874  0.4415 -1.4395
  158DOPC  C31719098   5.650   6.290   5.525  0.1339 -0.3824  0.0200
  158DOPC  H17X19099   5.680   6.186   5.500 -2.3432 -1.3226  0.6463
  158DOPC  H17Y19100   5.686   6.350   5.439 -1.1224 -0.4138 -0.5530
  158DOPC  C31819101   5.712   6.326   5.663  0.0819  0.5666 -0.7385
  158DOPC  H18X19102   5.819   6.296   5.661 -0.2453 -1.0932  1.8698
  158DOPC  H18Y19103   5.709   6.432   5.696 -0.4073 -0.0562  1.3552
  158DOPC  H18Z19104   5.665   6.268   5.746 -1.4305  2.4527 -0.2167
  159DOPC     N19105   5.660   1.220   6.952 -0.2013  0.1032  0.1781
  159DOPC   C1219106   5.729   1.162   7.069 -0.0100 -0.1572  0.2477
  159DOPC  H12A19107   5.724   1.238   7.146  4.2897  1.9138 -1.2043
  159DOPC  H12B19108   5.831   1.154   7.034 -0.2197  0.0162 -0.4141
  159DOPC   C1319109   5.704   1.165   6.820  0.3596  0.5122 -0.4034
  159DOPC  H13A19110   5.649   1.202   6.735 -2.3191  0.6436  1.2727
  159DOPC  H13B19111   5.803   1.199   6.792 -0.0085  0.5790 -1.7227
  159DOPC  H13C19112   5.693   1.057   6.820  0.4584  0.4905  0.7739
  159DOPC   C1419113   5.687   1.363   6.945 -0.3454 -0.4243  0.9740
  159DOPC  H14A19114   5.784   1.396   6.910 -0.5741 -0.5102  0.2545
  159DOPC  H14B19115   5.614   1.407   6.879 -0.3922  0.6456  1.7168
  159DOPC  H14C19116   5.672   1.419   7.036  1.9874  2.1692 -0.0869
  159DOPC   C1519117   5.515   1.194   6.962  0.2518  0.0587 -0.2408
  159DOPC  H15A19118   5.507   1.086   6.958  0.3466  0.0779 -1.1671
  159DOPC  H15B19119   5.450   1.239   6.888 -0.0710 -1.9818 -1.2714
  159DOPC  H15C19120   5.476   1.224   7.058 -0.7638 -1.0859 -0.2625
  159DOPC   C1119121   5.691   1.018   7.120 -0.3186  0.7024 -0.2434
  159DOPC  H11A19122   5.760   0.976   7.196 -0.5269 -2.9538 -1.8573
  159DOPC  H11B19123   5.587   1.020   7.160 -0.0589  1.2319  0.4026
  159DOPC     P19124   5.629   0.789   7.004  0.0785 -0.0707 -0.4679
  159DOPC   O1319125   5.509   0.802   6.915 -0.5388  0.2610  0.5089
  159DOPC   O1419126   5.583   0.760   7.141 -0.2833  0.5129  0.2193
  159DOPC   O1219127   5.710   0.930   7.008 -0.1505  0.6956  0.5116
  159DOPC   O1119128   5.727   0.669   6.963 -0.5977 -0.6212 -0.3296
  159DOPC    C119129   5.826   0.689   6.862 -0.4078 -0.5037  0.2889
  159DOPC    HA19130   5.904   0.612   6.880  0.7815  0.6029  0.0511
  159DOPC    HB19131   5.878   0.786   6.878 -0.9640 -0.1770  0.1418
  159DOPC    C219132   5.778   0.673   6.714 -0.3698  0.0353  0.1573
  159DOPC    HS19133   5.691   0.741   6.707 -0.9872 -0.8058 -0.4200
  159DOPC   O2119134   5.748   0.537   6.684  0.0935 -0.6160  0.2566
  159DOPC   C2119135   5.644   0.515   6.602 -0.2088 -0.6598  0.0047
  159DOPC   O2219136   5.573   0.598   6.554  0.6516  0.3449 -0.1024
  159DOPC   C2219137   5.641   0.368   6.566 -0.1571  0.1281 -0.8044
  159DOPC   H2R19138   5.575   0.316   6.638 -0.3882 -0.7843 -1.6655
  159DOPC   H2S19139   5.741   0.322   6.582 -0.0773  0.6987  0.5459
  159DOPC    C319140   5.891   0.712   6.614  0.0621  0.1971  0.3501
  159DOPC    HX19141   5.959   0.625   6.625 -0.9768 -0.4908  1.5693
  159DOPC    HY19142   5.950   0.802   6.644  2.6687 -1.1791 -0.3379
  159DOPC   O3119143   5.840   0.714   6.480  0.0763 -0.4506 -0.2302
  159DOPC   C3119144   5.780   0.826   6.446  0.4437  0.2330 -0.0419
  159DOPC   O3219145   5.750   0.923   6.518 -0.7388  0.3266  0.0345
  159DOPC   C3219146   5.721   0.813   6.299 -0.3219 -0.3438 -1.0423
  159DOPC   H2X19147   5.772   0.726   6.254  0.7034  1.1111 -2.8474
  159DOPC   H2Y19148   5.611   0.801   6.305 -0.2738 -0.0772  1.1177
  159DOPC   C2319149   5.593   0.351   6.429 -0.1210 -0.2973 -0.1422
  159DOPC   H3R19150   5.498   0.406   6.414 -1.1682 -2.1423 -0.6213
  159DOPC   H3S19151   5.563   0.244   6.420  2.5581 -1.1555  0.3568
  159DOPC   C2419152   5.700   0.384   6.325 -0.0493  0.1459  1.0137
  159DOPC   H4R19153   5.787   0.319   6.344 -0.2172  0.0077  1.3232
  159DOPC   H4S19154   5.737   0.488   6.338  0.3601 -0.0866  1.7225
  159DOPC   C2519155   5.648   0.367   6.177 -0.4401 -0.4674  0.2336
  159DOPC   H5R19156   5.598   0.269   6.161 -0.5437 -0.1050 -2.0077
  159DOPC   H5S19157   5.726   0.373   6.097 -1.6209 -1.2653 -1.0126
  159DOPC   C2619158   5.554   0.485   6.134 -0.0508  0.5264  0.4714
  159DOPC   H6R19159   5.610   0.581   6.129 -0.5314  0.9868  2.9940
  159DOPC   H6S19160   5.475   0.494   6.211  0.5273 -0.3833  1.1910
  159DOPC   C2719161   5.495   0.458   5.990 -0.0451 -0.0858  0.0486
  159DOPC   H7R19162   5.439   0.362   6.001  1.6711 -1.2260 -0.7867
  159DOPC   H7S19163   5.576   0.433   5.919 -2.1430 -1.9515 -1.8533
  159DOPC   C2819164   5.406   0.564   5.925 -0.7819 -0.0922 -0.4837
  159DOPC   H8R19165   5.318   0.577   5.992 -0.9508  0.6151 -0.8432
  159DOPC   H8S19166   5.373   0.510   5.834 -0.4273 -1.5379  0.1992
  159DOPC   C2919167   5.463   0.697   5.884  0.0407  0.0473 -0.3181
  159DOPC   H9R19168   5.500   0.758   5.967 -1.4899  0.9069 -0.2312
  159DOPC  C21019169   5.469   0.750   5.763  0.1464  0.4788 -0.1440
  159DOPC  H10R19170   5.534   0.837   5.753  1.9106 -0.2987  3.0823
  159DOPC  C21119171   5.404   0.699   5.638  0.7646 -0.0808  0.9403
  159DOPC  H11R19172   5.296   0.722   5.624  0.5496 -1.6842 -0.3819
  159DOPC  H11S19173   5.416   0.590   5.619 -0.3657 -0.0232 -0.2528
  159DOPC  C21219174   5.469   0.771   5.511  0.4177  0.1057 -0.6357
  159DOPC  H12R19175   5.479   0.879   5.535 -2.7094  0.4690 -0.5831
  159DOPC  H12S19176   5.401   0.750   5.426  0.9151  0.0914 -1.0330
  159DOPC  C21319177   5.603   0.713   5.488 -0.5809  0.2453  0.2111
  159DOPC  H13R19178   5.595   0.602   5.489  2.7713 -0.1176  1.7956
  159DOPC  H13S19179   5.677   0.732   5.569  0.1791 -1.8964  0.0972
  159DOPC  C21419180   5.665   0.769   5.356 -0.1051  0.1597  0.1012
  159DOPC  H14R19181   5.706   0.869   5.380  0.9206  0.0810 -1.2111
  159DOPC  H14S19182   5.577   0.784   5.290 -0.1211  2.6848  0.6253
  159DOPC  C21519183   5.777   0.683   5.293  0.5034  0.3798 -0.3481
  159DOPC  H15R19184   5.723   0.589   5.270 -1.6081  1.7808 -1.4371
  159DOPC  H15S19185   5.857   0.658   5.366  0.5243 -2.2846 -1.1827
  159DOPC  C21619186   5.840   0.765   5.178 -0.1246  0.2916  0.0984
  159DOPC  H16R19187   5.856   0.871   5.208  1.1293  0.7855 -2.1414
  159DOPC  H16S19188   5.765   0.760   5.097 -1.9897 -1.7346  1.8225
  159DOPC  C21719189   5.979   0.709   5.129 -0.6325 -0.0184  0.2055
  159DOPC  H17R19190   5.961   0.613   5.078 -0.3984  0.9084 -1.6952
  159DOPC  H17S19191   6.043   0.698   5.219 -2.0704  2.5747  1.6996
  159DOPC  C21819192   6.049   0.800   5.032  0.3836  0.5757  0.0017
  159DOPC  H18R19193   5.983   0.835   4.950 -0.3472  0.8646  0.7008
  159DOPC  H18S19194   6.151   0.769   4.999 -0.4972  0.1200 -2.4683
  159DOPC  H18T19195   6.066   0.892   5.093 -1.3222  0.9395 -0.0241
  159DOPC   C3319196   5.757   0.942   6.215 -0.8783  0.3895  0.7153
  159DOPC   H3X19197   5.867   0.959   6.220 -0.7716  0.8057 -1.7623
  159DOPC   H3Y19198   5.710   1.036   6.250 -1.7135  0.0291  0.5786
  159DOPC   C3419199   5.709   0.916   6.065  0.5798  0.2425 -0.1197
  159DOPC   H4X19200   5.598   0.924   6.070  0.6124  0.0441  1.1579
  159DOPC   H4Y19201   5.735   0.815   6.028 -2.1558 -0.5549 -0.0860
  159DOPC   C3519202   5.773   1.016   5.980 -0.4967 -0.7510  1.0584
  159DOPC   H5X19203   5.883   1.003   5.986 -0.2465  0.0307 -0.8849
  159DOPC   H5Y19204   5.761   1.121   6.016  1.9637  0.5330 -1.4731
  159DOPC   C3619205   5.728   1.014   5.834 -0.0607 -0.0497  0.4949
  159DOPC   H6X19206   5.744   0.910   5.798  0.2146  0.2606 -0.2852
  159DOPC   H6Y19207   5.621   1.042   5.832 -0.5813 -1.9535 -0.4322
  159DOPC   C3719208   5.799   1.130   5.765 -0.0816  0.2201 -0.0148
  159DOPC   H7X19209   5.770   1.224   5.818 -4.0621 -0.6289 -0.3617
  159DOPC   H7Y19210   5.909   1.121   5.770 -0.2549 -3.7668 -0.3960
  159DOPC   C3819211   5.762   1.139   5.617 -0.2643 -0.4630  0.3424
  159DOPC   H8X19212   5.651   1.138   5.609 -0.2410 -0.2892 -0.0121
  159DOPC   H8Y19213   5.799   1.048   5.564  0.9019  1.4358 -2.3277
  159DOPC   C3919214   5.823   1.270   5.564  0.3244  0.5240 -0.0003
  159DOPC   H9X19215   5.821   1.352   5.638 -1.2796  0.4451  0.0779
  159DOPC  C31019216   5.897   1.287   5.452  0.0646 -0.1863  0.3343
  159DOPC  H10X19217   5.936   1.386   5.425  1.1469 -1.3951 -3.1565
  159DOPC  C31119218   5.902   1.182   5.342  0.3093  0.6327  0.0884
  159DOPC  H11X19219   5.880   1.078   5.377 -0.6920  0.6915 -0.3251
  159DOPC  H11Y19220   6.000   1.176   5.291 -0.0929 -0.5272 -0.5774
  159DOPC  C31219221   5.813   1.211   5.226 -0.0304  1.0919 -0.3362
  159DOPC  H12X19222   5.709   1.202   5.263 -0.0826  1.3176 -0.4250
  159DOPC  H12Y19223   5.831   1.148   5.137 -2.6102 -0.8742  0.4207
  159DOPC  C31319224   5.827   1.353   5.166 -0.5054  0.1148  0.2584
  159DOPC  H13X19225   5.773   1.367   5.070 -0.9789 -0.2789  0.4636
  159DOPC  H13Y19226   5.788   1.428   5.239  0.3576  1.5176 -0.6755
  159DOPC  C31419227   5.973   1.389   5.139 -0.1658  0.1016  0.1655
  159DOPC  H14X19228   6.032   1.379   5.232 -0.3610  0.0501  0.2838
  159DOPC  H14Y19229   6.025   1.316   5.072  0.1146 -1.0970  1.6243
  159DOPC  C31519230   5.978   1.536   5.083  0.6413 -0.3210 -0.1403
  159DOPC  H15X19231   6.083   1.564   5.061  1.6022 -1.5723  2.4323
  159DOPC  H15Y19232   5.936   1.603   5.161  0.0168  0.1086 -0.8337
  159DOPC  C31619233   5.904   1.564   4.949 -0.2027  0.1087  0.0895
  159DOPC  H16X19234   5.939   1.491   4.873 -0.7671  1.8947 -1.9903
  159DOPC  H16Y19235   5.797   1.537   4.961 -1.3099  3.2586 -1.6548
  159DOPC  C31719236   5.903   1.711   4.896 -0.4585  0.5261  0.3491
  159DOPC  H17X19237   5.832   1.723   4.811 -0.9175  1.4374  0.8457
  159DOPC  H17Y19238   5.870   1.784   4.973 -1.4509  0.5397 -0.0731
  159DOPC  C31819239   6.037   1.759   4.839 -0.4448  0.5427 -0.0268
  159DOPC  H18X19240   6.121   1.716   4.898 -0.4800  0.0606 -0.3197
  159DOPC  H18Y19241   6.055   1.729   4.733 -0.2604  0.5006  0.0166
  159DOPC  H18Z19242   6.043   1.870   4.846  2.3472  0.4488  0.4135
  160DOPC     N19243   1.035   5.331   6.876 -0.3495 -0.0756 -0.3834
  160DOPC   C1219244   1.030   5.284   6.729  0.2298  0.4850 -0.7108
  160DOPC  H12A19245   1.003   5.180   6.725 -0.1941  0.6387 -2.3889
  160DOPC  H12B19246   1.132   5.278   6.691 -0.0740  0.7318 -1.5931
  160DOPC   C1319247   0.918   5.288   6.956 -0.3474  0.3203  0.0682
  160DOPC  H13A19248   0.930   5.308   7.062 -0.8128  0.3633  0.1165
  160DOPC  H13B19249   0.823   5.330   6.927 -1.5230 -2.0390  0.2934
  160DOPC  H13C19250   0.911   5.181   6.943  1.1313  0.3096 -0.8760
  160DOPC   C1419251   1.049   5.482   6.884  0.7538  0.1396  0.1636
  160DOPC  H14A19252   1.062   5.495   6.991  0.0933  0.2380  0.2377
  160DOPC  H14B19253   1.136   5.516   6.831 -0.4531  0.9152 -1.4094
  160DOPC  H14C19254   0.959   5.523   6.840  0.9648  1.5202  0.9477
  160DOPC   C1519255   1.151   5.264   6.935 -0.1249 -0.3649  1.2262
  160DOPC  H15A19256   1.177   5.302   7.032  0.1915 -0.1839  1.0719
  160DOPC  H15B19257   1.231   5.285   6.866 -1.0412 -1.1536 -0.1250
  160DOPC  H15C19258   1.145   5.156   6.938 -2.4204 -0.4388 -1.3327
  160DOPC   C1119259   0.931   5.355   6.641  0.4421  0.0074  0.0431
  160DOPC  H11A19260   0.964   5.459   6.624  0.4435  0.2844  1.5897
  160DOPC  H11B19261   0.935   5.309   6.540 -1.0349 -1.5094  0.6288
  160DOPC     P19262   0.711   5.220   6.686 -0.3718  0.3073  0.0051
  160DOPC   O1319263   0.602   5.226   6.789  0.4154 -0.6713 -0.0323
  160DOPC   O1419264   0.799   5.099   6.699 -0.1895 -0.4649  0.3597
  160DOPC   O1219265   0.795   5.353   6.696  0.1065  0.0731  0.2455
  160DOPC   O1119266   0.659   5.223   6.536  0.7123  0.5711 -0.0195
  160DOPC    C119267   0.621   5.354   6.485  0.2503  0.2553 -0.3302
  160DOPC    HA19268   0.714   5.414   6.477  1.1221 -1.1796 -1.4538
  160DOPC    HB19269   0.552   5.410   6.551 -2.2316 -2.1060 -0.7632
  160DOPC    C219270   0.545   5.361   6.341 -0.1108 -0.2795 -0.4539
  160DOPC    HS19271   0.477   5.276   6.361  1.8523 -1.0919  4.0235
  160DOPC   O2119272   0.644   5.349   6.245 -1.3293 -0.1300  0.4306
  160DOPC   C2119273   0.617   5.262   6.150  0.5550  0.0485 -0.2841
  160DOPC   O2219274   0.508   5.207   6.139 -0.2351  0.0934  0.0518
  160DOPC   C2219275   0.737   5.221   6.070  0.6741 -0.3186  0.1060
  160DOPC   H2R19276   0.719   5.128   6.012  1.5755  0.1818 -0.9995
  160DOPC   H2S19277   0.819   5.204   6.143  0.4331  2.3537  1.1310
  160DOPC    C319278   0.463   5.493   6.331  0.1082 -0.5521 -0.4033
  160DOPC    HX19279   0.532   5.577   6.353  0.6751 -1.1258  0.0822
  160DOPC    HY19280   0.398   5.485   6.421  0.6964  1.5792  0.2581
  160DOPC   O3119281   0.391   5.504   6.208 -0.6195  0.1663  0.2210
  160DOPC   C3119282   0.256   5.501   6.213  0.5497  0.0239 -0.5408
  160DOPC   O3219283   0.189   5.476   6.315 -0.1413  0.8586  0.6517
  160DOPC   C3219284   0.199   5.557   6.091  0.1615 -0.3523 -0.6947
  160DOPC   H2X19285   0.279   5.559   6.014  0.8049 -0.4539 -0.0399
  160DOPC   H2Y19286   0.109   5.499   6.063 -1.4387  1.7789 -0.2391
  160DOPC   C2319287   0.792   5.329   5.977 -0.4514 -0.2593  0.1363
  160DOPC   H3R19288   0.830   5.413   6.038  0.9700 -2.1996  2.0689
  160DOPC   H3S19289   0.708   5.373   5.920 -1.4355 -1.4048  0.6564
  160DOPC   C2419290   0.909   5.285   5.888  0.2117  0.5675  0.6512
  160DOPC   H4R19291   0.876   5.204   5.818  0.7693 -0.5853  1.6828
  160DOPC   H4S19292   0.991   5.240   5.948  0.6828  0.4983 -0.0206
  160DOPC   C2519293   0.976   5.393   5.798 -0.1437  0.5872  0.3816
  160DOPC   H5R19294   0.902   5.454   5.743 -1.8028 -2.1044 -0.5161
  160DOPC   H5S19295   1.032   5.337   5.720  1.6112 -1.3532  2.8783
  160DOPC   C2619296   1.075   5.486   5.876  0.2056  0.2675  0.3501
  160DOPC   H6R19297   1.148   5.421   5.929  1.7936  2.2891  0.7683
  160DOPC   H6S19298   1.012   5.545   5.946 -1.2800 -2.4256  1.4156
  160DOPC   C2719299   1.139   5.591   5.792  0.2128 -0.4366  0.9390
  160DOPC   H7R19300   1.068   5.658   5.738  0.7007  1.1745  2.1877
  160DOPC   H7S19301   1.201   5.528   5.725  0.4378  1.0123 -0.2695
  160DOPC   C2819302   1.236   5.675   5.874  0.5456  0.3500 -0.1261
  160DOPC   H8R19303   1.326   5.714   5.821  0.8615  0.3905  0.4267
  160DOPC   H8S19304   1.276   5.613   5.957  0.7109 -0.3107 -0.6945
  160DOPC   C2919305   1.168   5.793   5.937  0.2654  0.2481 -0.5628
  160DOPC   H9R19306   1.062   5.780   5.965  0.5826 -2.1494 -0.2670
  160DOPC  C21019307   1.221   5.918   5.972  0.0543 -0.0213 -0.5134
  160DOPC  H10R19308   1.152   5.995   6.008 -0.5093  1.2399 -3.9344
  160DOPC  C21119309   1.367   5.965   5.960  1.6120 -0.2945  1.0605
  160DOPC  H11R19310   1.432   5.884   5.922 -1.1613 -0.8378 -3.1281
  160DOPC  H11S19311   1.406   6.007   6.056  0.6736 -1.0668  1.7941
  160DOPC  C21219312   1.390   6.079   5.854  0.4815  0.0891 -0.0360
  160DOPC  H12R19313   1.494   6.117   5.864  0.1489  1.0592 -0.1600
  160DOPC  H12S19314   1.323   6.164   5.879  0.1582  0.5590 -2.2439
  160DOPC  C21319315   1.359   6.040   5.710  0.0124  0.1431  0.4977
  160DOPC  H13R19316   1.249   6.033   5.703  0.0232  0.2689  0.2054
  160DOPC  H13S19317   1.397   5.936   5.704 -0.7552 -0.1311  0.3318
  160DOPC  C21419318   1.423   6.126   5.596 -0.7526 -0.4615 -1.3771
  160DOPC  H14R19319   1.397   6.090   5.494 -0.4763 -1.3120 -1.1603
  160DOPC  H14S19320   1.531   6.127   5.624 -1.0736  1.8710  0.0430
  160DOPC  C21519321   1.390   6.274   5.620  0.4555  0.6511 -0.2827
  160DOPC  H15R19322   1.433   6.304   5.718 -0.6397 -0.7575  0.6697
  160DOPC  H15S19323   1.281   6.291   5.633  0.4390 -0.0527  0.5638
  160DOPC  C21619324   1.453   6.351   5.509  1.3283  0.4138  0.1978
  160DOPC  H16R19325   1.561   6.326   5.502  0.5889 -3.4347  0.3360
  160DOPC  H16S19326   1.440   6.458   5.535 -1.7180  0.3143 -0.5151
  160DOPC  C21719327   1.395   6.317   5.373  0.4663 -0.3439  0.1095
  160DOPC  H17R19328   1.287   6.342   5.381  0.7136  0.4498  1.1028
  160DOPC  H17S19329   1.412   6.210   5.346  1.9295 -0.2758  0.6562
  160DOPC  C21819330   1.468   6.398   5.268 -0.3819  0.2578  0.0671
  160DOPC  H18R19331   1.577   6.378   5.270 -0.3629  0.4132  0.6027
  160DOPC  H18S19332   1.470   6.506   5.291  1.6632  0.0345  1.1241
  160DOPC  H18T19333   1.435   6.380   5.163  0.0506 -0.6568  0.0804
  160DOPC   C3319334   0.150   5.711   6.099  0.3232 -0.8408 -0.1936
  160DOPC   H3X19335   0.232   5.782   6.121  0.8349 -0.5034 -2.8319
  160DOPC   H3Y19336   0.075   5.722   6.181 -2.1008 -2.4136 -2.0324
  160DOPC   C3419337   0.093   5.758   5.966  0.1316  1.0278  0.7052
  160DOPC   H4X19338   0.037   5.853   5.984 -1.5269  0.1837  0.1990
  160DOPC   H4Y19339   0.019   5.685   5.928 -0.1144  1.8185 -0.3768
  160DOPC   C3519340   0.198   5.781   5.861  0.3735 -0.4497  0.3740
  160DOPC   H5X19341   0.252   5.684   5.862  0.5804 -0.3474 -0.3789
  160DOPC   H5Y19342   0.256   5.871   5.892 -3.7306  2.5482  0.2198
  160DOPC   C3619343   0.155   5.838   5.724  0.2376  0.1086  0.1305
  160DOPC   H6X19344   0.096   5.932   5.730 -2.2810 -1.2637 -1.3955
  160DOPC   H6Y19345   0.243   5.858   5.660  1.1443 -0.1052  1.2703
  160DOPC   C3719346   0.061   5.740   5.644 -0.0037  0.2382 -0.0163
  160DOPC   H7X19347   0.088   5.632   5.635  1.2615  0.4865  0.5707
  160DOPC   H7Y19348  -0.034   5.729   5.701  0.2459 -1.0897  0.1945
  160DOPC   C3819349   0.023   5.797   5.506  0.6905  0.3265  0.5056
  160DOPC   H8X19350   0.098   5.749   5.440  2.3227 -0.3173  2.6980
  160DOPC   H8Y19351   0.043   5.906   5.505  0.5626  0.4050  2.4807
  160DOPC   C3919352  -0.124   5.759   5.478 -0.7942 -0.8106  0.3713
  160DOPC   H9X19353  -0.134   5.662   5.427 -0.9485 -0.6151  0.0284
  160DOPC  C31019354  -0.234   5.817   5.529  0.0916 -0.6410 -0.4435
  160DOPC  H10X19355  -0.333   5.775   5.506  0.4238 -0.1277 -3.1372
  160DOPC  C31119356  -0.228   5.941   5.620 -0.0282  0.1697  0.0221
  160DOPC  H11X19357  -0.256   6.033   5.564 -0.1471  0.4936  0.6075
  160DOPC  H11Y19358  -0.124   5.954   5.657  0.2864 -1.4334 -0.2251
  160DOPC  C31219359  -0.319   5.928   5.742  0.0032  0.2541  0.2421
  160DOPC  H12X19360  -0.283   5.999   5.820  0.7082  2.2148 -1.7627
  160DOPC  H12Y19361  -0.306   5.827   5.785  2.9022  0.3054 -0.3068
  160DOPC  C31319362  -0.466   5.956   5.699  0.4400 -0.0401 -0.5830
  160DOPC  H13X19363  -0.472   6.058   5.657  1.0049  0.5614  0.7172
  160DOPC  H13Y19364  -0.512   5.880   5.632  0.5874 -0.0465 -0.6768
  160DOPC  C31419365  -0.560   5.971   5.823  0.1500  0.1446 -0.2746
  160DOPC  H14X19366  -0.517   6.043   5.896  1.5668 -0.2743 -0.6542
  160DOPC  H14Y19367  -0.653   6.021   5.789  1.4927  1.8306 -1.6696
  160DOPC  C31519368  -0.589   5.829   5.896  0.4789 -0.2970 -0.0037
  160DOPC  H15X19369  -0.492   5.775   5.901  0.0859 -1.0609 -0.4195
  160DOPC  H15Y19370  -0.649   5.765   5.827  0.6448 -2.4666  1.7665
  160DOPC  C31619371  -0.661   5.830   6.029  0.4317 -0.0912 -0.1512
  160DOPC  H16X19372  -0.693   5.731   6.068 -3.1293  0.9711 -0.0278
  160DOPC  H16Y19373  -0.609   5.890   6.107  0.6784  1.6964 -1.6420
  160DOPC  C31719374  -0.799   5.903   6.015  0.9423  0.6395  0.3431
  160DOPC  H17X19375  -0.784   5.994   5.954  1.8944 -0.0376 -0.4663
  160DOPC  H17Y19376  -0.871   5.842   5.956 -0.4810 -0.3446  2.8951
  160DOPC  C31819377  -0.860   5.941   6.153 -0.0444  1.3454  0.3081
  160DOPC  H18X19378  -0.899   5.847   6.198 -1.4401  3.4016  3.8250
  160DOPC  H18Y19379  -0.784   5.976   6.227  0.9412  0.9886 -0.5071
  160DOPC  H18Z19380  -0.939   6.018   6.147 -1.5136 -0.0720  0.8080
  161DOPC     N19381   3.074   7.531   6.578 -0.6949  0.8576 -0.0078
  161DOPC   C1219382   3.147   7.429   6.672  0.3813 -0.0066 -0.0639
  161DOPC  H12A19383   3.217   7.479   6.738 -1.7476  1.7999  0.9516
  161DOPC  H12B19384   3.200   7.360   6.608  1.0859  0.1879  0.2961
  161DOPC   C1319385   3.180   7.604   6.502  0.4649  0.6535 -0.2233
  161DOPC  H13A19386   3.244   7.539   6.445  0.1328 -0.3436  0.5001
  161DOPC  H13B19387   3.134   7.670   6.430  0.9596  1.5909  0.3063
  161DOPC  H13C19388   3.235   7.674   6.563  0.4508  1.4118 -1.0616
  161DOPC   C1419389   3.003   7.626   6.672  0.2648  0.3542 -0.3387
  161DOPC  H14A19390   2.960   7.707   6.615  1.5265  0.2348 -1.5347
  161DOPC  H14B19391   2.935   7.575   6.738 -0.5082 -0.0068 -1.3839
  161DOPC  H14C19392   3.084   7.661   6.735 -0.0158  0.1899  0.1122
  161DOPC   C1519393   2.981   7.456   6.482 -0.3082 -0.4292 -1.1013
  161DOPC  H15A19394   3.033   7.370   6.443  0.1538 -0.7645  0.1945
  161DOPC  H15B19395   2.937   7.515   6.403  0.6054  1.5719 -0.1908
  161DOPC  H15C19396   2.901   7.417   6.543  0.1417  0.6499  0.2261
  161DOPC   C1119397   3.056   7.352   6.767  0.3768  0.3184 -0.5207
  161DOPC  H11A19398   3.122   7.298   6.837 -1.1663  0.6819  1.2953
  161DOPC  H11B19399   3.004   7.422   6.836  0.3132 -2.2036  2.1663
  161DOPC     P19400   2.986   7.122   6.670 -0.1151 -0.0421 -0.2235
  161DOPC   O1319401   2.858   7.061   6.623 -0.1925 -0.6948  0.0259
  161DOPC   O1419402   3.059   7.069   6.783 -0.0220  0.3056 -0.0123
  161DOPC   O1219403   2.949   7.270   6.707  0.2210 -0.3345  0.0790
  161DOPC   O1119404   3.088   7.134   6.547  0.9573 -0.3088 -0.1635
  161DOPC    C119405   3.199   7.042   6.550 -0.7818 -0.8861  0.5846
  161DOPC    HA19406   3.181   6.936   6.578  0.7566 -1.8240 -1.6993
  161DOPC    HB19407   3.284   7.085   6.607  0.4873 -0.3325 -1.6005
  161DOPC    C219408   3.256   7.038   6.410  0.4929 -0.5084  0.7883
  161DOPC    HS19409   3.307   7.135   6.390 -0.5520  0.2086  1.4724
  161DOPC   O2119410   3.151   7.019   6.309  0.2241 -0.5942 -0.1545
  161DOPC   C2119411   3.094   7.123   6.244  0.0641  0.3589 -0.3945
  161DOPC   O2219412   3.124   7.241   6.255 -0.2667 -0.0255 -0.3172
  161DOPC   C2219413   3.006   7.058   6.132  0.6430 -0.3337 -0.6772
  161DOPC   H2R19414   2.919   7.126   6.121  0.2657  0.0886  3.4679
  161DOPC   H2S19415   2.968   6.965   6.180 -0.5744 -0.0579 -1.0783
  161DOPC    C319416   3.366   6.938   6.372 -0.0734 -0.4339  0.3452
  161DOPC    HX19417   3.308   6.845   6.392 -0.9483 -0.1466 -0.7173
  161DOPC    HY19418   3.451   6.953   6.441 -0.8984  0.1360  1.2507
  161DOPC   O3119419   3.410   6.934   6.234 -0.3088  0.4368 -0.4484
  161DOPC   C3119420   3.513   6.851   6.220  0.1596 -0.6403 -0.3433
  161DOPC   O3219421   3.574   6.796   6.315  0.1493  0.3308  0.6285
  161DOPC   C3219422   3.549   6.822   6.070  0.3284 -0.9241  0.4051
  161DOPC   H2X19423   3.657   6.848   6.063  0.1248 -0.2289 -0.3199
  161DOPC   H2Y19424   3.539   6.716   6.039 -0.9554 -0.8677  0.5536
  161DOPC   C2319425   3.070   7.071   6.000  0.6024 -0.3654  0.5199
  161DOPC   H3R19426   3.140   6.985   5.987  1.0556  0.0792 -0.0331
  161DOPC   H3S19427   3.131   7.163   5.996  0.4058 -0.1439  2.1503
  161DOPC   C2419428   2.972   7.059   5.877  0.1488  0.1955 -0.4531
  161DOPC   H4R19429   2.891   7.134   5.868  0.8087  0.8369 -1.1622
  161DOPC   H4S19430   2.921   6.960   5.887  0.2665 -0.1116 -2.5355
  161DOPC   C2519431   3.039   7.073   5.731  0.0003 -0.0467 -0.2304
  161DOPC   H5R19432   3.104   6.982   5.731 -1.7990 -1.4126  0.8835
  161DOPC   H5S19433   3.103   7.162   5.717 -0.2781  0.3190  0.7225
  161DOPC   C2619434   2.934   7.061   5.613  0.1017  0.1457 -0.3469
  161DOPC   H6R19435   2.867   7.149   5.624  1.2615  0.9323  0.7835
  161DOPC   H6S19436   2.872   6.969   5.616  1.9549 -1.1622 -0.1399
  161DOPC   C2719437   2.998   7.064   5.476  0.3405 -0.1332 -0.9229
  161DOPC   H7R19438   3.066   6.977   5.476 -1.3331 -1.5385  1.1214
  161DOPC   H7S19439   3.060   7.156   5.467 -0.9526  0.9944  0.7961
  161DOPC   C2819440   2.888   7.049   5.368  0.5554  0.1474 -0.2326
  161DOPC   H8R19441   2.834   7.145   5.351  0.5450  0.0743 -0.6254
  161DOPC   H8S19442   2.816   6.977   5.413 -0.1041  0.0718 -1.3789
  161DOPC   C2919443   2.938   6.997   5.235  0.4528 -0.0138 -0.7222
  161DOPC   H9R19444   3.036   7.040   5.209 -0.8637  1.6874 -3.3586
  161DOPC  C21019445   2.879   6.915   5.147  0.2655  0.2206  0.5675
  161DOPC  H10R19446   2.936   6.885   5.057 -0.8542  0.5880 -0.2882
  161DOPC  C21119447   2.743   6.850   5.165 -0.1476 -0.2887 -0.3254
  161DOPC  H11R19448   2.704   6.882   5.264  0.1455 -0.2948 -0.2068
  161DOPC  H11S19449   2.747   6.739   5.165  1.3478 -0.2809  1.5550
  161DOPC  C21219450   2.640   6.900   5.066 -0.1883  0.8158  0.5928
  161DOPC  H12R19451   2.653   7.010   5.052  0.7138  0.8767  1.7630
  161DOPC  H12S19452   2.539   6.888   5.111  0.5145 -2.4243  1.5311
  161DOPC  C21319453   2.656   6.832   4.928 -0.4080 -0.1117  0.2429
  161DOPC  H13R19454   2.627   6.725   4.919 -4.9354  1.0979 -2.9946
  161DOPC  H13S19455   2.759   6.846   4.887  0.2781 -0.0215  1.8918
  161DOPC  C21419456   2.556   6.894   4.823  0.3252  0.6831 -0.8717
  161DOPC  H14R19457   2.455   6.893   4.869  0.1318  1.3228 -1.2743
  161DOPC  H14S19458   2.557   6.833   4.730  0.8088  1.5608 -1.4458
  161DOPC  C21519459   2.591   7.042   4.792 -0.7087  0.2115  0.3636
  161DOPC  H15R19460   2.594   7.110   4.879 -1.1039  0.5454  0.1206
  161DOPC  H15S19461   2.508   7.075   4.726  0.9571  0.3861 -1.7831
  161DOPC  C21619462   2.727   7.049   4.710  0.1682 -0.2772  0.2769
  161DOPC  H16R19463   2.739   6.966   4.638  2.0141  0.0451  0.1726
  161DOPC  H16S19464   2.811   7.039   4.782 -0.0986 -2.4558  0.3528
  161DOPC  C21719465   2.740   7.172   4.620  0.1695 -0.1545  0.0125
  161DOPC  H17R19466   2.829   7.181   4.554 -0.2127 -0.2410 -0.5315
  161DOPC  H17S19467   2.766   7.259   4.683  3.2513 -0.7453 -0.3026
  161DOPC  C21819468   2.621   7.198   4.527 -0.0765 -0.1573 -0.3528
  161DOPC  H18R19469   2.632   7.286   4.461 -0.9111  1.1410  1.1890
  161DOPC  H18S19470   2.525   7.211   4.580  0.4896 -0.1888  0.7057
  161DOPC  H18T19471   2.597   7.121   4.450 -2.6397  1.2222 -1.0522
  161DOPC   C3319472   3.477   6.919   5.968  0.1852  0.4682  0.3891
  161DOPC   H3X19473   3.487   7.026   5.998  0.3625  0.0873  1.7510
  161DOPC   H3Y19474   3.369   6.893   5.972 -0.0493  1.4379  0.7259
  161DOPC   C3419475   3.520   6.894   5.824  0.1774 -0.1705  0.9163
  161DOPC   H4X19476   3.522   6.784   5.803  3.3085  0.2357 -1.6889
  161DOPC   H4Y19477   3.621   6.936   5.804  0.4446 -0.7315  1.0596
  161DOPC   C3519478   3.432   6.957   5.721 -0.2356 -0.5573  0.6993
  161DOPC   H5X19479   3.407   7.062   5.747 -0.1137 -0.3412 -0.0433
  161DOPC   H5Y19480   3.334   6.905   5.724 -0.9921  0.6316 -1.2402
  161DOPC   C3619481   3.485   6.964   5.582 -0.0191 -0.5280  0.5791
  161DOPC   H6X19482   3.571   7.034   5.577 -0.1098 -0.1989  2.7045
  161DOPC   H6Y19483   3.522   6.861   5.566 -0.6593 -0.5141 -1.3774
  161DOPC   C3719484   3.385   6.996   5.475  0.6879 -0.5377 -0.3213
  161DOPC   H7X19485   3.302   6.924   5.478 -1.4325  1.7856  0.2648
  161DOPC   H7Y19486   3.330   7.092   5.492 -2.2019 -1.4766 -3.3569
  161DOPC   C3819487   3.454   7.003   5.339  0.0829  0.2955 -0.0568
  161DOPC   H8X19488   3.485   6.899   5.315  0.3306  0.0778  1.1736
  161DOPC   H8Y19489   3.550   7.057   5.350  0.6300 -1.1301  3.0402
  161DOPC   C3919490   3.373   7.068   5.229 -0.1663  0.4846  0.2820
  161DOPC   H9X19491   3.377   7.177   5.240 -0.2690  0.4364  0.8451
  161DOPC  C31019492   3.292   7.000   5.138 -0.0782 -0.2001 -0.4551
  161DOPC  H10X19493   3.220   7.051   5.073  0.3582 -0.6173 -1.2785
  161DOPC  C31119494   3.293   6.852   5.116 -0.0895  0.0380 -0.6416
  161DOPC  H11X19495   3.202   6.807   5.160 -0.0970  0.4971 -0.1823
  161DOPC  H11Y19496   3.376   6.805   5.172 -1.4863 -3.1382 -1.0366
  161DOPC  C31219497   3.308   6.813   4.969  0.2310 -0.1730  0.2351
  161DOPC  H12X19498   3.228   6.860   4.907  0.5251 -2.3564 -1.9268
  161DOPC  H12Y19499   3.283   6.705   4.971 -0.0377 -0.1384 -0.8248
  161DOPC  C31319500   3.445   6.851   4.901  1.3337  0.5972  0.2454
  161DOPC  H13X19501   3.451   6.961   4.886 -1.3383  0.5861 -1.5961
  161DOPC  H13Y19502   3.530   6.830   4.969  1.4938  1.8516  0.4713
  161DOPC  C31419503   3.456   6.769   4.772 -0.1091  0.4808 -0.4907
  161DOPC  H14X19504   3.447   6.660   4.792  1.2302  0.3699 -0.4151
  161DOPC  H14Y19505   3.366   6.799   4.715 -1.7773 -0.2149  1.6249
  161DOPC  C31519506   3.586   6.804   4.701 -0.6792  0.8180 -0.9569
  161DOPC  H15X19507   3.665   6.770   4.771 -1.7644 -0.0974 -0.1460
  161DOPC  H15Y19508   3.579   6.915   4.694 -1.4293  0.8706  0.2912
  161DOPC  C31619509   3.612   6.740   4.568 -0.5254 -0.1843  0.6890
  161DOPC  H16X19510   3.614   6.631   4.589 -1.2689  0.1620  2.7495
  161DOPC  H16Y19511   3.529   6.766   4.499  1.4854  4.5346 -0.3103
  161DOPC  C31719512   3.736   6.806   4.500  0.9185 -0.0528 -0.1696
  161DOPC  H17X19513   3.733   6.912   4.533 -3.7427 -0.7102  2.2605
  161DOPC  H17Y19514   3.828   6.752   4.531  1.7974  1.4149 -0.1144
  161DOPC  C31819515   3.743   6.801   4.346  0.5760  0.2717 -0.2829
  161DOPC  H18X19516   3.723   6.700   4.305 -0.2269  0.3623 -0.1144
  161DOPC  H18Y19517   3.679   6.876   4.296  0.6109 -0.4565 -1.4339
  161DOPC  H18Z19518   3.847   6.832   4.319 -0.0377  0.3276 -2.7863
  162DOPC     N19519   7.529   5.091   6.764  0.7125  0.6688  0.3995
  162DOPC   C1219520   7.640   4.999   6.720 -0.6288 -0.0312  0.0043
  162DOPC  H12A19521   7.704   4.986   6.806  0.2035  2.5279 -0.1478
  162DOPC  H12B19522   7.705   5.040   6.644  1.1829 -0.0936  1.4775
  162DOPC   C1319523   7.453   5.155   6.643  0.1117  0.4345  0.5944
  162DOPC  H13A19524   7.523   5.215   6.586 -1.3528  0.8872 -0.8004
  162DOPC  H13B19525   7.429   5.075   6.574  1.7216 -1.0586  1.6639
  162DOPC  H13C19526   7.368   5.213   6.675 -1.7031 -1.0665 -1.1891
  162DOPC   C1419527   7.585   5.196   6.853  0.0399  0.0880 -0.6550
  162DOPC  H14A19528   7.667   5.246   6.803 -0.6737  1.0609 -0.8814
  162DOPC  H14B19529   7.506   5.266   6.877 -0.8063 -1.1194  0.1449
  162DOPC  H14C19530   7.631   5.156   6.942  1.0699  0.3889 -1.0331
  162DOPC   C1519531   7.426   5.017   6.831 -0.0175  0.7031  0.2919
  162DOPC  H15A19532   7.380   4.940   6.771 -0.4289  0.9139  0.3325
  162DOPC  H15B19533   7.344   5.085   6.848 -1.4045 -0.8034 -0.0219
  162DOPC  H15C19534   7.441   4.984   6.933 -2.4280  0.5083  0.6405
  162DOPC   C1119535   7.599   4.863   6.654  0.1048  0.5729  0.9525
  162DOPC  H11A19536   7.519   4.877   6.579  0.8924 -0.9733 -0.2275
  162DOPC  H11B19537   7.687   4.831   6.594  0.9117 -0.6225  2.6952
  162DOPC     P19538   7.493   4.624   6.696 -0.0130  0.0258 -0.1653
  162DOPC   O1319539   7.343   4.633   6.720 -0.0783 -0.4164  0.1986
  162DOPC   O1419540   7.563   4.509   6.761 -0.4942  0.4802  0.2111
  162DOPC   O1219541   7.562   4.758   6.745  0.2846  0.0991  0.6276
  162DOPC   O1119542   7.517   4.617   6.540 -0.1372 -0.0616 -0.6166
  162DOPC    C119543   7.614   4.531   6.488  0.0580  0.0879 -0.0223
  162DOPC    HA19544   7.553   4.449   6.444 -1.4441  2.1796 -2.1504
  162DOPC    HB19545   7.697   4.510   6.558  0.5399  0.0813 -0.5856
  162DOPC    C219546   7.689   4.596   6.368  0.4374  0.0846  0.3969
  162DOPC    HS19547   7.758   4.671   6.412 -1.2352  2.3776 -0.7143
  162DOPC   O2119548   7.595   4.656   6.275 -0.0509  0.3019  0.4529
  162DOPC   C2119549   7.582   4.784   6.268  0.0804 -0.3054  0.4405
  162DOPC   O2219550   7.635   4.863   6.342 -0.2138 -0.1182 -0.0572
  162DOPC   C2219551   7.477   4.820   6.159  0.2700  0.3300  0.2537
  162DOPC   H2R19552   7.378   4.784   6.192 -0.4331  1.0290 -0.9873
  162DOPC   H2S19553   7.503   4.769   6.063 -0.8914  0.8550 -0.3624
  162DOPC    C319554   7.776   4.502   6.280  0.0213  0.2537 -0.0173
  162DOPC    HX19555   7.711   4.423   6.236  1.4016 -0.2955 -1.1631
  162DOPC    HY19556   7.833   4.435   6.349 -1.0443 -0.7110 -0.0449
  162DOPC   O3119557   7.856   4.568   6.178  0.1650  0.5040 -0.4825
  162DOPC   C3119558   7.982   4.590   6.216  0.5610  0.5045 -0.3371
  162DOPC   O3219559   8.036   4.563   6.323 -0.8825  0.7496 -0.2321
  162DOPC   C3219560   8.070   4.636   6.096 -0.5530 -0.2041 -0.1582
  162DOPC   H2X19561   8.178   4.644   6.122 -0.0208  0.7513 -2.4226
  162DOPC   H2Y19562   8.067   4.554   6.020 -1.6704 -0.8866  0.5967
  162DOPC   C2319563   7.467   4.975   6.139 -0.2386  0.2553  0.8320
  162DOPC   H3R19564   7.573   4.993   6.109  0.7283 -1.8823  2.6645
  162DOPC   H3S19565   7.457   5.036   6.232  0.9091  0.3612  0.9101
  162DOPC   C2419566   7.369   5.018   6.032  0.0577  0.0762  0.2619
  162DOPC   H4R19567   7.265   5.009   6.069 -0.3220  1.2810 -0.4519
  162DOPC   H4S19568   7.382   4.962   5.937  0.4021 -0.0170  0.3609
  162DOPC   C2519569   7.394   5.167   5.999 -0.0793  0.1544 -0.1073
  162DOPC   H5R19570   7.402   5.222   6.095  0.1478 -1.8726  1.1144
  162DOPC   H5S19571   7.310   5.212   5.943  0.5498  1.3614 -0.1201
  162DOPC   C2619572   7.522   5.185   5.918 -0.1066 -0.4396  0.2075
  162DOPC   H6R19573   7.549   5.099   5.852  2.6174  0.5479 -0.0724
  162DOPC   H6S19574   7.612   5.199   5.982  0.3820 -1.6957 -0.1662
  162DOPC   C2719575   7.516   5.311   5.825  0.3258  0.2573  0.2288
  162DOPC   H7R19576   7.527   5.397   5.894  0.8947  0.2565  0.1451
  162DOPC   H7S19577   7.421   5.296   5.769  0.2668  1.6396 -0.0811
  162DOPC   C2819578   7.631   5.310   5.718  0.0159  0.2993 -0.3988
  162DOPC   H8R19579   7.636   5.203   5.687  2.2892 -0.0970  1.0658
  162DOPC   H8S19580   7.724   5.338   5.772  0.0008 -0.1216 -0.1465
  162DOPC   C2919581   7.605   5.401   5.597  0.4666 -0.8665  0.7757
  162DOPC   H9R19582   7.605   5.509   5.616 -3.6988 -0.1060 -2.2544
  162DOPC  C21019583   7.571   5.357   5.471 -0.1132 -0.1669 -0.1587
  162DOPC  H10R19584   7.554   5.437   5.398 -1.3184  0.3925  0.7034
  162DOPC  C21119585   7.542   5.217   5.420 -0.0248  0.0846  0.2141
  162DOPC  H11R19586   7.590   5.142   5.487 -0.0093  0.4668  0.6390
  162DOPC  H11S19587   7.585   5.210   5.318 -1.5304  1.0327 -0.5313
  162DOPC  C21219588   7.392   5.194   5.424 -0.7542 -0.1079  0.0115
  162DOPC  H12R19589   7.336   5.281   5.384 -0.5368  0.5572  1.1145
  162DOPC  H12S19590   7.356   5.194   5.529 -0.1467 -2.5894  0.2857
  162DOPC  C21319591   7.343   5.062   5.353 -0.0345  0.2216 -0.3888
  162DOPC  H13R19592   7.396   4.980   5.406  1.6394  1.0454 -0.7041
  162DOPC  H13S19593   7.370   5.059   5.246  0.3797  0.1185 -0.2865
  162DOPC  C21419594   7.192   5.035   5.377  0.4922 -0.1789  0.5675
  162DOPC  H14R19595   7.171   5.022   5.485 -2.8662 -1.2469 -0.1031
  162DOPC  H14S19596   7.174   4.942   5.319  0.5105  1.6154 -2.5030
  162DOPC  C21519597   7.089   5.139   5.320  0.1427 -0.0298 -0.3068
  162DOPC  H15R19598   7.123   5.169   5.219 -0.9681 -0.7074 -0.8915
  162DOPC  H15S19599   7.107   5.230   5.382  1.1050 -1.8559  2.3205
  162DOPC  C21619600   6.951   5.079   5.300  0.1369 -0.1851  0.1006
  162DOPC  H16R19601   6.963   5.001   5.222 -2.5279 -0.3937 -0.2005
  162DOPC  H16S19602   6.895   5.168   5.264 -0.7075  0.1714  2.1642
  162DOPC  C21719603   6.892   5.026   5.434 -0.4474 -0.0109  0.0104
  162DOPC  H17R19604   6.904   5.104   5.514 -0.8787 -0.7640  0.8271
  162DOPC  H17S19605   6.953   4.940   5.467  0.6963 -0.3178 -2.6977
  162DOPC  C21819606   6.738   4.996   5.442 -0.1516  0.4738 -0.2122
  162DOPC  H18R19607   6.714   4.925   5.360  2.8198  0.3946 -1.1320
  162DOPC  H18S19608   6.673   5.086   5.430 -1.4538  0.1935  3.5438
  162DOPC  H18T19609   6.691   4.948   5.530 -0.0603  0.8802  0.0649
  162DOPC   C3319610   8.032   4.770   6.044  0.0775 -0.0302 -0.0470
  162DOPC   H3X19611   8.128   4.822   6.022 -0.4107  0.5278 -0.9313
  162DOPC   H3Y19612   7.989   4.817   6.135  1.8228 -0.1768  0.9104
  162DOPC   C3419613   7.921   4.765   5.943  0.4235  0.0396 -0.4173
  162DOPC   H4X19614   7.830   4.711   5.977 -0.1518  1.7985  1.0166
  162DOPC   H4Y19615   7.960   4.709   5.856  2.4178  3.1514 -1.6574
  162DOPC   C3519616   7.883   4.911   5.920  0.0768  0.1672  0.2001
  162DOPC   H5X19617   7.970   4.980   5.926 -0.9220  1.3799  1.4184
  162DOPC   H5Y19618   7.825   4.951   6.006  1.2601  0.9322  0.6756
  162DOPC   C3619619   7.810   4.931   5.784  0.4093  0.1770 -0.3920
  162DOPC   H6X19620   7.722   4.864   5.765 -0.2170  1.1873 -1.1832
  162DOPC   H6Y19621   7.767   5.033   5.788  0.9660  0.5290 -2.2404
  162DOPC   C3719622   7.904   4.927   5.661  0.2501 -0.2098  0.2555
  162DOPC   H7X19623   7.984   5.003   5.676 -0.0828  0.0256  0.8845
  162DOPC   H7Y19624   7.946   4.824   5.649  1.2216  0.0827  0.9610
  162DOPC   C3819625   7.835   4.964   5.528  0.1239  0.5117  0.4951
  162DOPC   H8X19626   7.773   5.054   5.548 -3.2800 -0.7296 -3.2011
  162DOPC   H8Y19627   7.752   4.895   5.500  0.5238  0.8762 -1.8256
  162DOPC   C3919628   7.928   4.951   5.406 -0.0901  0.3948  0.2303
  162DOPC   H9X19629   7.971   4.850   5.399  2.7882  1.1743  3.8594
  162DOPC  C31019630   7.954   5.045   5.311  0.2237  0.5631  0.1153
  162DOPC  H10X19631   8.026   5.017   5.233 -2.2810 -3.9514 -0.9403
  162DOPC  C31119632   7.898   5.182   5.309 -0.7189 -0.0678 -0.8147
  162DOPC  H11X19633   7.820   5.204   5.384 -0.5302 -1.4494 -0.1977
  162DOPC  H11Y19634   7.849   5.203   5.211 -1.8235 -0.7047 -0.4158
  162DOPC  C31219635   8.001   5.297   5.320 -0.3101  0.3316 -0.1637
  162DOPC  H12X19636   8.069   5.291   5.232  0.4616 -0.9306  0.4943
  162DOPC  H12Y19637   8.065   5.281   5.410 -0.9731 -2.8091 -0.1540
  162DOPC  C31319638   7.936   5.436   5.326  0.1755  0.8730  0.3768
  162DOPC  H13X19639   7.878   5.457   5.234 -2.2468 -0.7403  1.4375
  162DOPC  H13Y19640   7.855   5.427   5.401  1.1491  0.4981  1.4152
  162DOPC  C31419641   8.030   5.558   5.361  0.4142 -0.4126  0.1027
  162DOPC  H14X19642   8.111   5.556   5.285  1.2005  2.5603  0.7194
  162DOPC  H14Y19643   7.978   5.655   5.343  2.0658  0.2882 -1.2724
  162DOPC  C31519644   8.087   5.557   5.504  0.7307  0.3768 -0.4910
  162DOPC  H15X19645   8.122   5.453   5.525 -0.8018 -0.3363 -1.2991
  162DOPC  H15Y19646   8.010   5.567   5.584  0.2059  2.5781 -1.2153
  162DOPC  C31619647   8.188   5.669   5.544  0.3444 -0.2168  1.2073
  162DOPC  H16X19648   8.285   5.673   5.490 -0.1327  2.6263  0.3753
  162DOPC  H16Y19649   8.139   5.767   5.524  1.4901  0.0168 -0.6786
  162DOPC  C31719650   8.227   5.661   5.691 -0.5083  0.4037  0.9011
  162DOPC  H17X19651   8.139   5.668   5.759 -0.2017  2.0067  1.1618
  162DOPC  H17Y19652   8.268   5.559   5.709 -0.2818  0.7088  2.1972
  162DOPC  C31819653   8.327   5.775   5.732  0.0388 -0.5978  0.4185
  162DOPC  H18X19654   8.287   5.875   5.707  0.6915 -0.7396 -1.3398
  162DOPC  H18Y19655   8.340   5.769   5.842  1.3165  2.2167  0.5023
  162DOPC  H18Z19656   8.426   5.768   5.681  0.3612 -0.7474  1.0615
  163DOPC     N19657   6.303   3.100   6.903 -1.1549  0.4134 -0.1771
  163DOPC   C1219658   6.311   2.957   6.952  0.2871  0.2279 -0.5001
  163DOPC  H12A19659   6.252   2.953   7.042  0.8646 -3.6493 -0.1451
  163DOPC  H12B19660   6.409   2.928   6.988 -1.6276 -4.2651  1.8741
  163DOPC   C1319661   6.399   3.113   6.792 -0.3694  0.2094  0.0085
  163DOPC  H13A19662   6.373   3.194   6.726  2.2935  2.1562  1.1726
  163DOPC  H13B19663   6.499   3.129   6.829 -0.3577  2.2859 -0.7632
  163DOPC  H13C19664   6.410   3.020   6.738 -1.1729 -0.9193  1.6790
  163DOPC   C1419665   6.337   3.189   7.011  0.0414 -0.7072  0.2582
  163DOPC  H14A19666   6.267   3.180   7.093  1.3699 -0.0082  1.5169
  163DOPC  H14B19667   6.433   3.171   7.058  0.1095 -2.1220 -0.3667
  163DOPC  H14C19668   6.338   3.292   6.981  0.3738 -0.4611  1.0769
  163DOPC   C1519669   6.163   3.133   6.863 -0.0936 -0.8359  0.4829
  163DOPC  H15A19670   6.149   3.237   6.841 -3.1868 -1.3672 -0.5448
  163DOPC  H15B19671   6.094   3.106   6.941 -0.4088 -2.6493 -0.3610
  163DOPC  H15C19672   6.126   3.075   6.779 -1.9643  0.7726  0.1290
  163DOPC   C1119673   6.262   2.852   6.857 -0.2952 -0.9330  0.3127
  163DOPC  H11A19674   6.263   2.773   6.935  0.1799  1.2515  2.6140
  163DOPC  H11B19675   6.155   2.862   6.827 -0.2924 -2.1912 -0.2317
  163DOPC     P19676   6.477   2.739   6.767 -0.0254 -0.2641 -0.0092
  163DOPC   O1319677   6.433   2.601   6.784  0.3047 -0.4727  0.1045
  163DOPC   O1419678   6.554   2.794   6.881  0.0339  0.0350 -0.3371
  163DOPC   O1219679   6.347   2.827   6.741  0.2811 -0.4590  0.2301
  163DOPC   O1119680   6.564   2.749   6.634  0.2359 -0.0132 -1.1361
  163DOPC    C119681   6.514   2.699   6.508  0.2869  0.2479  0.1782
  163DOPC    HA19682   6.476   2.782   6.444  0.2406  1.8579  2.2077
  163DOPC    HB19683   6.440   2.617   6.518  0.8308 -0.2351  0.2743
  163DOPC    C219684   6.628   2.621   6.433  0.3282 -0.1132 -0.4265
  163DOPC    HS19685   6.678   2.560   6.511  2.4082 -0.5951 -2.0385
  163DOPC   O2119686   6.728   2.714   6.386 -0.0165  0.0353  0.5283
  163DOPC   C2119687   6.840   2.653   6.346 -0.3844  0.8008  0.4021
  163DOPC   O2219688   6.868   2.541   6.390  0.1017  0.6949 -0.2388
  163DOPC   C2219689   6.927   2.737   6.256 -0.0972 -0.3742  0.8515
  163DOPC   H2R19690   6.976   2.817   6.314  1.2768  0.3868 -1.2279
  163DOPC   H2S19691   6.854   2.795   6.194  2.7011  2.1022 -0.3623
  163DOPC    C319692   6.578   2.531   6.319  0.1792  0.0226  0.4243
  163DOPC    HX19693   6.484   2.482   6.352 -0.0148  0.0227 -0.1263
  163DOPC    HY19694   6.663   2.460   6.310  0.9233  0.7422  1.4271
  163DOPC   O3119695   6.556   2.605   6.195  0.4782  0.0286  0.7783
  163DOPC   C3119696   6.439   2.658   6.171 -0.3801 -0.5524  0.5237
  163DOPC   O3219697   6.339   2.639   6.237 -0.1723 -0.4511  0.3118
  163DOPC   C3219698   6.449   2.749   6.046 -0.0242  0.0044  0.7466
  163DOPC   H2X19699   6.343   2.777   6.028 -0.7581 -3.8825 -2.1160
  163DOPC   H2Y19700   6.503   2.836   6.090 -0.4423  0.7567 -0.1879
  163DOPC   C2319701   7.026   2.658   6.169  0.4084 -0.0470 -0.7049
  163DOPC   H3R19702   7.001   2.549   6.164 -0.6956  0.1708 -0.2634
  163DOPC   H3S19703   7.130   2.669   6.208 -0.1349 -2.7388  1.8991
  163DOPC   C2419704   7.031   2.720   6.024  0.7863 -0.0804  0.1482
  163DOPC   H4R19705   7.122   2.689   5.967  1.2429 -0.3319  0.9995
  163DOPC   H4S19706   7.043   2.829   6.038 -1.4110 -0.0806  2.7207
  163DOPC   C2519707   6.906   2.709   5.943  0.4594 -0.0587  0.3327
  163DOPC   H5R19708   6.831   2.771   5.997  1.9571  1.8804  0.3146
  163DOPC   H5S19709   6.872   2.604   5.939 -1.0730  0.3101  2.1881
  163DOPC   C2619710   6.918   2.763   5.794  0.6652 -0.0716 -0.1517
  163DOPC   H6R19711   6.948   2.870   5.800  2.9272 -0.6500 -0.0426
  163DOPC   H6S19712   6.815   2.755   5.754  0.9426 -1.4132 -0.6431
  163DOPC   C2719713   7.011   2.686   5.704 -0.3292  0.2380  0.2846
  163DOPC   H7R19714   6.994   2.578   5.725 -1.2234  0.7111  2.1546
  163DOPC   H7S19715   7.117   2.703   5.732  0.5718 -2.0686 -1.3480
  163DOPC   C2819716   7.003   2.726   5.553 -0.0384 -0.1420 -0.6719
  163DOPC   H8R19717   6.915   2.681   5.503  0.2991 -1.3988 -0.1661
  163DOPC   H8S19718   7.086   2.678   5.496 -0.4043 -0.2143 -1.1543
  163DOPC   C2919719   6.996   2.875   5.538  0.1421  0.0537  0.3584
  163DOPC   H9R19720   7.091   2.925   5.561  0.3912 -1.1558  2.0937
  163DOPC  C21019721   6.889   2.950   5.499 -0.0201 -0.0215  0.4470
  163DOPC  H10R19722   6.892   3.060   5.500 -0.0490 -0.0178 -0.0149
  163DOPC  C21119723   6.755   2.888   5.469 -1.0272 -0.0176  0.0075
  163DOPC  H11R19724   6.673   2.956   5.500  0.0454  0.9084  0.8922
  163DOPC  H11S19725   6.745   2.799   5.536  0.9758 -0.6928 -0.5073
  163DOPC  C21219726   6.719   2.835   5.334  0.1406 -0.4217  0.3854
  163DOPC  H12R19727   6.620   2.788   5.351 -1.2160  1.7990 -0.8850
  163DOPC  H12S19728   6.781   2.747   5.308 -0.4565 -0.1668 -2.1828
  163DOPC  C21319729   6.736   2.934   5.214  0.2988  0.6749 -0.4962
  163DOPC  H13R19730   6.748   2.890   5.113  2.7176  2.3310 -1.0141
  163DOPC  H13S19731   6.824   3.001   5.223  1.8291 -1.3830  0.9616
  163DOPC  C21419732   6.614   3.029   5.207  0.2559  0.5209  0.4886
  163DOPC  H14R19733   6.595   3.086   5.301 -0.9296  1.9527 -0.5727
  163DOPC  H14S19734   6.518   2.974   5.198  0.9577 -0.6297 -0.1410
  163DOPC  C21519735   6.632   3.147   5.110 -0.2708  0.0851  0.2474
  163DOPC  H15R19736   6.685   3.107   5.021 -1.3309  2.5600 -1.5866
  163DOPC  H15S19737   6.688   3.230   5.158  1.3867 -0.5287 -0.5492
  163DOPC  C21619738   6.499   3.203   5.058 -0.1642 -0.2511 -0.5547
  163DOPC  H16R19739   6.455   3.255   5.145 -0.1046  1.1169 -1.3018
  163DOPC  H16S19740   6.435   3.124   5.015  0.3959 -0.5601 -0.8359
  163DOPC  C21719741   6.514   3.319   4.963  0.1753 -0.1182  0.8188
  163DOPC  H17R19742   6.411   3.338   4.926  0.6393  0.9866  0.0495
  163DOPC  H17S19743   6.584   3.297   4.880 -0.3781 -0.2385  0.3837
  163DOPC  C21819744   6.566   3.447   5.025  0.3492  0.1908 -0.6854
  163DOPC  H18R19745   6.488   3.477   5.099  0.5488 -0.8658 -0.0367
  163DOPC  H18S19746   6.551   3.525   4.948 -2.1976  0.8245  0.3255
  163DOPC  H18T19747   6.670   3.436   5.063 -0.7001 -1.1420  2.0846
  163DOPC   C3319748   6.510   2.693   5.924 -0.3687 -0.2029 -0.0592
  163DOPC   H3X19749   6.466   2.596   5.892 -1.1542  0.2687 -0.4430
  163DOPC   H3Y19750   6.617   2.675   5.948  0.2961  1.5969 -1.4336
  163DOPC   C3419751   6.507   2.789   5.812  0.7211 -0.2576  0.5100
  163DOPC   H4X19752   6.587   2.755   5.742  1.0734 -0.2894  0.9246
  163DOPC   H4Y19753   6.547   2.889   5.835  3.7161 -1.5424  1.3520
  163DOPC   C3519754   6.375   2.794   5.730  0.4765  0.9442  0.5848
  163DOPC   H5X19755   6.291   2.821   5.797 -0.7246  0.9045 -0.8680
  163DOPC   H5Y19756   6.357   2.693   5.686 -1.5367  1.7770 -0.6258
  163DOPC   C3619757   6.386   2.894   5.618  0.4688  0.3115  0.7560
  163DOPC   H6X19758   6.424   2.986   5.668  1.8643 -0.5804  1.4112
  163DOPC   H6Y19759   6.459   2.860   5.542  0.0498  0.8862  0.0812
  163DOPC   C3719760   6.255   2.938   5.543 -0.3512  0.4365 -0.7191
  163DOPC   H7X19761   6.197   2.856   5.495 -0.3407  0.4146 -0.6941
  163DOPC   H7Y19762   6.194   3.006   5.607  0.9425  1.3535 -0.4318
  163DOPC   C3819763   6.280   3.017   5.407  0.4020  0.3159  0.2591
  163DOPC   H8X19764   6.191   3.027   5.342  1.5807  0.6095 -1.3760
  163DOPC   H8Y19765   6.346   2.953   5.345 -0.6770 -1.3730  0.7893
  163DOPC   C3919766   6.346   3.149   5.440  0.0440 -0.5860 -0.1653
  163DOPC   H9X19767   6.456   3.152   5.453 -0.1838  1.0351  1.8990
  163DOPC  C31019768   6.284   3.271   5.436 -0.6432 -0.6278 -0.4772
  163DOPC  H10X19769   6.339   3.365   5.448 -0.4353 -0.8714  0.5380
  163DOPC  C31119770   6.133   3.297   5.438 -0.1203  0.0751 -0.0145
  163DOPC  H11X19771   6.097   3.335   5.537 -1.6559  1.3674 -1.0087
  163DOPC  H11Y19772   6.083   3.202   5.412  0.9207 -0.5789  0.3098
  163DOPC  C31219773   6.080   3.392   5.337 -0.7793 -0.3891  0.0276
  163DOPC  H12X19774   6.118   3.492   5.365  1.5539 -1.5660  1.3036
  163DOPC  H12Y19775   5.969   3.387   5.339 -0.7583 -1.1116 -0.1682
  163DOPC  C31319776   6.110   3.348   5.195 -0.0897 -0.5340  1.1259
  163DOPC  H13X19777   6.220   3.347   5.178 -0.4573 -0.7337 -1.8335
  163DOPC  H13Y19778   6.056   3.252   5.183 -1.0004 -0.1242  1.7751
  163DOPC  C31419779   6.069   3.449   5.082  0.2126  0.1423 -0.0197
  163DOPC  H14X19780   6.069   3.387   4.990  3.7604  0.0776 -0.0969
  163DOPC  H14Y19781   5.967   3.486   5.107  0.4247 -0.2438  1.5544
  163DOPC  C31519782   6.163   3.573   5.066 -0.3280 -0.5733  0.2626
  163DOPC  H15X19783   6.269   3.542   5.059  0.0481  0.9144 -1.0281
  163DOPC  H15Y19784   6.140   3.638   5.153 -1.0666 -0.0415 -0.3147
  163DOPC  C31619785   6.146   3.672   4.947  0.3271  0.7000 -0.2422
  163DOPC  H16X19786   6.154   3.604   4.859  1.4536  0.3553  0.1175
  163DOPC  H16Y19787   6.043   3.713   4.947  0.4305  0.9608 -0.1345
  163DOPC  C31719788   6.254   3.781   4.938  0.5575 -0.6282  0.7468
  163DOPC  H17X19789   6.221   3.853   5.017  1.5401  1.5408 -0.7235
  163DOPC  H17Y19790   6.351   3.736   4.968  1.2592  0.2428 -0.1580
  163DOPC  C31819791   6.237   3.847   4.806 -0.7703 -0.1997 -0.0016
  163DOPC  H18X19792   6.287   3.788   4.726  2.4233  0.4057  1.3907
  163DOPC  H18Y19793   6.128   3.848   4.781 -0.6781  0.3366 -0.3973
  163DOPC  H18Z19794   6.290   3.944   4.803  1.1793 -1.2280 -0.1588
  164DOPC     N19795   2.147   1.105   6.902 -0.1195 -0.6834  0.0407
  164DOPC   C1219796   2.202   0.966   6.906 -0.3768 -0.0662 -0.1954
  164DOPC  H12A19797   2.211   0.925   7.006 -1.0007 -1.7860 -0.8151
  164DOPC  H12B19798   2.305   0.966   6.874  0.2449  1.9271  1.5495
  164DOPC   C1319799   2.015   1.110   6.975  0.1082 -0.2343  0.3726
  164DOPC  H13A19800   2.023   1.078   7.078 -2.6617  1.6407  1.2916
  164DOPC  H13B19801   1.974   1.209   6.977  2.1204  0.6827 -0.7989
  164DOPC  H13C19802   1.949   1.037   6.931  0.4773  0.5840 -1.6491
  164DOPC   C1419803   2.143   1.157   6.763 -0.0260 -0.0791 -0.7732
  164DOPC  H14A19804   2.090   1.087   6.699 -0.5244  2.3170 -3.1838
  164DOPC  H14B19805   2.078   1.243   6.766 -0.8836 -0.7482  0.5230
  164DOPC  H14C19806   2.243   1.187   6.735 -0.6231  4.0299  0.8094
  164DOPC   C1519807   2.248   1.187   6.973 -0.3785 -0.1171  0.3630
  164DOPC  H15A19808   2.336   1.205   6.913  0.1398 -1.2851  0.7316
  164DOPC  H15B19809   2.286   1.134   7.060 -0.4250  1.0023  1.0831
  164DOPC  H15C19810   2.212   1.283   7.008 -0.7723 -0.8239  2.0374
  164DOPC   C1119811   2.122   0.850   6.842 -0.0384 -0.1171  0.3982
  164DOPC  H11A19812   2.088   0.873   6.739 -0.4659  1.2921  0.8353
  164DOPC  H11B19813   2.189   0.762   6.837 -0.4647 -0.3879 -3.5602
  164DOPC     P19814   2.011   0.725   7.049  0.4223 -0.2319  0.5216
  164DOPC   O1319815   1.883   0.750   7.125 -0.2525  0.0170  0.0475
  164DOPC   O1419816   2.139   0.759   7.119 -0.0684 -0.1045  0.3584
  164DOPC   O1219817   2.004   0.821   6.915  0.7143 -0.3246 -0.1419
  164DOPC   O1119818   2.011   0.575   6.998 -0.3587  0.2738  0.3813
  164DOPC    C119819   2.005   0.533   6.861  0.1291 -0.2507  0.5155
  164DOPC    HA19820   2.036   0.427   6.847 -1.0828 -0.5208 -0.3017
  164DOPC    HB19821   2.063   0.601   6.796 -2.3731  0.9604 -0.5880
  164DOPC    C219822   1.857   0.536   6.792  0.3412  0.1445 -0.2738
  164DOPC    HS19823   1.862   0.466   6.705 -3.8856 -0.6146 -0.1387
  164DOPC   O2119824   1.796   0.666   6.770 -0.2657 -0.6331  0.1416
  164DOPC   C2119825   1.835   0.734   6.658 -0.1154  0.0873  0.6420
  164DOPC   O2219826   1.924   0.702   6.583 -1.1381 -0.8219 -0.3649
  164DOPC   C2219827   1.754   0.864   6.642 -0.1222 -0.7344 -0.4125
  164DOPC   H2R19828   1.810   0.937   6.579  0.6826  1.6932  2.8217
  164DOPC   H2S19829   1.765   0.913   6.742  3.0116  1.0436 -1.4904
  164DOPC    C319830   1.768   0.468   6.899  0.5745 -0.1874  0.5501
  164DOPC    HX19831   1.786   0.522   6.994  0.7753  1.0207 -0.1604
  164DOPC    HY19832   1.806   0.364   6.914 -2.7943 -1.8664 -1.3298
  164DOPC   O3119833   1.629   0.473   6.860 -0.3046  0.4560  0.6099
  164DOPC   C3119834   1.594   0.366   6.800 -0.0568 -0.6054  0.3315
  164DOPC   O3219835   1.655   0.269   6.766 -0.2018  0.4678  0.1814
  164DOPC   C3219836   1.441   0.388   6.774  0.0476  0.0630  0.6195
  164DOPC   H2X19837   1.389   0.316   6.841  1.2679  0.7706  2.4225
  164DOPC   H2Y19838   1.395   0.484   6.806 -0.9342 -0.0952 -0.2690
  164DOPC   C2319839   1.605   0.847   6.597 -0.3715  0.6024 -0.5203
  164DOPC   H3R19840   1.548   0.791   6.674  1.5014  0.1005  0.5449
  164DOPC   H3S19841   1.598   0.794   6.500 -1.3935 -1.1331  0.4428
  164DOPC   C2419842   1.526   0.981   6.585 -0.3403 -0.1070 -0.5107
  164DOPC   H4R19843   1.603   1.057   6.562  1.0025 -1.1339  0.4230
  164DOPC   H4S19844   1.485   1.008   6.685 -2.0465  0.9560 -1.4455
  164DOPC   C2519845   1.422   0.974   6.481  0.5614  0.4640 -0.4140
  164DOPC   H5R19846   1.348   1.057   6.481  0.2385  0.1895 -1.7788
  164DOPC   H5S19847   1.362   0.887   6.513  0.5321 -0.5391 -3.0015
  164DOPC   C2619848   1.466   0.959   6.332  0.2211 -0.2263  0.5612
  164DOPC   H6R19849   1.367   0.952   6.281  0.8479  0.4247 -0.7969
  164DOPC   H6S19850   1.539   0.877   6.318  0.7398  0.6789 -2.8026
  164DOPC   C2719851   1.546   1.077   6.276  0.1459 -0.2829  0.4851
  164DOPC   H7R19852   1.634   1.105   6.338  0.0460  2.2507 -0.4267
  164DOPC   H7S19853   1.491   1.172   6.262  2.5078  0.9399 -1.2307
  164DOPC   C2819854   1.591   1.050   6.129 -0.3353 -0.3648 -0.0338
  164DOPC   H8R19855   1.645   1.141   6.094  0.2237 -1.4644 -2.1911
  164DOPC   H8S19856   1.496   1.064   6.074 -1.3131  1.8868  2.0446
  164DOPC   C2919857   1.671   0.919   6.098 -0.6820 -0.0998  0.3621
  164DOPC   H9R19858   1.766   0.919   6.153 -0.8538  1.4505  0.7035
  164DOPC  C21019859   1.657   0.830   5.996 -0.0730  0.3819  1.2506
  164DOPC  H10R19860   1.735   0.758   5.967  0.2471  1.9133 -2.3129
  164DOPC  C21119861   1.543   0.828   5.895  0.4211 -0.4724  0.1064
  164DOPC  H11R19862   1.520   0.933   5.868  0.0936 -0.1678  1.4910
  164DOPC  H11S19863   1.451   0.783   5.939  1.1976 -1.2806  0.9533
  164DOPC  C21219864   1.576   0.754   5.767  0.9682 -0.2458  0.7861
  164DOPC  H12R19865   1.489   0.749   5.699  0.2602 -2.4477  1.7393
  164DOPC  H12S19866   1.590   0.648   5.798 -0.3341 -0.2895  1.2897
  164DOPC  C21319867   1.689   0.816   5.689 -0.5360 -0.0910 -0.0553
  164DOPC  H13R19868   1.788   0.800   5.736 -0.6249  1.7454  0.8565
  164DOPC  H13S19869   1.681   0.926   5.675  0.1108 -0.0718 -0.2942
  164DOPC  C21419870   1.689   0.756   5.541 -0.5183 -0.1739 -0.6936
  164DOPC  H14R19871   1.583   0.731   5.519 -1.1203  1.0207  0.6686
  164DOPC  H14S19872   1.756   0.668   5.542  1.2330  1.1046  0.9628
  164DOPC  C21519873   1.727   0.861   5.431 -0.1235  0.3375  0.2239
  164DOPC  H15R19874   1.829   0.891   5.461 -0.4088  1.9805 -0.3555
  164DOPC  H15S19875   1.657   0.947   5.430 -0.8588 -0.2420 -1.0132
  164DOPC  C21619876   1.744   0.804   5.290 -0.6501  0.1610  0.5073
  164DOPC  H16R19877   1.657   0.751   5.246  0.0176  0.5123 -1.3038
  164DOPC  H16S19878   1.817   0.721   5.283 -0.1794  0.6376 -0.3826
  164DOPC  C21719879   1.783   0.918   5.190  0.1451  0.3241 -0.5281
  164DOPC  H17R19880   1.881   0.944   5.235 -0.0491 -1.4982  1.0816
  164DOPC  H17S19881   1.701   0.992   5.203  1.9756  2.1205  1.5899
  164DOPC  C21819882   1.790   0.860   5.043 -0.0943 -0.3816 -0.0780
  164DOPC  H18R19883   1.801   0.947   4.974  0.2332  0.3892  0.9182
  164DOPC  H18S19884   1.701   0.804   5.010  0.0736  0.7267 -2.6451
  164DOPC  H18T19885   1.872   0.788   5.020 -1.3980 -1.2099 -2.4961
  164DOPC   C3319886   1.401   0.362   6.630 -0.6756 -0.3899 -0.9360
  164DOPC   H3X19887   1.292   0.341   6.623 -0.3616 -2.5955  0.0065
  164DOPC   H3Y19888   1.450   0.276   6.580 -1.2042 -0.9882 -0.4431
  164DOPC   C3419889   1.424   0.489   6.541  0.0631  0.0679  0.0884
  164DOPC   H4X19890   1.535   0.495   6.536 -0.0342  1.0717 -1.5079
  164DOPC   H4Y19891   1.377   0.581   6.582  0.2081  1.1010 -1.9560
  164DOPC   C3519892   1.365   0.469   6.402  0.3737  0.3678 -0.5274
  164DOPC   H5X19893   1.256   0.450   6.413  0.3121 -1.8814 -3.5868
  164DOPC   H5Y19894   1.395   0.367   6.369 -0.8786 -0.0864 -0.3028
  164DOPC   C3619895   1.411   0.595   6.319 -0.9205 -0.2348 -1.0951
  164DOPC   H6X19896   1.383   0.684   6.380 -0.2446  0.2561 -1.4897
  164DOPC   H6Y19897   1.521   0.600   6.301 -0.3670  1.5173  2.0353
  164DOPC   C3719898   1.348   0.613   6.182 -0.0298  0.5774  0.1607
  164DOPC   H7X19899   1.375   0.715   6.147  0.4579 -0.6390 -3.3480
  164DOPC   H7Y19900   1.397   0.548   6.107  1.5792  1.0166  0.7822
  164DOPC   C3819901   1.196   0.595   6.203 -0.2995 -0.4038 -0.3207
  164DOPC   H8X19902   1.179   0.677   6.276  0.6900 -1.5664  1.2931
  164DOPC   H8Y19903   1.160   0.501   6.249  0.2158 -0.7355 -0.5896
  164DOPC   C3919904   1.128   0.614   6.071  0.0408  0.2862  0.1609
  164DOPC   H9X19905   1.141   0.526   6.006  1.8580  0.4475  0.2444
  164DOPC  C31019906   1.056   0.719   6.026 -0.7014 -0.1967 -0.3826
  164DOPC  H10X19907   1.005   0.716   5.929  0.7950  2.1549 -1.3294
  164DOPC  C31119908   1.030   0.844   6.109 -1.0522 -0.6554  0.4090
  164DOPC  H11X19909   1.088   0.859   6.203 -1.2239  1.1054  0.2693
  164DOPC  H11Y19910   0.935   0.825   6.164 -0.4006  0.5077  2.0491
  164DOPC  C31219911   1.029   0.979   6.033 -0.4054  0.3694  0.5612
  164DOPC  H12X19912   0.958   1.052   6.077 -0.5523  0.2528  0.5188
  164DOPC  H12Y19913   1.001   0.972   5.926 -0.0359  0.0914  0.4784
  164DOPC  C31319914   1.175   1.029   6.047 -0.4635  0.3864 -0.5632
  164DOPC  H13X19915   1.210   1.061   6.148  0.2356 -0.5067 -0.5049
  164DOPC  H13Y19916   1.254   0.955   6.021 -1.3188 -0.1417 -1.7237
  164DOPC  C31419917   1.187   1.148   5.953  0.1432  0.4047 -0.1724
  164DOPC  H14X19918   1.212   1.119   5.848  1.7542  1.8720 -0.2229
  164DOPC  H14Y19919   1.284   1.193   5.980  0.0472  0.8344 -0.5304
  164DOPC  C31519920   1.074   1.263   5.938 -0.1194  0.2271  0.1203
  164DOPC  H15X19921   1.084   1.329   6.028  0.2644  0.6936 -0.2594
  164DOPC  H15Y19922   0.973   1.217   5.927 -0.5769  1.0995  0.4747
  164DOPC  C31619923   1.104   1.368   5.828 -0.8764 -0.0732 -0.0718
  164DOPC  H16X19924   1.209   1.404   5.837 -0.9980  0.3032 -0.1394
  164DOPC  H16Y19925   1.103   1.315   5.730  0.3481 -1.8252  0.8068
  164DOPC  C31719926   1.002   1.481   5.813  1.0300  0.3556  0.0132
  164DOPC  H17X19927   0.903   1.435   5.792  0.5713  1.8873 -1.3482
  164DOPC  H17Y19928   0.985   1.540   5.906 -0.3354  2.0955 -1.2901
  164DOPC  C31819929   1.015   1.576   5.698  0.4375  0.3625  0.2800
  164DOPC  H18X19930   1.002   1.522   5.602  1.0679  3.6843 -1.8315
  164DOPC  H18Y19931   0.928   1.646   5.697  0.4378  0.3613  0.1020
  164DOPC  H18Z19932   1.115   1.623   5.690  0.6970  0.1308  1.9533
  165DOPC     N19933   6.648   0.441   6.734  0.3437 -0.3481  0.3424
  165DOPC   C1219934   6.514   0.399   6.658  0.1550  0.3454  0.5706
  165DOPC  H12A19935   6.465   0.492   6.633  2.0436  0.9924 -0.9456
  165DOPC  H12B19936   6.452   0.353   6.734  0.3661  0.7419  0.9916
  165DOPC   C1319937   6.732   0.336   6.786 -0.3650 -0.1644  0.7098
  165DOPC  H13A19938   6.694   0.290   6.876  1.7027 -0.5940  1.4139
  165DOPC  H13B19939   6.744   0.257   6.714  0.1894  0.8801 -0.3681
  165DOPC  H13C19940   6.832   0.367   6.813 -0.4304  0.5862  0.1112
  165DOPC   C1419941   6.614   0.540   6.843  0.0535 -0.0278  0.1013
  165DOPC  H14A19942   6.531   0.599   6.808 -0.2880  0.1413  1.1513
  165DOPC  H14B19943   6.580   0.499   6.937 -1.1736 -0.0378 -0.3284
  165DOPC  H14C19944   6.693   0.613   6.850  1.6543 -1.6778  0.0837
  165DOPC   C1519945   6.739   0.510   6.640  0.1081  0.5410  0.3859
  165DOPC  H15A19946   6.799   0.436   6.589 -0.8340  0.1927 -0.2241
  165DOPC  H15B19947   6.811   0.571   6.693  2.3477 -1.2935 -0.3840
  165DOPC  H15C19948   6.686   0.570   6.569  1.5772  0.9023 -0.4502
  165DOPC   C1119949   6.515   0.300   6.541 -0.3519  0.2097 -0.5064
  165DOPC  H11A19950   6.410   0.268   6.529 -1.0988  2.0464  0.6137
  165DOPC  H11B19951   6.540   0.353   6.446  0.4745  2.2101  0.7566
  165DOPC     P19952   6.534   0.060   6.637  0.1735 -0.1108  0.2725
  165DOPC   O1319953   6.470   0.106   6.763  0.2377 -0.0131 -0.6229
  165DOPC   O1419954   6.627  -0.055   6.653 -0.2057  0.3658 -0.2561
  165DOPC   O1219955   6.604   0.187   6.563  0.1613 -0.6180 -0.1546
  165DOPC   O1119956   6.418   0.011   6.538  0.0702  0.2477  0.4241
  165DOPC    C119957   6.458  -0.046   6.417  0.1039 -0.1926 -0.3969
  165DOPC    HA19958   6.564  -0.078   6.412  0.7164  1.4858  0.9260
  165DOPC    HB19959   6.439   0.025   6.334 -1.9718 -0.2342 -0.0008
  165DOPC    C219960   6.370  -0.173   6.386 -0.7754 -0.4539  0.3354
  165DOPC    HS19961   6.379  -0.208   6.281  0.7979 -0.8027  0.5562
  165DOPC   O2119962   6.230  -0.153   6.415  0.4064  0.3687  0.6413
  165DOPC   C2119963   6.163  -0.080   6.320 -0.3001  0.3406 -0.0058
  165DOPC   O2219964   6.221  -0.027   6.226  0.1285  0.1873  0.1553
  165DOPC   C2219965   6.012  -0.083   6.334  0.2384 -0.0739 -0.2751
  165DOPC   H2R19966   5.987   0.025   6.340 -0.3170 -0.2580  1.1674
  165DOPC   H2S19967   5.972  -0.135   6.424 -0.4227 -2.8132 -2.0255
  165DOPC    C319968   6.433  -0.296   6.465  0.9538 -0.4661  0.5929
  165DOPC    HX19969   6.420  -0.258   6.568 -1.5801  2.3209 -0.6049
  165DOPC    HY19970   6.539  -0.301   6.432  0.8456  0.2689  0.0980
  165DOPC   O3119971   6.362  -0.420   6.447  0.0121  0.0940  0.6278
  165DOPC   C3119972   6.411  -0.507   6.352  0.0647 -0.7539 -0.2832
  165DOPC   O3219973   6.510  -0.485   6.287 -0.7398  0.2602  0.0551
  165DOPC   C3219974   6.320  -0.629   6.337  0.4521 -0.6921  0.2226
  165DOPC   H2X19975   6.284  -0.664   6.436 -1.3118  0.8639  0.1997
  165DOPC   H2Y19976   6.231  -0.587   6.285  0.7167 -2.1361 -1.4592
  165DOPC   C2319977   5.934  -0.153   6.223 -0.1117  0.3576  0.0059
  165DOPC   H3R19978   5.970  -0.248   6.179  1.2462  0.1288  1.5303
  165DOPC   H3S19979   5.929  -0.088   6.132 -1.1645  1.5895  0.9077
  165DOPC   C2419980   5.789  -0.189   6.253 -0.1855  0.8374 -0.2217
  165DOPC   H4R19981   5.746  -0.107   6.315  1.5570  1.9192 -0.3830
  165DOPC   H4S19982   5.798  -0.289   6.302 -0.3731  1.2717  0.7239
  165DOPC   C2519983   5.703  -0.206   6.125  0.2985  0.2985 -0.2944
  165DOPC   H5R19984   5.611  -0.267   6.140  2.6697 -3.5219 -0.0708
  165DOPC   H5S19985   5.760  -0.247   6.039  1.0863 -0.4655  0.5683
  165DOPC   C2619986   5.671  -0.065   6.081 -0.0856 -0.1511 -0.5182
  165DOPC   H6R19987   5.765  -0.008   6.065  1.0608 -1.3066  1.6422
  165DOPC   H6S19988   5.611  -0.010   6.157  1.4449  1.4113 -0.3905
  165DOPC   C2719989   5.586  -0.074   5.957  0.0549  0.5016 -0.1351
  165DOPC   H7R19990   5.502  -0.134   5.997  0.1604  1.3007  1.3533
  165DOPC   H7S19991   5.642  -0.129   5.878 -0.3027 -0.6584  0.4058
  165DOPC   C2819992   5.536   0.063   5.906  0.4414 -0.2985 -0.1918
  165DOPC   H8R19993   5.615   0.131   5.868  0.4264 -0.6966 -0.9501
  165DOPC   H8S19994   5.488   0.132   5.979 -0.8257  1.4824 -2.5732
  165DOPC   C2919995   5.425   0.036   5.801 -0.8528  0.2066 -0.0420
  165DOPC   H9R19996   5.355  -0.039   5.842 -2.9409  1.1441 -1.6630
  165DOPC  C21019997   5.392   0.105   5.689  0.1891 -0.2447  0.1858
  165DOPC  H10R19998   5.302   0.068   5.636  0.9481 -2.2264  0.1860
  165DOPC  C21119999   5.464   0.223   5.628 -0.0478 -0.4687  0.1053
  165DOPC  H11R20000   5.499   0.284   5.714 -2.5066  0.6927  0.3468
  165DOPC  H11S20001   5.394   0.294   5.578  0.0909  0.1198  0.7285
  165DOPC  C21220002   5.589   0.174   5.547 -0.0799 -0.3045  0.0401
  165DOPC  H12R20003   5.654   0.105   5.605  0.9621 -0.9365 -1.8010
  165DOPC  H12S20004   5.656   0.261   5.529  0.5536 -1.1548 -1.8937
  165DOPC  C21320005   5.556   0.117   5.413  0.1591 -0.1484  0.1916
  165DOPC  H13R20006   5.493   0.026   5.425 -1.6727  1.0757  0.3390
  165DOPC  H13S20007   5.645   0.096   5.350 -0.7097 -1.6073 -0.6222
  165DOPC  C21420008   5.460   0.205   5.334  0.2419 -0.0770 -0.3694
  165DOPC  H14R20009   5.514   0.296   5.299  2.1921 -1.5216 -1.2663
  165DOPC  H14S20010   5.375   0.231   5.401  1.5020 -0.5644  1.4919
  165DOPC  C21520011   5.394   0.138   5.218 -0.3765  0.2824 -0.4942
  165DOPC  H15R20012   5.348   0.217   5.155 -0.7267  1.1417  0.7968
  165DOPC  H15S20013   5.313   0.074   5.260  0.3721 -0.4612 -0.1486
  165DOPC  C21620014   5.494   0.054   5.142 -0.2798 -0.0493 -0.1480
  165DOPC  H16R20015   5.514  -0.040   5.199 -1.2443  0.4780  1.1012
  165DOPC  H16S20016   5.583   0.115   5.116 -1.3996  1.6165 -0.2471
  165DOPC  C21720017   5.430  -0.004   5.014 -0.3123 -1.0115  0.0207
  165DOPC  H17R20018   5.362  -0.084   5.048 -0.4354 -0.7109  0.4917
  165DOPC  H17S20019   5.509  -0.055   4.954  0.4452 -0.0558  0.1654
  165DOPC  C21820020   5.348   0.099   4.929  0.5394 -0.0408  0.0410
  165DOPC  H18R20021   5.333   0.068   4.823 -1.1081 -3.2598  1.0850
  165DOPC  H18S20022   5.398   0.198   4.932 -1.7596  1.2609 -1.8345
  165DOPC  H18T20023   5.242   0.104   4.960  0.7730 -0.7024  1.0012
  165DOPC   C3320024   6.387  -0.735   6.248  0.0678  0.4030  0.5326
  165DOPC   H3X20025   6.471  -0.773   6.310  0.7749 -0.6745 -1.0009
  165DOPC   H3Y20026   6.426  -0.689   6.155 -0.7651 -0.4651 -0.2717
  165DOPC   C3420027   6.293  -0.856   6.219  0.3943 -0.6164  0.1975
  165DOPC   H4X20028   6.216  -0.822   6.146  1.1443 -2.7939 -1.7169
  165DOPC   H4Y20029   6.240  -0.880   6.314 -1.0819  1.4948 -0.0107
  165DOPC   C3520030   6.366  -0.985   6.166  0.5540 -0.0671 -0.2344
  165DOPC   H5X20031   6.297  -1.072   6.156 -0.7318  0.9045 -0.0962
  165DOPC   H5Y20032   6.448  -1.000   6.239  1.8257 -1.0818 -1.7980
  165DOPC   C3620033   6.448  -0.955   6.041 -0.1400  0.5819  0.1208
  165DOPC   H6X20034   6.394  -0.894   5.965 -0.0576  0.6499  0.1169
  165DOPC   H6Y20035   6.544  -0.909   6.071  1.3425 -2.0665 -0.1915
  165DOPC   C3720036   6.502  -1.087   5.974 -0.2922  0.6848 -0.1569
  165DOPC   H7X20037   6.561  -1.070   5.881  1.4682  0.4216  0.8632
  165DOPC   H7Y20038   6.415  -1.142   5.933  0.4928 -0.3388 -0.4746
  165DOPC   C3820039   6.576  -1.191   6.063 -0.9071 -0.0783 -0.2267
  165DOPC   H8X20040   6.605  -1.279   6.001  0.7214  0.3584 -0.1124
  165DOPC   H8Y20041   6.514  -1.216   6.152  3.2212  1.0175  3.3299
  165DOPC   C3920042   6.691  -1.120   6.132 -0.5518  0.4453 -0.1091
  165DOPC   H9X20043   6.674  -1.033   6.197  1.4333 -0.5497  1.8873
  165DOPC  C31020044   6.824  -1.149   6.124  0.1727  0.3750 -0.1284
  165DOPC  H10X20045   6.898  -1.096   6.185  0.9221 -0.3582 -0.3804
  165DOPC  C31120046   6.886  -1.263   6.043 -0.3970 -0.1966 -0.4483
  165DOPC  H11X20047   6.809  -1.313   5.980 -0.6778 -1.6775  0.9744
  165DOPC  H11Y20048   6.929  -1.339   6.112  0.2756  0.8188  0.2923
  165DOPC  C31220049   6.992  -1.220   5.935  0.0801  0.1584 -0.7155
  165DOPC  H12X20050   7.028  -1.315   5.889  2.1342 -0.2674  1.5709
  165DOPC  H12Y20051   7.079  -1.171   5.982  0.3763 -1.4815  0.5445
  165DOPC  C31320052   6.933  -1.125   5.833 -0.1976 -0.5979 -0.0850
  165DOPC  H13X20053   6.871  -1.048   5.884  1.0963  0.1966  0.3170
  165DOPC  H13Y20054   7.016  -1.063   5.792 -0.6571 -0.4216 -0.7721
  165DOPC  C31420055   6.851  -1.193   5.723  0.3740 -0.0170 -0.0770
  165DOPC  H14X20056   6.914  -1.266   5.667  0.8973  1.2252 -1.1522
  165DOPC  H14Y20057   6.769  -1.250   5.771 -2.2125  0.9379 -3.0487
  165DOPC  C31520058   6.796  -1.093   5.619  0.6627  0.1016 -0.9767
  165DOPC  H15X20059   6.872  -1.029   5.569 -0.4291  0.8937 -1.6557
  165DOPC  H15Y20060   6.722  -1.033   5.675  1.0886  0.2778 -0.6012
  165DOPC  C31620061   6.714  -1.163   5.506 -0.0256  0.1706 -0.2779
  165DOPC  H16X20062   6.654  -1.243   5.554 -0.3701  1.0372  0.7843
  165DOPC  H16Y20063   6.639  -1.089   5.470  1.0926  0.7691 -1.4248
  165DOPC  C31720064   6.784  -1.218   5.384  0.4399 -0.2177  0.1912
  165DOPC  H17X20065   6.704  -1.259   5.319  0.0325 -2.2338  1.8820
  165DOPC  H17Y20066   6.829  -1.133   5.327  1.6448  1.1519  2.9784
  165DOPC  C31820067   6.879  -1.333   5.413 -0.1697  0.1086 -0.1170
  165DOPC  H18X20068   6.905  -1.370   5.311  1.2884  4.4123 -1.5185
  165DOPC  H18Y20069   6.967  -1.295   5.468 -0.0752 -1.2229  0.7158
  165DOPC  H18Z20070   6.825  -1.412   5.470 -0.4374 -0.0220 -0.5451
  166DOPC     N20071   6.111   1.515   7.075 -0.7862  0.4326  0.8273
  166DOPC   C1220072   6.132   1.512   6.927  0.1912 -0.0601 -0.0975
  166DOPC  H12A20073   6.201   1.432   6.902 -0.7695 -0.5773 -1.1721
  166DOPC  H12B20074   6.168   1.607   6.891 -0.0052 -0.0847 -0.3549
  166DOPC   C1320075   6.251   1.523   7.139  0.0614  0.2859  0.5375
  166DOPC  H13A20076   6.318   1.440   7.123 -0.2155  0.0192  0.7466
  166DOPC  H13B20077   6.300   1.615   7.111 -0.1846  0.7914  1.7025
  166DOPC  H13C20078   6.226   1.526   7.244 -2.1437  2.1791  0.0428
  166DOPC   C1420079   6.042   1.402   7.125  0.1250  0.5648  0.1179
  166DOPC  H14A20080   6.046   1.403   7.233 -1.1961 -1.3027  0.2392
  166DOPC  H14B20081   5.941   1.403   7.085  0.3420  0.1885 -0.4528
  166DOPC  H14C20082   6.093   1.311   7.095  2.5392  1.7725  0.3244
  166DOPC   C1520083   6.042   1.643   7.108 -0.1042  0.6693 -0.0266
  166DOPC  H15A20084   6.105   1.730   7.095  2.3295 -0.8933  0.6621
  166DOPC  H15B20085   6.019   1.651   7.213 -0.4657 -0.1441 -0.0389
  166DOPC  H15C20086   5.944   1.652   7.064  0.9922 -1.3683 -3.2331
  166DOPC   C1120087   6.001   1.474   6.849  0.8143  0.3180 -0.2427
  166DOPC  H11A20088   5.915   1.522   6.899  1.8512  2.1356 -0.1275
  166DOPC  H11B20089   6.007   1.516   6.746 -1.0305 -0.6545 -0.7882
  166DOPC     P20090   6.068   1.248   6.747  0.0588 -0.0290  0.2434
  166DOPC   O1320091   6.038   1.104   6.770 -0.0608 -0.2673  0.4409
  166DOPC   O1420092   6.210   1.274   6.770 -0.3534 -0.2700 -0.5559
  166DOPC   O1220093   5.977   1.332   6.849  0.2230 -0.0257 -0.1480
  166DOPC   O1120094   6.020   1.304   6.610 -0.4406 -0.3707 -0.3613
  166DOPC    C120095   6.112   1.344   6.501  0.2005  0.4393  0.5141
  166DOPC    HA20096   6.215   1.357   6.541  0.1807 -0.0311  0.7209
  166DOPC    HB20097   6.080   1.444   6.464  2.2877  1.4814  1.3277
  166DOPC    C220098   6.094   1.237   6.383  0.0928 -1.4709 -0.4505
  166DOPC    HS20099   6.178   1.251   6.311  0.0966 -0.6417 -0.2905
  166DOPC   O2120100   5.967   1.248   6.315 -0.2935  0.4511 -0.2574
  166DOPC   C2120101   5.960   1.355   6.232  0.6936  0.6753 -0.2907
  166DOPC   O2220102   6.051   1.430   6.207  0.0883  0.4741 -0.0845
  166DOPC   C2220103   5.812   1.375   6.202 -0.6206 -0.1452  0.9279
  166DOPC   H2R20104   5.755   1.375   6.297 -0.0686 -1.5755  1.2914
  166DOPC   H2S20105   5.777   1.293   6.136 -1.4459 -0.1093  1.3161
  166DOPC    C320106   6.108   1.095   6.447  0.3313  0.2050 -0.0489
  166DOPC    HX20107   6.014   1.076   6.502 -0.0806 -0.2295 -0.8772
  166DOPC    HY20108   6.190   1.109   6.520  0.1631  2.3929 -0.2110
  166DOPC   O3120109   6.128   0.993   6.348  0.0112  0.3093 -0.3123
  166DOPC   C3120110   6.180   0.879   6.383 -0.7112  0.3607  0.1328
  166DOPC   O3220111   6.197   0.841   6.498 -0.2353 -0.5972  0.2727
  166DOPC   C3220112   6.212   0.815   6.247 -0.0726  0.1037 -0.0797
  166DOPC   H2X20113   6.178   0.710   6.261  0.0007 -0.4585 -3.4490
  166DOPC   H2Y20114   6.148   0.862   6.170 -1.4935  1.5330  1.8644
  166DOPC   C2320115   5.801   1.507   6.126 -0.0632  0.3254  0.2473
  166DOPC   H3R20116   5.869   1.513   6.038 -1.1439 -1.6054 -0.7925
  166DOPC   H3S20117   5.824   1.585   6.202 -0.7832  0.2619  0.5378
  166DOPC   C2420118   5.656   1.543   6.075  0.2736  0.5686  0.9047
  166DOPC   H4R20119   5.648   1.652   6.055  0.0840  0.9595  2.9465
  166DOPC   H4S20120   5.593   1.521   6.163 -0.4431  0.5801  0.4053
  166DOPC   C2520121   5.595   1.458   5.950 -1.1976  0.4837 -0.2199
  166DOPC   H5R20122   5.557   1.363   5.993 -1.8770  1.0460  0.4542
  166DOPC   H5S20123   5.684   1.441   5.885 -0.6911  0.0555  0.5689
  166DOPC   C2620124   5.501   1.536   5.858 -0.5425  0.0608  0.0966
  166DOPC   H6R20125   5.544   1.638   5.852 -1.9437  0.6342 -0.8074
  166DOPC   H6S20126   5.397   1.533   5.897 -0.8148  2.7709 -0.2388
  166DOPC   C2720127   5.495   1.489   5.705  0.3091 -1.2142 -1.1057
  166DOPC   H7R20128   5.402   1.533   5.665  0.2761  0.1680  0.3650
  166DOPC   H7S20129   5.485   1.378   5.704  0.2683 -1.2055 -1.7803
  166DOPC   C2820130   5.609   1.523   5.614  0.4555  0.5609 -0.0389
  166DOPC   H8R20131   5.601   1.457   5.525 -0.7177  0.3738  0.1851
  166DOPC   H8S20132   5.711   1.518   5.655 -0.1133  2.1054  1.6964
  166DOPC   C2920133   5.595   1.660   5.563 -0.2966  0.1499 -0.1939
  166DOPC   H9R20134   5.514   1.665   5.489 -0.6860 -0.1194  0.2035
  166DOPC  C21020135   5.690   1.754   5.569  0.1062  0.3919 -1.6452
  166DOPC  H10R20136   5.658   1.850   5.525  0.0848  1.5500  0.7470
  166DOPC  C21120137   5.832   1.736   5.627  0.4983 -0.2247 -0.1083
  166DOPC  H11R20138   5.875   1.634   5.629 -1.5248 -1.1047  0.0749
  166DOPC  H11S20139   5.828   1.771   5.733 -0.4776  2.0338 -0.8263
  166DOPC  C21220140   5.932   1.822   5.545 -1.2451  0.5301  0.4954
  166DOPC  H12R20141   6.034   1.823   5.588 -0.0124  1.7619 -2.1956
  166DOPC  H12S20142   5.906   1.930   5.547  0.2484  0.9916 -1.6406
  166DOPC  C21320143   5.947   1.759   5.401  0.0869  0.8760 -0.3393
  166DOPC  H13R20144   5.857   1.763   5.336  0.7112  1.9839 -1.1563
  166DOPC  H13S20145   5.978   1.653   5.413 -0.7236  0.5872 -0.7350
  166DOPC  C21420146   6.047   1.838   5.318 -0.9606 -0.8626  0.1768
  166DOPC  H14R20147   6.065   1.797   5.216  0.0447 -0.4656  0.1784
  166DOPC  H14S20148   6.150   1.823   5.357  0.9342  0.8224 -3.6525
  166DOPC  C21520149   6.003   1.986   5.287 -0.1304 -0.0608 -0.1359
  166DOPC  H15R20150   5.994   2.040   5.383 -2.8480  1.1769 -0.9906
  166DOPC  H15S20151   5.900   1.979   5.245 -0.2214 -0.6050  0.1631
  166DOPC  C21620152   6.097   2.058   5.183 -0.4502 -0.0227 -0.0143
  166DOPC  H16R20153   6.069   2.163   5.158  0.0557  0.1135 -0.0293
  166DOPC  H16S20154   6.103   1.999   5.089 -0.1343 -3.3664  1.9658
  166DOPC  C21720155   6.238   2.088   5.242  0.3817  0.3899 -0.2332
  166DOPC  H17R20156   6.278   1.995   5.287  0.2165 -0.2995 -1.4810
  166DOPC  H17S20157   6.235   2.165   5.323  1.5341  1.2947 -1.0305
  166DOPC  C21820158   6.337   2.133   5.133 -0.4007 -0.5448 -0.3550
  166DOPC  H18R20159   6.359   2.047   5.066 -2.4712 -1.1109 -0.3515
  166DOPC  H18S20160   6.438   2.160   5.173 -1.0312  2.6896 -0.6757
  166DOPC  H18T20161   6.294   2.217   5.075  2.1988  1.7920  0.8512
  166DOPC   C3320162   6.364   0.828   6.227  0.3645 -0.6294  0.1362
  166DOPC   H3X20163   6.402   0.762   6.146  0.2621 -0.3949 -0.1015
  166DOPC   H3Y20164   6.421   0.798   6.318  2.1615  1.1598 -0.3445
  166DOPC   C3420165   6.409   0.957   6.173  0.4447  0.1644  0.0299
  166DOPC   H4X20166   6.520   0.962   6.171  0.4359  2.1088  1.2598
  166DOPC   H4Y20167   6.377   1.034   6.248 -0.8376 -0.6420  0.3367
  166DOPC   C3520168   6.356   0.995   6.036 -0.3974 -0.0759  0.4423
  166DOPC   H5X20169   6.245   0.993   6.044 -0.5510 -2.1192 -1.4074
  166DOPC   H5Y20170   6.377   0.918   5.959 -0.7215  0.5572 -0.2991
  166DOPC   C3620171   6.410   1.128   5.979  0.4330  0.7488  0.3167
  166DOPC   H6X20172   6.384   1.213   6.045 -0.0681  1.0650 -0.2758
  166DOPC   H6Y20173   6.521   1.123   5.988  0.3366  2.2850  3.6980
  166DOPC   C3720174   6.364   1.164   5.835 -0.7762 -0.0427 -0.4976
  166DOPC   H7X20175   6.416   1.258   5.806  1.6904 -1.0667  0.4161
  166DOPC   H7Y20176   6.414   1.093   5.767 -1.7073 -1.0156 -0.1949
  166DOPC   C3820177   6.215   1.167   5.809  0.0456 -0.9223 -0.0032
  166DOPC   H8X20178   6.169   1.071   5.839 -0.7776 -1.2918 -2.2504
  166DOPC   H8Y20179   6.197   1.187   5.701  0.9487 -0.1940 -0.0279
  166DOPC   C3920180   6.156   1.267   5.908  0.2422  0.5514  0.3442
  166DOPC   H9X20181   6.136   1.236   6.012 -3.8211 -1.0029 -0.7288
  166DOPC  C31020182   6.128   1.389   5.871 -0.2925 -0.5404 -0.1132
  166DOPC  H10X20183   6.098   1.467   5.944 -0.2463  0.7508 -1.4386
  166DOPC  C31120184   6.133   1.446   5.735  0.3810  0.1268 -0.5798
  166DOPC  H11X20185   6.038   1.501   5.720  1.8960  2.4491 -2.3708
  166DOPC  H11Y20186   6.123   1.363   5.662 -0.1317 -1.3760  1.1260
  166DOPC  C31220187   6.258   1.524   5.708 -0.3038 -0.3950 -0.3838
  166DOPC  H12X20188   6.348   1.466   5.738 -0.0951 -0.0595 -0.3507
  166DOPC  H12Y20189   6.261   1.622   5.762 -2.0623 -0.3263 -0.3742
  166DOPC  C31320190   6.266   1.583   5.562  0.0559  0.6758 -0.8435
  166DOPC  H13X20191   6.199   1.669   5.544  0.4807  0.8808 -1.5277
  166DOPC  H13Y20192   6.369   1.626   5.555  2.6309 -4.4913 -0.1205
  166DOPC  C31420193   6.259   1.480   5.445  0.0333  0.6576 -0.2311
  166DOPC  H14X20194   6.325   1.394   5.468  0.9121  1.8885  2.1429
  166DOPC  H14Y20195   6.159   1.433   5.439  0.5905 -0.4986 -0.7180
  166DOPC  C31520196   6.288   1.548   5.310 -0.6896  0.6665 -0.7309
  166DOPC  H15X20197   6.212   1.627   5.297 -1.6186 -0.3689 -1.7974
  166DOPC  H15Y20198   6.251   1.468   5.242 -1.7620 -0.7580  1.4096
  166DOPC  C31620199   6.434   1.585   5.287 -0.2885  0.0431 -0.9913
  166DOPC  H16X20200   6.463   1.677   5.343  3.9108 -1.2434 -0.7032
  166DOPC  H16Y20201   6.490   1.497   5.324 -2.3276 -0.7130  0.4705
  166DOPC  C31720202   6.466   1.615   5.141  0.3764 -0.7782  0.4246
  166DOPC  H17X20203   6.576   1.623   5.128  0.2917  1.7517  0.7993
  166DOPC  H17Y20204   6.432   1.528   5.082  0.2628  0.1127 -0.8673
  166DOPC  C31820205   6.393   1.729   5.080  0.0529  0.2992 -0.2756
  166DOPC  H18X20206   6.406   1.738   4.970 -0.4376  0.5291 -0.3162
  166DOPC  H18Y20207   6.282   1.722   5.084 -0.1940  1.6500 -2.7394
  166DOPC  H18Z20208   6.418   1.825   5.130  1.2900 -0.0600 -0.1752
  167DOPC     N20209   7.183   7.444   6.923  0.3125 -0.3580 -0.3659
  167DOPC   C1220210   7.247   7.301   6.956  0.2804  0.4159 -0.0628
  167DOPC  H12A20211   7.313   7.313   7.041 -0.3136  0.1391  0.4426
  167DOPC  H12B20212   7.314   7.271   6.877  1.1057  0.0283  0.7667
  167DOPC   C1320213   7.090   7.488   7.041  0.3499 -0.3281 -0.2329
  167DOPC  H13A20214   7.149   7.478   7.131 -1.2584  2.3344  1.2388
  167DOPC  H13B20215   7.051   7.587   7.023  2.6068  0.5528 -0.6538
  167DOPC  H13C20216   7.007   7.422   7.059 -0.6011  1.0127  0.4913
  167DOPC   C1420217   7.094   7.439   6.800  0.2270  0.1046  0.1783
  167DOPC  H14A20218   7.067   7.537   6.764 -0.6363 -1.1888 -3.1237
  167DOPC  H14B20219   7.154   7.393   6.723  2.0502  1.8507  0.4951
  167DOPC  H14C20220   7.008   7.376   6.819 -0.6149  1.6843  1.8340
  167DOPC   C1520221   7.287   7.544   6.896  0.3787  0.5283 -0.2301
  167DOPC  H15A20222   7.355   7.533   6.813 -0.0971  1.4372 -0.7478
  167DOPC  H15B20223   7.350   7.544   6.985 -0.6770 -0.9758  0.5540
  167DOPC  H15C20224   7.242   7.643   6.896 -0.1497  0.2997  0.5721
  167DOPC   C1120225   7.146   7.182   6.974 -0.1966 -0.8841  0.0656
  167DOPC  H11A20226   7.207   7.090   6.986 -0.4889 -1.1183 -0.2325
  167DOPC  H11B20227   7.088   7.212   7.064  0.2576  0.7935 -0.1777
  167DOPC     P20228   7.120   7.084   6.738  0.1742  0.8944 -0.3348
  167DOPC   O1320229   7.094   6.943   6.770 -0.2709  0.1904 -0.4498
  167DOPC   O1420230   7.265   7.124   6.732  0.2660 -0.2533 -0.0754
  167DOPC   O1220231   7.054   7.167   6.860 -0.2708 -0.4217  0.2401
  167DOPC   O1120232   7.043   7.128   6.618 -0.4791  0.2385  0.4815
  167DOPC    C120233   6.904   7.086   6.600  0.4006 -0.4395 -0.2431
  167DOPC    HA20234   6.849   7.091   6.696  0.9072  0.6736  0.0134
  167DOPC    HB20235   6.894   6.981   6.567 -0.2809 -0.9262  1.3958
  167DOPC    C220236   6.826   7.185   6.510 -0.1904  0.6507 -0.1574
  167DOPC    HS20237   6.718   7.175   6.532 -0.0567 -0.2628  0.1267
  167DOPC   O2120238   6.867   7.160   6.370 -0.4686  0.6908 -0.0894
  167DOPC   C2120239   6.812   7.061   6.320  0.4163  0.0897 -0.3112
  167DOPC   O2220240   6.727   6.993   6.374  0.7347  0.3403  0.1663
  167DOPC   C2220241   6.857   7.057   6.178  0.0809  0.0686  0.1454
  167DOPC   H2R20242   6.956   7.006   6.177  0.5972  1.0566  0.0381
  167DOPC   H2S20243   6.870   7.158   6.134 -0.4893 -0.5955 -1.6666
  167DOPC    C320244   6.846   7.331   6.562  0.0967  0.5766  0.2689
  167DOPC    HX20245   6.952   7.342   6.597 -0.4290 -1.4595  2.8132
  167DOPC    HY20246   6.790   7.356   6.654  1.8917  3.2901  0.7753
  167DOPC   O3120247   6.800   7.420   6.460 -0.2009  0.1624 -0.7310
  167DOPC   C3120248   6.897   7.478   6.384  0.0375  0.1151 -0.0387
  167DOPC   O3220249   7.013   7.452   6.389 -0.0701 -0.2262 -0.4077
  167DOPC   C3220250   6.834   7.579   6.282  0.0035 -0.1025  0.3199
  167DOPC   H2X20251   6.767   7.650   6.335  1.1664  2.0948 -1.0184
  167DOPC   H2Y20252   6.917   7.633   6.233 -1.1070 -0.5824 -2.2294
  167DOPC   C2320253   6.765   6.979   6.078 -0.6751  0.6398 -0.1255
  167DOPC   H3R20254   6.669   7.035   6.077  0.6509  3.0148 -0.8257
  167DOPC   H3S20255   6.753   6.873   6.110 -0.3940  0.8498  0.7223
  167DOPC   C2420256   6.827   6.961   5.937  0.7898  0.4953 -0.1836
  167DOPC   H4R20257   6.915   6.894   5.953  0.3192  0.2395  1.5574
  167DOPC   H4S20258   6.874   7.058   5.908  1.3085 -0.2072 -1.7806
  167DOPC   C2520259   6.732   6.919   5.822  0.0747 -0.0578 -0.2365
  167DOPC   H5R20260   6.714   6.810   5.838  0.2034 -0.0570 -0.0912
  167DOPC   H5S20261   6.783   6.934   5.725 -0.2682 -1.4674 -0.6554
  167DOPC   C2620262   6.594   6.996   5.833  0.3538  0.2945  0.3978
  167DOPC   H6R20263   6.606   7.105   5.851 -0.8053  0.6645 -0.8663
  167DOPC   H6S20264   6.549   6.956   5.927 -1.9004 -0.1003 -0.7719
  167DOPC   C2720265   6.498   6.960   5.726  0.1059  0.1155 -0.3245
  167DOPC   H7R20266   6.471   6.852   5.734  0.2866  0.2066  2.0913
  167DOPC   H7S20267   6.554   6.965   5.630  1.2123 -0.1981  0.2868
  167DOPC   C2820268   6.370   7.051   5.714 -0.1719 -0.2477 -1.2196
  167DOPC   H8R20269   6.317   7.010   5.626  0.3365 -0.5905 -1.3651
  167DOPC   H8S20270   6.408   7.154   5.697 -2.3700  0.7712 -0.3812
  167DOPC   C2920271   6.276   7.060   5.827 -0.1626  0.1586  0.4325
  167DOPC   H9R20272   6.225   6.966   5.851  0.6776  0.2046  2.5803
  167DOPC  C21020273   6.264   7.166   5.914 -0.9778 -0.0370  0.5924
  167DOPC  H10R20274   6.181   7.166   5.986 -2.0009 -2.3013 -0.4963
  167DOPC  C21120275   6.337   7.301   5.912 -0.0454 -0.2782 -0.0499
  167DOPC  H11R20276   6.399   7.311   5.820 -0.8076 -1.0414 -0.6618
  167DOPC  H11S20277   6.416   7.303   5.991  0.1434 -0.9296 -0.2177
  167DOPC  C21220278   6.244   7.422   5.938 -0.0754 -0.3659 -0.3384
  167DOPC  H12R20279   6.191   7.395   6.032  0.8596  1.6498  0.8358
  167DOPC  H12S20280   6.312   7.507   5.959  0.0241 -0.6203  0.4026
  167DOPC  C21320281   6.136   7.459   5.832  0.0466 -0.1816 -0.0156
  167DOPC  H13R20282   6.069   7.373   5.809 -0.3299  0.0621  0.1555
  167DOPC  H13S20283   6.199   7.481   5.744  1.9312 -2.2858  0.7173
  167DOPC  C21420284   6.051   7.580   5.870 -0.6007 -0.1307  0.8111
  167DOPC  H14R20285   6.098   7.643   5.949 -2.7812  2.5909  0.0920
  167DOPC  H14S20286   5.962   7.546   5.927 -1.0589  0.5261  0.5016
  167DOPC  C21520287   6.013   7.673   5.751 -0.2240 -0.5085 -0.7337
  167DOPC  H15R20288   5.986   7.617   5.660  0.9062 -0.5805 -1.0435
  167DOPC  H15S20289   6.090   7.749   5.724  0.3515 -0.5356  0.7223
  167DOPC  C21620290   5.900   7.772   5.796 -0.5772 -0.0921 -0.1322
  167DOPC  H16R20291   5.907   7.794   5.905 -2.7627  0.5206 -0.0846
  167DOPC  H16S20292   5.803   7.723   5.775 -0.7782  1.0761 -2.1247
  167DOPC  C21720293   5.907   7.903   5.716 -0.0009  0.1565  0.2580
  167DOPC  H17R20294   5.879   7.871   5.613 -0.2624 -0.7271  0.5981
  167DOPC  H17S20295   6.009   7.946   5.710  0.0586 -0.1793 -1.8350
  167DOPC  C21820296   5.809   8.012   5.760  0.4784 -0.1094 -0.0517
  167DOPC  H18R20297   5.811   8.046   5.866 -0.4488  1.1503 -0.4225
  167DOPC  H18S20298   5.705   7.996   5.725  0.7686 -0.8015 -0.6149
  167DOPC  H18T20299   5.834   8.101   5.699 -0.1790  1.0801  1.3363
  167DOPC   C3320300   6.763   7.498   6.170  0.0130 -0.1039 -0.1072
  167DOPC   H3X20301   6.679   7.567   6.148  0.9297  1.9052  2.1969
  167DOPC   H3Y20302   6.713   7.407   6.209 -0.0672  0.7199  1.8031
  167DOPC   C3420303   6.849   7.480   6.049  0.6568  0.3646  0.1474
  167DOPC   H4X20304   6.938   7.416   6.067  2.1314  2.1429 -0.4628
  167DOPC   H4Y20305   6.881   7.582   6.019  1.9071 -0.0851 -0.0919
  167DOPC   C3520306   6.770   7.401   5.940  0.7431 -0.1542 -0.3663
  167DOPC   H5X20307   6.670   7.446   5.919  1.2246  0.5332 -1.2069
  167DOPC   H5Y20308   6.760   7.297   5.978 -0.0519 -0.1245 -0.4766
  167DOPC   C3620309   6.846   7.387   5.804 -0.1505 -0.5159 -0.1675
  167DOPC   H6X20310   6.862   7.488   5.760 -0.9957  0.4933  1.7241
  167DOPC   H6Y20311   6.944   7.343   5.832  0.0920 -0.2946 -0.6511
  167DOPC   C3720312   6.773   7.304   5.711  0.2319  0.9428  0.3938
  167DOPC   H7X20313   6.778   7.204   5.761  2.5201  0.1003 -1.3299
  167DOPC   H7Y20314   6.669   7.331   5.683 -0.1290 -0.5353  0.2270
  167DOPC   C3820315   6.864   7.292   5.582  0.0884 -0.9210  0.7937
  167DOPC   H8X20316   6.960   7.241   5.606 -0.2538 -2.4399 -0.7973
  167DOPC   H8Y20317   6.886   7.398   5.557 -4.0867 -0.1993 -0.6668
  167DOPC   C3920318   6.802   7.221   5.465 -0.1157  0.3919 -0.3041
  167DOPC   H9X20319   6.838   7.119   5.445 -0.6342 -0.0282  0.8262
  167DOPC  C31020320   6.704   7.274   5.385  0.3696  0.5362 -0.0985
  167DOPC  H10X20321   6.679   7.222   5.292  2.2392 -0.0838 -0.2824
  167DOPC  C31120322   6.646   7.414   5.389  0.3925  0.1523 -0.6820
  167DOPC  H11X20323   6.702   7.475   5.315  2.7208 -2.6083 -1.3823
  167DOPC  H11Y20324   6.674   7.459   5.487 -0.4265 -0.1394 -0.3079
  167DOPC  C31220325   6.493   7.418   5.375 -0.7404  0.5576 -0.3171
  167DOPC  H12X20326   6.463   7.385   5.274  0.3785 -0.3591 -0.3687
  167DOPC  H12Y20327   6.457   7.523   5.388 -1.0767  0.8740 -3.1209
  167DOPC  C31320328   6.423   7.348   5.491 -0.1582 -0.4110  0.1274
  167DOPC  H13X20329   6.475   7.251   5.497 -0.7071 -0.8533 -1.5959
  167DOPC  H13Y20330   6.438   7.408   5.583 -1.2228  1.5579 -0.8927
  167DOPC  C31420331   6.273   7.330   5.459 -0.3286 -0.0804 -0.4746
  167DOPC  H14X20332   6.259   7.271   5.366 -1.2515  0.8945 -0.9733
  167DOPC  H14Y20333   6.228   7.267   5.538 -0.5033  1.8031  0.9946
  167DOPC  C31520334   6.188   7.464   5.434 -0.6488 -0.1921 -0.2474
  167DOPC  H15X20335   6.222   7.504   5.336  0.2076  0.3784  0.2612
  167DOPC  H15Y20336   6.214   7.549   5.501  1.1879 -0.4589 -0.5709
  167DOPC  C31620337   6.038   7.435   5.430 -0.3715 -0.3309 -0.2012
  167DOPC  H16X20338   6.023   7.331   5.393  0.8045 -0.4128 -0.4884
  167DOPC  H16Y20339   5.992   7.431   5.531 -1.6644 -0.7010 -0.7797
  167DOPC  C31720340   5.955   7.539   5.348 -0.6393  0.2163 -0.0728
  167DOPC  H17X20341   5.972   7.646   5.372 -2.3465  0.7194 -0.9766
  167DOPC  H17Y20342   5.973   7.516   5.241  0.4255  0.2012  0.0932
  167DOPC  C31820343   5.802   7.530   5.371  0.4050  0.0308 -0.1649
  167DOPC  H18X20344   5.781   7.575   5.471  0.2552  1.2918 -0.7443
  167DOPC  H18Y20345   5.747   7.580   5.288  1.3925 -0.1416 -0.9395
  167DOPC  H18Z20346   5.771   7.424   5.370  0.6046 -0.0350 -1.6093
  168DOPC     N20347   2.140   6.599   7.156 -0.2153 -0.1180  0.2182
  168DOPC   C1220348   2.185   6.469   7.090 -0.6504  0.0408  0.7204
  168DOPC  H12A20349   2.106   6.406   7.052  0.5268  0.4111 -2.6724
  168DOPC  H12B20350   2.240   6.413   7.163  0.8489 -0.5412 -0.7874
  168DOPC   C1320351   2.093   6.708   7.069 -0.2015  0.3735  0.7305
  168DOPC  H13A20352   2.006   6.686   7.009  0.0206 -1.4193  1.0331
  168DOPC  H13B20353   2.079   6.797   7.129  1.5579 -1.4235  4.0821
  168DOPC  H13C20354   2.164   6.729   6.990 -1.1891 -0.6413 -0.4790
  168DOPC   C1420355   2.246   6.656   7.242 -0.7147 -0.0403  0.0254
  168DOPC  H14A20356   2.216   6.749   7.288  2.0663  1.6950 -1.3799
  168DOPC  H14B20357   2.261   6.587   7.323  0.8126  0.2905  0.0454
  168DOPC  H14C20358   2.345   6.672   7.202 -0.9693 -0.0264 -0.6191
  168DOPC   C1520359   2.025   6.549   7.248  0.1568 -0.2656 -0.3380
  168DOPC  H15A20360   1.984   6.635   7.300 -1.0864 -1.4663  0.7338
  168DOPC  H15B20361   2.062   6.478   7.319 -1.6848 -1.5690 -0.6151
  168DOPC  H15C20362   1.941   6.513   7.190 -0.9630 -1.8266  2.1220
  168DOPC   C1120363   2.283   6.480   6.965 -0.5112  0.0635 -0.0207
  168DOPC  H11A20364   2.372   6.545   6.981 -0.7218  0.7381 -1.3960
  168DOPC  H11B20365   2.325   6.379   6.946 -1.3196 -0.7552  2.2614
  168DOPC     P20366   2.093   6.450   6.782  0.2732  0.1281 -0.1720
  168DOPC   O1320367   2.042   6.539   6.674 -0.0098 -0.5515  0.4807
  168DOPC   O1420368   1.994   6.399   6.880 -0.0465 -0.4132 -0.2932
  168DOPC   O1220369   2.218   6.526   6.851  0.1571 -0.0237  0.3040
  168DOPC   O1120370   2.152   6.319   6.719 -0.0765  0.1225 -0.4204
  168DOPC    C120371   2.277   6.321   6.656 -0.6829  0.4592 -0.2699
  168DOPC    HA20372   2.310   6.215   6.658  1.0022  0.9199  2.9433
  168DOPC    HB20373   2.354   6.385   6.704 -1.5038  1.3748 -0.1248
  168DOPC    C220374   2.263   6.368   6.508 -0.3989 -0.5185  0.0335
  168DOPC    HS20375   2.191   6.453   6.498 -1.3291 -1.3691 -0.6612
  168DOPC   O2120376   2.218   6.256   6.438 -0.2908  0.6937  0.3462
  168DOPC   C2120377   2.136   6.272   6.338  0.0107 -0.2719  0.6881
  168DOPC   O2220378   2.070   6.370   6.314 -0.0252 -0.3251  0.6430
  168DOPC   C2220379   2.133   6.142   6.257 -0.5174  0.0530 -0.2160
  168DOPC   H2R20380   2.031   6.103   6.278 -0.2921  0.6630  2.2822
  168DOPC   H2S20381   2.221   6.085   6.292  0.7210  2.4269  0.7690
  168DOPC    C320382   2.399   6.413   6.447  0.1670 -0.0156 -0.4067
  168DOPC    HX20383   2.471   6.331   6.469  1.8598  1.8796  1.6706
  168DOPC    HY20384   2.434   6.494   6.514 -2.0531 -0.1411  1.0236
  168DOPC   O3120385   2.401   6.448   6.312  0.2555  0.0105 -0.3854
  168DOPC   C3120386   2.355   6.566   6.285  0.8714  0.0149 -0.2526
  168DOPC   O3220387   2.308   6.639   6.373  0.3178 -0.7145  0.8724
  168DOPC   C3220388   2.347   6.582   6.135  0.1662  0.0810  0.3256
  168DOPC   H2X20389   2.438   6.642   6.114  0.9384 -0.7689  1.1719
  168DOPC   H2Y20390   2.365   6.488   6.078  0.5157  1.0433 -1.2179
  168DOPC   C2320391   2.149   6.163   6.107  0.5372  1.0188 -0.4034
  168DOPC   H3R20392   2.100   6.256   6.070  0.8891  0.5178 -2.2191
  168DOPC   H3S20393   2.107   6.075   6.054  0.1162  2.1409 -2.0450
  168DOPC   C2420394   2.295   6.160   6.060 -0.0282  0.6763 -0.0949
  168DOPC   H4R20395   2.347   6.063   6.074  1.4042  0.8677 -3.2392
  168DOPC   H4S20396   2.343   6.228   6.134  1.3011 -0.4474  0.1208
  168DOPC   C2520397   2.313   6.224   5.922 -0.5789 -0.6093  0.5992
  168DOPC   H5R20398   2.422   6.228   5.902 -0.8268 -1.3656 -1.0998
  168DOPC   H5S20399   2.288   6.333   5.929 -0.6831 -0.6753  1.2670
  168DOPC   C2620400   2.250   6.136   5.811 -0.0293 -0.5068 -0.3996
  168DOPC   H6R20401   2.141   6.155   5.820  0.1128  0.1606 -0.0308
  168DOPC   H6S20402   2.281   6.030   5.821 -0.4570 -0.6795 -0.8482
  168DOPC   C2720403   2.304   6.174   5.669 -0.3068  0.3761 -0.2572
  168DOPC   H7R20404   2.406   6.218   5.678  1.4647 -3.4305  0.2280
  168DOPC   H7S20405   2.239   6.250   5.619 -0.2330  2.0461  2.0162
  168DOPC   C2820406   2.326   6.049   5.575 -0.7304 -0.0053 -0.7145
  168DOPC   H8R20407   2.354   6.089   5.475  0.4919  0.5223 -0.1855
  168DOPC   H8S20408   2.227   5.998   5.577 -0.8411  0.2301  0.8961
  168DOPC   C2920409   2.437   5.952   5.622  0.3213 -0.1668  0.0315
  168DOPC   H9R20410   2.465   5.957   5.728  0.8166  3.1563 -0.1428
  168DOPC  C21020411   2.507   5.868   5.538  0.1441  0.1400 -0.4597
  168DOPC  H10R20412   2.590   5.809   5.580  0.4353 -0.3615 -1.7072
  168DOPC  C21120413   2.494   5.857   5.391  0.0883 -0.1092 -0.3078
  168DOPC  H11R20414   2.589   5.818   5.348 -0.5513 -1.6702 -0.3602
  168DOPC  H11S20415   2.470   5.953   5.341  1.2506  0.5823  0.4288
  168DOPC  C21220416   2.377   5.760   5.356 -0.2122 -0.4850 -0.0224
  168DOPC  H12R20417   2.282   5.781   5.410  0.5280 -0.0405  1.1196
  168DOPC  H12S20418   2.412   5.657   5.378  1.0029 -0.2879 -0.9243
  168DOPC  C21320419   2.353   5.753   5.204 -0.7241  0.1951  0.1638
  168DOPC  H13R20420   2.268   5.682   5.197  0.4322 -1.6791  3.2920
  168DOPC  H13S20421   2.439   5.695   5.164 -1.0846 -0.3592  0.1732
  168DOPC  C21420422   2.348   5.876   5.117  0.3210 -0.6714 -0.2845
  168DOPC  H14R20423   2.323   5.846   5.013 -2.2347  0.7895 -0.1501
  168DOPC  H14S20424   2.448   5.925   5.111 -0.2558  0.4177 -1.4417
  168DOPC  C21520425   2.237   5.978   5.156  0.4482  0.0133 -0.4756
  168DOPC  H15R20426   2.242   6.068   5.090 -0.5957 -1.4723 -2.7165
  168DOPC  H15S20427   2.266   5.995   5.261 -1.7098 -2.0712  0.5544
  168DOPC  C21620428   2.102   5.925   5.165  0.6927 -0.7300 -0.2142
  168DOPC  H16R20429   2.033   6.003   5.201  0.8143 -1.1713  1.0150
  168DOPC  H16S20430   2.097   5.837   5.233  0.0014 -0.1406  0.5117
  168DOPC  C21720431   2.053   5.878   5.028 -0.9207 -0.3916  0.1897
  168DOPC  H17R20432   2.114   5.794   4.988 -0.7634 -0.2976  0.2270
  168DOPC  H17S20433   2.055   5.970   4.965  1.1649 -0.1310  0.5493
  168DOPC  C21820434   1.906   5.832   5.033 -0.2810 -0.0046  0.1949
  168DOPC  H18R20435   1.853   5.914   5.086 -2.8623 -1.4257  0.0327
  168DOPC  H18S20436   1.901   5.738   5.093  0.3546 -0.7845 -0.9272
  168DOPC  H18T20437   1.872   5.813   4.928 -1.5741 -0.6683  0.7075
  168DOPC   C3320438   2.217   6.646   6.083  0.0614 -0.3699  0.2983
  168DOPC   H3X20439   2.128   6.582   6.094 -1.5383  1.3277 -1.8182
  168DOPC   H3Y20440   2.245   6.651   5.976  2.5145 -0.4271  0.8672
  168DOPC   C3420441   2.195   6.794   6.122 -0.0176 -0.1146 -0.0099
  168DOPC   H4X20442   2.271   6.856   6.069  1.5872 -0.4744  1.7587
  168DOPC   H4Y20443   2.196   6.817   6.230 -1.9014  1.9304 -0.3609
  168DOPC   C3520444   2.057   6.848   6.068 -0.4685  0.8697 -0.3557
  168DOPC   H5X20445   2.044   6.948   6.116 -1.6876  0.2159  0.7156
  168DOPC   H5Y20446   1.983   6.781   6.116  0.2175  0.4787  0.1774
  168DOPC   C3620447   2.032   6.848   5.918 -0.1766 -0.4663 -0.5279
  168DOPC   H6X20448   2.097   6.927   5.874 -0.5398  0.0525 -0.1446
  168DOPC   H6Y20449   2.060   6.751   5.873  0.3762 -0.4861 -0.1534
  168DOPC   C3720450   1.884   6.890   5.901 -0.1634  0.1424 -0.1595
  168DOPC   H7X20451   1.828   6.797   5.927  0.3078  0.0842  0.7031
  168DOPC   H7Y20452   1.844   6.952   5.984 -1.0019 -0.0912 -0.3838
  168DOPC   C3820453   1.846   6.929   5.760 -0.1280  0.3952 -0.0353
  168DOPC   H8X20454   1.895   6.857   5.691 -0.2168  1.6067 -1.4036
  168DOPC   H8Y20455   1.887   7.028   5.731 -3.3149  1.4059 -1.5607
  168DOPC   C3920456   1.699   6.943   5.730 -0.1720  0.0699  0.3123
  168DOPC   H9X20457   1.630   6.949   5.815 -0.1853 -0.4032  0.3348
  168DOPC  C31020458   1.640   6.936   5.610  0.1196  0.4016  0.1204
  168DOPC  H10X20459   1.531   6.933   5.601  0.2559 -0.2983 -1.9691
  168DOPC  C31120460   1.711   6.935   5.480  0.1888 -0.0706  0.3635
  168DOPC  H11X20461   1.741   6.833   5.447 -0.0264 -0.2119  0.6053
  168DOPC  H11Y20462   1.815   6.969   5.504  0.8257 -1.7537  0.1467
  168DOPC  C31220463   1.646   7.008   5.360 -0.7248 -0.4784  0.1647
  168DOPC  H12X20464   1.724   7.032   5.285 -2.2470 -1.8598 -1.9784
  168DOPC  H12Y20465   1.586   7.094   5.397  0.4204 -0.2295  1.5111
  168DOPC  C31320466   1.544   6.914   5.296 -0.0676  0.2571  0.6533
  168DOPC  H13X20467   1.598   6.818   5.278 -0.1022  0.4337 -0.5054
  168DOPC  H13Y20468   1.455   6.907   5.362 -1.5586  0.4423 -1.2616
  168DOPC  C31420469   1.482   6.971   5.160  0.6646  0.4075 -0.1403
  168DOPC  H14X20470   1.376   6.940   5.166  0.3904  1.1183 -1.1338
  168DOPC  H14Y20471   1.473   7.081   5.168 -2.4327  0.1041  2.5858
  168DOPC  C31520472   1.545   6.935   5.024  0.4281 -0.1518 -0.1129
  168DOPC  H15X20473   1.644   6.985   5.018  1.2122 -1.5970  0.1567
  168DOPC  H15Y20474   1.497   6.979   4.935  2.9108  0.4490 -1.2515
  168DOPC  C31620475   1.558   6.788   4.987 -0.1879 -0.3644  0.3132
  168DOPC  H16X20476   1.630   6.735   5.054  1.3587 -2.2095 -2.5812
  168DOPC  H16Y20477   1.463   6.731   4.992  0.7397 -2.2040 -1.3598
  168DOPC  C31720478   1.607   6.779   4.840 -0.7633  0.2442  0.4841
  168DOPC  H17X20479   1.545   6.835   4.767  2.1732  1.8890 -0.9411
  168DOPC  H17Y20480   1.709   6.823   4.849 -0.0729  0.2508 -4.4944
  168DOPC  C31820481   1.589   6.631   4.794 -0.0796  0.4471 -0.6932
  168DOPC  H18X20482   1.481   6.608   4.788 -0.3397  1.1701  0.7972
  168DOPC  H18Y20483   1.639   6.613   4.696  0.8366 -0.9443 -0.0094
  168DOPC  H18Z20484   1.636   6.554   4.859 -0.1999  0.2902 -0.7906
  169DOPC     N20485   7.140   1.062   7.138  0.1189  0.3975  0.1236
  169DOPC   C1220486   7.140   1.082   6.985 -0.2413  0.0924 -0.0375
  169DOPC  H12A20487   7.198   0.997   6.952  1.6950  1.2959  0.1369
  169DOPC  H12B20488   7.198   1.171   6.966  0.2280 -0.4528 -1.2742
  169DOPC   C1320489   7.052   1.150   7.208  0.1833 -0.1503 -0.2927
  169DOPC  H13A20490   7.070   1.149   7.314 -1.1250  0.6805 -0.0452
  169DOPC  H13B20491   7.049   1.256   7.187 -4.7305 -0.1174 -0.4124
  169DOPC  H13C20492   6.953   1.109   7.197  0.7705 -1.3794 -1.4944
  169DOPC   C1420493   7.279   1.074   7.183  0.3021  0.4504 -0.2624
  169DOPC  H14A20494   7.318   1.169   7.148 -1.6767  1.3691 -0.1526
  169DOPC  H14B20495   7.303   1.061   7.288 -0.5552  1.6496  0.1054
  169DOPC  H14C20496   7.333   0.993   7.137 -0.5418  0.1192 -0.7008
  169DOPC   C1520497   7.088   0.922   7.160  0.4826 -0.3458 -0.0012
  169DOPC  H15A20498   7.165   0.853   7.191 -0.8699 -0.7291  2.8748
  169DOPC  H15B20499   7.021   0.890   7.081 -1.1223  2.0300  0.3082
  169DOPC  H15C20500   7.021   0.917   7.245 -0.3659  2.3058 -0.4424
  169DOPC   C1120501   7.007   1.096   6.912  0.3977 -0.4024 -0.0126
  169DOPC  H11A20502   6.953   1.177   6.966 -0.1001 -0.3226 -0.6143
  169DOPC  H11B20503   7.022   1.129   6.807 -4.2725  0.1848 -0.7177
  169DOPC     P20504   6.961   0.840   6.834 -0.0948 -0.1864 -0.1047
  169DOPC   O1320505   6.837   0.777   6.782  0.4600  0.3045  0.1487
  169DOPC   O1420506   7.045   0.749   6.917 -0.7447 -0.1682  0.0513
  169DOPC   O1220507   6.934   0.972   6.920 -0.0308  0.4299  0.1281
  169DOPC   O1120508   7.053   0.892   6.715  0.3638  1.0433  0.1399
  169DOPC    C120509   6.983   0.961   6.605 -0.1682 -0.6023 -0.8826
  169DOPC    HA20510   7.054   1.043   6.578  1.3768 -1.1095  1.2752
  169DOPC    HB20511   6.893   1.008   6.649 -0.3591 -0.6267 -1.2506
  169DOPC    C220512   6.957   0.868   6.486  1.4282 -0.5841  0.0320
  169DOPC    HS20513   6.908   0.775   6.524 -0.0058  0.6499  1.3357
  169DOPC   O2120514   7.086   0.838   6.428 -0.2994  0.4817  0.0187
  169DOPC   C2120515   7.111   0.714   6.381  0.2272 -0.0688  0.2080
  169DOPC   O2220516   7.024   0.633   6.360  0.0856 -0.6225 -0.4052
  169DOPC   C2220517   7.259   0.702   6.361 -0.0785  0.2607  0.0810
  169DOPC   H2R20518   7.306   0.660   6.452  0.4134 -0.1896 -0.3740
  169DOPC   H2S20519   7.301   0.799   6.325  2.0049 -0.6055 -0.0014
  169DOPC    C320520   6.853   0.940   6.389 -0.5855 -1.1115 -0.2595
  169DOPC    HX20521   6.886   1.046   6.388 -1.1584 -0.8485  2.1456
  169DOPC    HY20522   6.761   0.936   6.452 -0.5195 -1.5754 -0.1855
  169DOPC   O3120523   6.832   0.881   6.256 -0.1657 -0.8196 -0.1375
  169DOPC   C3120524   6.747   0.780   6.262 -0.3554  0.2806 -0.6238
  169DOPC   O3220525   6.705   0.723   6.362  0.6232 -0.5541  0.3041
  169DOPC   C3220526   6.714   0.724   6.124  0.2366  0.4818 -0.4104
  169DOPC   H2X20527   6.652   0.806   6.082  1.3770  2.5032  1.6793
  169DOPC   H2Y20528   6.808   0.725   6.065  0.4938  1.2727  0.0112
  169DOPC   C2320529   7.307   0.596   6.253  0.4604 -0.3059 -0.1766
  169DOPC   H3R20530   7.258   0.498   6.274  2.0217 -1.5274 -1.9116
  169DOPC   H3S20531   7.417   0.589   6.257  0.4854 -0.2725 -0.7356
  169DOPC   C2420532   7.271   0.647   6.115 -0.2197  0.2750  0.1797
  169DOPC   H4R20533   7.280   0.757   6.100 -1.5198  0.2604 -0.8761
  169DOPC   H4S20534   7.165   0.629   6.087  0.2991 -1.0811 -1.0019
  169DOPC   C2520535   7.359   0.584   6.002  0.4325 -0.1901 -1.0636
  169DOPC   H5R20536   7.326   0.480   5.982 -1.9803  0.3525 -0.2601
  169DOPC   H5S20537   7.466   0.587   6.030  0.5855  1.1085 -1.7171
  169DOPC   C2620538   7.352   0.654   5.871  0.4397 -0.1249  1.0051
  169DOPC   H6R20539   7.392   0.758   5.875  0.6755 -0.0953 -0.9911
  169DOPC   H6S20540   7.247   0.670   5.839  0.5072  0.0930  0.8871
  169DOPC   C2720541   7.420   0.584   5.752 -0.4737  0.5170 -0.4802
  169DOPC   H7R20542   7.508   0.527   5.790  0.4698  1.9467 -0.4562
  169DOPC   H7S20543   7.464   0.670   5.697 -0.4819  1.5846  1.1128
  169DOPC   C2820544   7.330   0.491   5.671 -0.1447  0.2055  0.6259
  169DOPC   H8R20545   7.233   0.543   5.662 -1.2722 -1.9187 -0.0522
  169DOPC   H8S20546   7.320   0.395   5.727  3.5565 -0.8005 -0.1502
  169DOPC   C2920547   7.409   0.457   5.542 -0.6801 -0.0574  0.0808
  169DOPC   H9R20548   7.463   0.361   5.540 -1.3808 -0.6834  3.7350
  169DOPC  C21020549   7.422   0.533   5.432  0.3762 -0.5575  0.3231
  169DOPC  H10R20550   7.483   0.500   5.346  1.1155  1.1383  0.1427
  169DOPC  C21120551   7.350   0.666   5.409 -0.6044 -0.1730 -0.2805
  169DOPC  H11R20552   7.410   0.742   5.354  1.0541 -0.3260  1.2223
  169DOPC  H11S20553   7.331   0.711   5.509 -0.2611 -1.5629  0.4310
  169DOPC  C21220554   7.215   0.663   5.337 -0.1628  0.4928 -0.7700
  169DOPC  H12R20555   7.154   0.756   5.341 -0.7497  0.0712  1.2403
  169DOPC  H12S20556   7.162   0.579   5.386  1.6735  0.2438  0.8928
  169DOPC  C21320557   7.227   0.612   5.187 -0.2358 -0.6170 -0.3225
  169DOPC  H13R20558   7.123   0.599   5.150  0.7406 -3.0698 -2.4551
  169DOPC  H13S20559   7.288   0.519   5.181 -1.0711 -1.3121  1.1961
  169DOPC  C21420560   7.297   0.719   5.110 -0.4948 -0.1058  0.4889
  169DOPC  H14R20561   7.406   0.716   5.134  0.1097  0.0588 -1.9799
  169DOPC  H14S20562   7.259   0.816   5.147  0.0418  1.0339 -1.7618
  169DOPC  C21520563   7.280   0.693   4.954 -0.5793 -0.4481 -0.1315
  169DOPC  H15R20564   7.171   0.682   4.937 -0.8578 -1.3218  1.8509
  169DOPC  H15S20565   7.322   0.592   4.935  1.6563  0.8172 -2.6776
  169DOPC  C21620566   7.359   0.800   4.882  0.2006 -0.2336 -0.5128
  169DOPC  H16R20567   7.463   0.795   4.919 -0.4772  0.9348  1.6890
  169DOPC  H16S20568   7.318   0.899   4.910 -0.7775 -0.7864  0.0637
  169DOPC  C21720569   7.360   0.789   4.732 -0.4604 -0.0187  0.1614
  169DOPC  H17R20570   7.389   0.683   4.717  2.7065  0.9035 -1.0606
  169DOPC  H17S20571   7.423   0.861   4.675 -0.3965 -1.8319 -2.1803
  169DOPC  C21820572   7.212   0.808   4.685 -0.1612 -0.0806 -0.6412
  169DOPC  H18R20573   7.176   0.704   4.701  2.5282 -0.9099  0.4962
  169DOPC  H18S20574   7.199   0.839   4.579  1.6528  2.0729 -0.3077
  169DOPC  H18T20575   7.161   0.881   4.751  0.2055  1.0396 -1.5563
  169DOPC   C3320576   6.645   0.582   6.126 -0.7846  0.5245 -0.3007
  169DOPC   H3X20577   6.608   0.553   6.025 -1.2045 -0.6948  0.1906
  169DOPC   H3Y20578   6.558   0.594   6.194 -2.2214  0.6571 -2.0849
  169DOPC   C3420579   6.739   0.472   6.173  0.5989  0.1740 -0.1066
  169DOPC   H4X20580   6.776   0.489   6.276 -0.0931 -0.6545  0.2863
  169DOPC   H4Y20581   6.830   0.494   6.113 -0.1783  3.0107 -0.3954
  169DOPC   C3520582   6.685   0.326   6.170  0.2500 -0.3546  0.1047
  169DOPC   H5X20583   6.599   0.339   6.240  0.1796 -0.0510 -0.0366
  169DOPC   H5Y20584   6.762   0.261   6.218  1.3749 -0.0720 -1.2446
  169DOPC   C3620585   6.627   0.275   6.027 -0.3488 -0.2653 -1.2333
  169DOPC   H6X20586   6.534   0.330   5.999 -0.0911  1.7015  1.3374
  169DOPC   H6Y20587   6.709   0.301   5.957  2.0415  0.3089  1.5735
  169DOPC   C3720588   6.612   0.131   6.026 -0.2797  0.5168 -0.3976
  169DOPC   H7X20589   6.709   0.080   6.043  0.4750  1.3916 -1.8859
  169DOPC   H7Y20590   6.538   0.099   6.102 -0.0274  0.8069 -0.0263
  169DOPC   C3820591   6.544   0.077   5.894 -0.1009 -0.1403  0.5897
  169DOPC   H8X20592   6.467   0.156   5.875 -1.6180 -1.8912 -0.8487
  169DOPC   H8Y20593   6.492  -0.021   5.898  1.0513 -0.9430 -2.0450
  169DOPC   C3920594   6.649   0.080   5.786 -0.5767  0.2651  0.2794
  169DOPC   H9X20595   6.754   0.060   5.811 -0.0568  1.6552 -0.6721
  169DOPC  C31020596   6.614   0.092   5.653 -0.6277 -0.8345  0.3303
  169DOPC  H10X20597   6.686   0.086   5.570 -1.2381  1.7332 -0.4748
  169DOPC  C31120598   6.475   0.094   5.595 -0.3620  0.4172  0.8011
  169DOPC  H11X20599   6.403   0.137   5.668 -2.8555 -0.3804 -1.1023
  169DOPC  H11Y20600   6.445  -0.006   5.557  0.6312  0.4271 -0.0649
  169DOPC  C31220601   6.495   0.169   5.461  0.3758 -0.5337  0.0177
  169DOPC  H12X20602   6.552   0.103   5.393  2.2912 -0.1471  1.1692
  169DOPC  H12Y20603   6.540   0.270   5.472 -2.2114  0.9472 -1.9388
  169DOPC  C31320604   6.364   0.180   5.380 -0.0074 -0.4984 -0.1844
  169DOPC  H13X20605   6.392   0.232   5.286  0.7087 -2.4605 -1.1197
  169DOPC  H13Y20606   6.337   0.074   5.359  0.0005 -1.0933  2.4054
  169DOPC  C31420607   6.240   0.236   5.456  0.0903 -0.1848  0.1172
  169DOPC  H14X20608   6.231   0.185   5.555  0.9840 -0.3930  0.0916
  169DOPC  H14Y20609   6.259   0.340   5.491  0.8919  0.1351 -1.2334
  169DOPC  C31520610   6.110   0.215   5.380  0.4023 -0.0578  0.4364
  169DOPC  H15X20611   6.017   0.202   5.440 -0.2046  0.1683 -0.4321
  169DOPC  H15Y20612   6.118   0.119   5.325 -1.6143  0.4342 -0.8595
  169DOPC  C31620613   6.087   0.322   5.266  0.2703  0.3478  0.2943
  169DOPC  H16X20614   6.049   0.417   5.310 -2.9015  0.6631 -2.7105
  169DOPC  H16Y20615   6.179   0.339   5.208 -0.9815 -0.6577 -2.1086
  169DOPC  C31720616   5.977   0.287   5.159  0.5617  0.5888  0.0391
  169DOPC  H17X20617   5.971   0.371   5.088 -2.4188  0.4070 -0.0315
  169DOPC  H17Y20618   6.019   0.195   5.113 -3.2007 -2.5207  2.2176
  169DOPC  C31820619   5.835   0.251   5.204 -0.5647  0.4134  0.3262
  169DOPC  H18X20620   5.839   0.179   5.288 -3.8138 -0.2712  0.0147
  169DOPC  H18Y20621   5.796   0.345   5.248  1.8521  2.4827 -1.5845
  169DOPC  H18Z20622   5.772   0.208   5.123  1.7868 -2.5711 -0.1129
  170DOPC     N20623   6.974   6.022   6.890  0.9154  0.1667  0.6358
  170DOPC   C1220624   7.100   5.946   6.857  0.1577  0.5212 -0.1498
  170DOPC  H12A20625   7.087   5.839   6.849  0.8691  0.3572  0.7268
  170DOPC  H12B20626   7.169   5.962   6.939  0.3869 -2.2241  0.2713
  170DOPC   C1320627   6.992   6.171   6.894 -0.1600  0.9887  0.1395
  170DOPC  H13A20628   7.059   6.201   6.973  1.2024  0.3042 -0.7186
  170DOPC  H13B20629   7.034   6.198   6.799  2.3990  2.1659  1.5066
  170DOPC  H13C20630   6.893   6.214   6.887 -1.3845 -1.7372 -0.6683
  170DOPC   C1420631   6.923   5.979   7.024  0.3553 -0.1628 -0.3712
  170DOPC  H14A20632   6.827   6.020   7.050  0.4545  0.8274 -1.4859
  170DOPC  H14B20633   6.915   5.872   7.024  1.6593 -0.2824 -1.3172
  170DOPC  H14C20634   6.995   6.000   7.103 -1.0209  2.7696  0.2440
  170DOPC   C1520635   6.869   5.975   6.790 -0.2337 -0.1143  0.0057
  170DOPC  H15A20636   6.842   5.871   6.780 -0.7434 -0.1906  1.8771
  170DOPC  H15B20637   6.896   6.009   6.691  1.0806 -0.4017  0.2463
  170DOPC  H15C20638   6.775   6.025   6.806 -0.0033  1.0209 -1.8731
  170DOPC   C1120639   7.179   5.974   6.719  0.0727  0.3958  0.1308
  170DOPC  H11A20640   7.268   5.912   6.694 -1.1402 -2.0108  1.3932
  170DOPC  H11B20641   7.104   5.933   6.649 -0.0136  0.0393  0.4256
  170DOPC     P20642   7.312   6.202   6.725  0.0667 -0.0220 -0.0509
  170DOPC   O1320643   7.365   6.161   6.856 -0.1158  0.2058  0.4828
  170DOPC   O1420644   7.275   6.345   6.711  0.1071  0.3309 -0.0610
  170DOPC   O1220645   7.194   6.112   6.689  0.3828 -0.4970  0.2096
  170DOPC   O1120646   7.405   6.165   6.602 -0.0407  0.5896  0.2219
  170DOPC    C120647   7.361   6.199   6.465 -0.0930 -0.5636 -0.7838
  170DOPC    HA20648   7.254   6.170   6.458 -0.6999  1.2570  0.4737
  170DOPC    HB20649   7.429   6.132   6.407  1.1326 -0.6139  0.6692
  170DOPC    C220650   7.374   6.349   6.417 -0.9308 -0.1437 -0.5503
  170DOPC    HS20651   7.284   6.403   6.454 -1.4678 -0.9942 -0.5927
  170DOPC   O2120652   7.377   6.350   6.272 -0.2886  0.0004 -0.1569
  170DOPC   C2120653   7.272   6.311   6.208 -0.1173  0.2210  0.5976
  170DOPC   O2220654   7.165   6.289   6.260  0.0287 -0.1992 -0.3734
  170DOPC   C2220655   7.299   6.292   6.057 -0.5683  0.5250 -0.4492
  170DOPC   H2R20656   7.212   6.322   5.996  0.0592 -1.1082 -2.2456
  170DOPC   H2S20657   7.329   6.186   6.043  1.5109  1.1736 -1.3822
  170DOPC    C320658   7.508   6.413   6.461  0.2216 -0.5047 -0.0511
  170DOPC    HX20659   7.597   6.367   6.414 -0.4178 -1.6253 -0.2128
  170DOPC    HY20660   7.511   6.386   6.569  1.4461 -1.2326 -0.2566
  170DOPC   O3120661   7.500   6.556   6.422  0.6437  0.6997  0.1058
  170DOPC   C3120662   7.522   6.636   6.521 -0.0451 -0.5229  0.2655
  170DOPC   O3220663   7.567   6.608   6.632  0.1872  0.1698 -0.2462
  170DOPC   C3220664   7.496   6.771   6.470  0.0820 -0.0325  0.2309
  170DOPC   H2X20665   7.558   6.793   6.380 -0.3915 -0.8030 -0.2961
  170DOPC   H2Y20666   7.388   6.770   6.444  0.3587 -1.7019 -1.0030
  170DOPC   C2320667   7.428   6.369   6.004  0.4064 -0.3699  0.5211
  170DOPC   H3R20668   7.523   6.339   6.053  1.9363 -1.3241 -2.7399
  170DOPC   H3S20669   7.417   6.475   6.033  0.9024 -0.2800  0.3822
  170DOPC   C2420670   7.442   6.362   5.848 -0.1643  0.7744  0.8043
  170DOPC   H4R20671   7.461   6.256   5.823 -1.5975  0.7292 -0.2859
  170DOPC   H4S20672   7.531   6.427   5.835  0.6589 -0.2731  1.0522
  170DOPC   C2520673   7.321   6.423   5.773  0.7518 -0.6272  0.1448
  170DOPC   H5R20674   7.309   6.530   5.800  0.6535 -0.5655 -0.1342
  170DOPC   H5S20675   7.221   6.377   5.785 -0.0580  0.5756 -1.6059
  170DOPC   C2620676   7.360   6.428   5.620  0.3174 -0.2456 -0.3152
  170DOPC   H6R20677   7.401   6.328   5.595  0.8355 -0.3119  0.7231
  170DOPC   H6S20678   7.443   6.498   5.595  0.4971 -0.9166 -1.7212
  170DOPC   C2720679   7.245   6.469   5.534 -0.0227 -0.2123  0.3004
  170DOPC   H7R20680   7.173   6.501   5.612  0.2840 -0.7015  0.7893
  170DOPC   H7S20681   7.208   6.379   5.481 -0.0533  0.8950 -1.6653
  170DOPC   C2820682   7.275   6.592   5.436 -0.0976 -0.1000  0.2412
  170DOPC   H8R20683   7.351   6.554   5.365  0.6434 -1.9763  1.9266
  170DOPC   H8S20684   7.312   6.681   5.492  1.0482  0.6604 -1.6340
  170DOPC   C2920685   7.144   6.610   5.369 -0.1300  0.7195 -0.7886
  170DOPC   H9R20686   7.067   6.615   5.447  0.8060  0.1888  0.2021
  170DOPC  C21020687   7.107   6.607   5.237  0.2578 -0.3654 -0.0747
  170DOPC  H10R20688   7.003   6.600   5.201 -0.5863  0.1602  2.0775
  170DOPC  C21120689   7.199   6.598   5.117  0.3882 -0.4041 -0.3963
  170DOPC  H11R20690   7.160   6.528   5.040 -1.3203  0.3334 -0.2445
  170DOPC  H11S20691   7.304   6.576   5.148  1.1571  3.9774  0.7053
  170DOPC  C21220692   7.187   6.748   5.067 -0.3392  0.2931 -0.5388
  170DOPC  H12R20693   7.259   6.755   4.983  1.7423  0.7198  1.2009
  170DOPC  H12S20694   7.225   6.812   5.149 -0.4187 -0.9067  0.4598
  170DOPC  C21320695   7.048   6.798   5.022  0.0295 -0.0790 -0.1262
  170DOPC  H13R20696   6.986   6.816   5.112  0.1162  1.6482 -0.3664
  170DOPC  H13S20697   6.989   6.715   4.977 -0.1582 -0.2423  0.4133
  170DOPC  C21420698   7.052   6.903   4.915  0.7634 -0.3681 -0.1289
  170DOPC  H14R20699   7.115   6.989   4.947  0.8225  0.7038 -2.8593
  170DOPC  H14S20700   6.954   6.954   4.906  0.2693 -1.3848 -0.5905
  170DOPC  C21520701   7.095   6.851   4.781 -0.3859 -0.1138 -0.1481
  170DOPC  H15R20702   7.028   6.767   4.751 -0.9026  1.0346 -2.4058
  170DOPC  H15S20703   7.196   6.809   4.801 -0.3506  0.2385  0.4547
  170DOPC  C21620704   7.099   6.965   4.675  0.3079 -0.2173 -0.1054
  170DOPC  H16R20705   7.148   7.056   4.714 -0.0449  0.3185 -0.9000
  170DOPC  H16S20706   6.993   7.000   4.673  0.7402  1.2046  0.8159
  170DOPC  C21720707   7.156   6.948   4.541 -0.1349  0.0584  0.6917
  170DOPC  H17R20708   7.137   6.844   4.508 -0.5379  0.6777 -1.1859
  170DOPC  H17S20709   7.266   6.958   4.555  0.2355  0.5406 -1.8782
  170DOPC  C21820710   7.099   7.045   4.435 -0.2591  0.1769 -0.0536
  170DOPC  H18R20711   7.134   7.015   4.334  1.6370  1.5437  0.1283
  170DOPC  H18S20712   7.132   7.151   4.445 -0.0159  0.0402  0.7057
  170DOPC  H18T20713   6.989   7.041   4.442 -0.3461  0.3738 -1.1838
  170DOPC   C3320714   7.520   6.884   6.570  0.5454 -0.1759 -0.3085
  170DOPC   H3X20715   7.625   6.870   6.602  0.5416 -0.3977 -0.3924
  170DOPC   H3Y20716   7.458   6.868   6.661  1.0973 -4.3102 -0.4734
  170DOPC   C3420717   7.483   7.023   6.511 -0.4966 -0.9548 -0.0208
  170DOPC   H4X20718   7.494   7.099   6.592 -0.1134 -0.0610 -0.8971
  170DOPC   H4Y20719   7.375   7.027   6.488 -0.4917 -2.1027 -0.3423
  170DOPC   C3520720   7.575   7.061   6.398  0.6599  0.2338 -0.2582
  170DOPC   H5X20721   7.571   6.982   6.320  1.2090 -3.1236  2.8616
  170DOPC   H5Y20722   7.682   7.060   6.428  1.6303  0.9446 -3.3258
  170DOPC   C3620723   7.550   7.195   6.334  0.1996  0.0999 -0.6959
  170DOPC   H6X20724   7.442   7.211   6.313  0.3112  0.4997 -0.9707
  170DOPC   H6Y20725   7.574   7.261   6.420 -1.2082  0.1848 -0.3383
  170DOPC   C3720726   7.635   7.229   6.217  0.0790 -0.4795  0.0063
  170DOPC   H7X20727   7.638   7.339   6.202  0.3190 -0.6218 -1.1169
  170DOPC   H7Y20728   7.742   7.206   6.237 -0.4802 -0.9401  2.8788
  170DOPC   C3820729   7.597   7.152   6.084  0.4690 -0.0601 -0.1162
  170DOPC   H8X20730   7.582   7.046   6.113  0.9290 -0.1406 -0.1653
  170DOPC   H8Y20731   7.686   7.149   6.017 -0.1674 -0.4375 -0.9562
  170DOPC   C3920732   7.477   7.208   6.013  0.2063 -0.4001 -0.0010
  170DOPC   H9X20733   7.390   7.217   6.080  0.0945 -2.3697  0.1989
  170DOPC  C31020734   7.463   7.233   5.884  1.0477  0.1660  0.1698
  170DOPC  H10X20735   7.359   7.246   5.850  0.7209  0.2027  1.1518
  170DOPC  C31120736   7.569   7.208   5.788  0.1266  0.1529  0.6729
  170DOPC  H11X20737   7.601   7.101   5.787  2.3198  0.6872  2.8440
  170DOPC  H11Y20738   7.658   7.274   5.800 -1.2617  2.3404 -0.3877
  170DOPC  C31220739   7.539   7.248   5.647  0.7085 -0.5248  0.6044
  170DOPC  H12X20740   7.502   7.352   5.662  0.1037 -1.0641  3.5104
  170DOPC  H12Y20741   7.450   7.188   5.619 -0.2995  0.4703  1.5531
  170DOPC  C31320742   7.649   7.230   5.546 -0.2094  0.4135  0.8807
  170DOPC  H13X20743   7.732   7.296   5.581 -1.2906  1.2990  1.8193
  170DOPC  H13Y20744   7.690   7.126   5.548 -2.2762 -0.4830 -0.6798
  170DOPC  C31420745   7.594   7.258   5.404 -0.2074  0.0492 -0.4940
  170DOPC  H14X20746   7.648   7.213   5.318 -1.6601 -0.4874 -1.1638
  170DOPC  H14Y20747   7.494   7.209   5.407  0.9221 -2.7295 -3.3316
  170DOPC  C31520748   7.588   7.410   5.372  1.3434 -0.5993 -0.3207
  170DOPC  H15X20749   7.690   7.453   5.360  1.4505 -0.9413 -0.6693
  170DOPC  H15Y20750   7.538   7.466   5.453  1.6268  1.1825 -1.3366
  170DOPC  C31620751   7.509   7.437   5.235 -0.3321  0.2179 -0.8241
  170DOPC  H16X20752   7.559   7.365   5.167 -0.6724 -0.0640 -0.7785
  170DOPC  H16Y20753   7.405   7.402   5.253 -0.9628  1.6306 -1.6205
  170DOPC  C31720754   7.522   7.583   5.186  0.1871  0.5312  0.3335
  170DOPC  H17X20755   7.460   7.646   5.253 -1.4757 -0.4449 -0.2066
  170DOPC  H17Y20756   7.630   7.606   5.195  0.5267 -0.1038 -1.5060
  170DOPC  C31820757   7.482   7.612   5.040  0.4198  0.1315  0.2379
  170DOPC  H18X20758   7.570   7.572   4.985 -0.2754 -2.2530  0.7417
  170DOPC  H18Y20759   7.397   7.561   4.990 -0.8835  2.8905 -0.5275
  170DOPC  H18Z20760   7.485   7.722   5.024 -1.7512  0.4250  1.5202
  171DOPC     N20761   3.941   2.641   2.852 -0.1351 -0.2528 -0.5556
  171DOPC   C1220762   3.931   2.790   2.840  0.1153 -0.3426 -0.0823
  171DOPC  H12A20763   4.033   2.824   2.851  0.5997 -1.2440 -1.5620
  171DOPC  H12B20764   3.867   2.843   2.909 -3.4153 -2.7920 -1.2000
  171DOPC   C1320765   4.022   2.581   2.736  0.1287 -0.1357 -0.1358
  171DOPC  H13A20766   4.008   2.474   2.724  0.4742 -0.0878 -1.0546
  171DOPC  H13B20767   3.991   2.626   2.643 -2.1573  1.0271  1.1012
  171DOPC  H13C20768   4.128   2.600   2.745  0.3017 -0.7287 -0.7929
  171DOPC   C1420769   3.802   2.577   2.857  0.0571 -0.6060 -0.4168
  171DOPC  H14A20770   3.804   2.469   2.860 -0.7094 -0.6327 -0.7162
  171DOPC  H14B20771   3.766   2.610   2.953  1.0129  1.0534 -0.5833
  171DOPC  H14C20772   3.735   2.613   2.780 -0.6839  0.5722  0.7373
  171DOPC   C1520773   4.015   2.600   2.982  0.2309 -0.4805 -0.3172
  171DOPC  H15A20774   3.948   2.623   3.064  1.6635 -0.3395  0.8531
  171DOPC  H15B20775   4.103   2.662   2.995  0.1889  0.2490 -2.9039
  171DOPC  H15C20776   4.032   2.494   2.971 -1.2843 -0.5959 -1.9085
  171DOPC   C1120777   3.878   2.843   2.706  0.4513 -0.4055 -0.3064
  171DOPC  H11A20778   3.910   2.949   2.703  0.8312 -0.4633  1.1036
  171DOPC  H11B20779   3.933   2.792   2.624  0.8080 -0.6213  0.0615
  171DOPC     P20780   3.639   2.933   2.770  0.0087  0.1182 -0.0597
  171DOPC   O1320781   3.503   2.877   2.767 -0.2965 -0.1673 -0.4005
  171DOPC   O1420782   3.668   3.062   2.699 -0.3251 -0.3894 -0.3390
  171DOPC   O1220783   3.736   2.827   2.705 -0.0513 -0.3930 -0.4259
  171DOPC   O1120784   3.681   2.930   2.921  0.3438 -0.6492 -0.7537
  171DOPC    C120785   3.605   2.874   3.027  0.2475  0.0637 -0.4644
  171DOPC    HA20786   3.659   2.784   3.063  1.2797  1.2813  1.1609
  171DOPC    HB20787   3.501   2.848   2.995 -0.2189  1.0307  0.2067
  171DOPC    C220788   3.605   2.962   3.158  0.2440 -0.1213 -0.4316
  171DOPC    HS20789   3.566   3.063   3.134  1.8366  0.4253 -0.8057
  171DOPC   O2120790   3.737   2.966   3.211 -0.1468 -0.2298  0.0736
  171DOPC   C2120791   3.758   3.063   3.293  0.1031  0.3738 -0.1117
  171DOPC   O2220792   3.679   3.152   3.320 -0.0800 -0.2410  0.5406
  171DOPC   C2220793   3.895   3.049   3.361 -0.0467 -0.1438  0.6480
  171DOPC   H2R20794   3.939   3.147   3.332 -1.3902  1.0511  2.4052
  171DOPC   H2S20795   3.947   2.968   3.305 -0.0693  0.5405 -0.4011
  171DOPC    C320796   3.516   2.898   3.267 -0.6188 -0.5197 -0.1514
  171DOPC    HX20797   3.413   2.879   3.233 -0.4952  0.5922 -1.2141
  171DOPC    HY20798   3.498   2.968   3.352  2.1583 -2.0739  1.8894
  171DOPC   O3120799   3.575   2.780   3.324 -0.4282  0.0547 -0.1573
  171DOPC   C3120800   3.526   2.660   3.297 -0.2403 -0.5873  0.3309
  171DOPC   O3220801   3.421   2.638   3.239  0.2186 -0.2530 -0.6784
  171DOPC   C3220802   3.632   2.552   3.322 -0.1581 -0.0761  0.7188
  171DOPC   H2X20803   3.611   2.467   3.253  0.1856  0.8237 -0.5231
  171DOPC   H2Y20804   3.733   2.597   3.310  0.1943 -0.6040  1.5944
  171DOPC   C2320805   3.890   3.027   3.513 -0.1093 -0.6659 -0.5826
  171DOPC   H3R20806   3.838   2.930   3.530 -1.2309  0.4306  2.9369
  171DOPC   H3S20807   3.831   3.100   3.572 -2.4172 -1.9036 -1.2245
  171DOPC   C2420808   4.030   3.036   3.583 -0.1965 -0.4566  0.3862
  171DOPC   H4R20809   4.074   3.137   3.570  1.8015 -1.3701 -0.4593
  171DOPC   H4S20810   4.104   2.969   3.533 -0.5718 -1.5718  1.2691
  171DOPC   C2520811   4.032   3.013   3.734  0.1125  0.2885  0.3453
  171DOPC   H5R20812   3.956   2.937   3.763  2.9689 -1.7950  3.0768
  171DOPC   H5S20813   4.019   3.111   3.786 -1.0504 -0.2525  1.1335
  171DOPC   C2620814   4.163   2.950   3.786  0.9607 -0.0652  0.0594
  171DOPC   H6R20815   4.249   3.011   3.750  0.2778  0.4374 -0.7577
  171DOPC   H6S20816   4.166   2.849   3.741 -0.9935  0.6352 -1.7941
  171DOPC   C2720817   4.173   2.930   3.936 -0.0103  0.4231  0.1051
  171DOPC   H7R20818   4.269   2.880   3.959  0.8124  2.1682  0.6106
  171DOPC   H7S20819   4.102   2.852   3.971 -0.1962  1.1880  1.4929
  171DOPC   C2820820   4.156   3.049   4.030 -0.4466  0.1982  0.3372
  171DOPC   H8R20821   4.147   3.011   4.134  2.6333 -2.1460 -0.1228
  171DOPC   H8S20822   4.060   3.104   4.017 -0.0983  1.3961  2.3491
  171DOPC   C2920823   4.272   3.140   4.026  0.5348 -0.4353 -0.7504
  171DOPC   H9R20824   4.274   3.215   3.945 -0.6388 -0.7838 -1.1232
  171DOPC  C21020825   4.377   3.123   4.105 -0.6099 -0.1464 -0.3337
  171DOPC  H10R20826   4.463   3.190   4.088 -0.5459  0.3612  1.7010
  171DOPC  C21120827   4.399   3.018   4.220 -0.0695 -0.3200  0.8546
  171DOPC  H11R20828   4.364   2.915   4.195 -0.9400  0.5972 -2.2070
  171DOPC  H11S20829   4.327   3.057   4.295  0.2909 -0.5565  1.3283
  171DOPC  C21220830   4.536   3.017   4.287 -0.6842  0.1287 -0.4520
  171DOPC  H12R20831   4.568   3.123   4.296 -1.7600  0.3108  2.0674
  171DOPC  H12S20832   4.615   2.973   4.223 -2.5029 -1.6336 -1.5672
  171DOPC  C21320833   4.536   2.949   4.428  0.1494 -0.2007  0.2507
  171DOPC  H13R20834   4.522   2.840   4.412 -0.5299 -0.0137 -0.4803
  171DOPC  H13S20835   4.454   2.988   4.492  2.1813  0.6997  2.4470
  171DOPC  C21420836   4.665   2.974   4.507  0.0446 -0.0383  0.3262
  171DOPC  H14R20837   4.760   2.959   4.453  1.7342 -0.0220  3.0753
  171DOPC  H14S20838   4.665   2.897   4.587  2.4578 -0.4130  0.0474
  171DOPC  C21520839   4.656   3.112   4.574 -0.2482  0.4367  0.0460
  171DOPC  H15R20840   4.567   3.117   4.640 -0.7379  0.9752 -0.6384
  171DOPC  H15S20841   4.642   3.191   4.497 -1.9672  0.4935  0.3811
  171DOPC  C21620842   4.787   3.149   4.655  0.6427 -0.9782 -0.0213
  171DOPC  H16R20843   4.871   3.133   4.584 -1.3024 -1.9277 -2.2414
  171DOPC  H16S20844   4.813   3.072   4.731 -0.1535  1.1278  2.5379
  171DOPC  C21720845   4.787   3.301   4.707  0.1621  0.2385 -0.6450
  171DOPC  H17R20846   4.784   3.368   4.618  1.0344  1.1755  0.0193
  171DOPC  H17S20847   4.885   3.320   4.756 -1.5662  0.0914  3.1767
  171DOPC  C21820848   4.688   3.333   4.816  0.2348 -0.2450 -0.7686
  171DOPC  H18R20849   4.587   3.313   4.775 -1.4039  2.4407  1.6188
  171DOPC  H18S20850   4.696   3.439   4.847 -0.2081  0.4771 -2.9545
  171DOPC  H18T20851   4.706   3.265   4.902  0.0101 -0.7027 -1.0747
  171DOPC   C3320852   3.609   2.488   3.458  0.1718  0.2436  0.6664
  171DOPC   H3X20853   3.558   2.559   3.527 -1.3445  1.0499 -1.2033
  171DOPC   H3Y20854   3.705   2.448   3.497 -0.5991 -3.2833 -0.6187
  171DOPC   C3420855   3.534   2.348   3.462  0.3417 -0.2884 -0.0952
  171DOPC   H4X20856   3.593   2.278   3.398  0.1796  0.2463 -0.8476
  171DOPC   H4Y20857   3.434   2.362   3.416  0.9776  2.8727 -0.7099
  171DOPC   C3520858   3.506   2.287   3.597  0.1628 -0.0618 -0.6783
  171DOPC   H5X20859   3.457   2.362   3.664 -0.6704 -1.2295  0.0571
  171DOPC   H5Y20860   3.605   2.262   3.640 -0.3848  0.7364  1.1767
  171DOPC   C3620861   3.418   2.160   3.601  0.2833  0.1840  0.4256
  171DOPC   H6X20862   3.328   2.188   3.543  0.9851 -0.1556 -0.8609
  171DOPC   H6Y20863   3.462   2.084   3.534 -0.5826  0.0351  0.0138
  171DOPC   C3720864   3.399   2.092   3.740  0.2100 -0.1276  0.3465
  171DOPC   H7X20865   3.501   2.083   3.782  0.1071 -1.1249  0.4147
  171DOPC   H7Y20866   3.334   2.160   3.800 -1.8203 -1.3592 -0.3436
  171DOPC   C3820867   3.348   1.945   3.722 -0.6891  0.2223 -0.2686
  171DOPC   H8X20868   3.377   1.892   3.815 -0.5135 -0.7083 -0.8395
  171DOPC   H8Y20869   3.420   1.904   3.647  0.6706  0.3661  0.9246
  171DOPC   C3920870   3.209   1.931   3.676  0.4571 -0.5312  0.5185
  171DOPC   H9X20871   3.159   2.018   3.631 -0.4718 -1.9812 -1.4617
  171DOPC  C31020872   3.129   1.820   3.683 -0.4307 -0.5524 -0.4527
  171DOPC  H10X20873   3.030   1.832   3.637  0.4468  2.8921 -1.7546
  171DOPC  C31120874   3.166   1.686   3.745  0.2231  0.0106 -0.1360
  171DOPC  H11X20875   3.256   1.686   3.810  0.0849 -1.0681  0.0720
  171DOPC  H11Y20876   3.184   1.617   3.660 -2.1462 -0.7622 -0.0755
  171DOPC  C31220877   3.057   1.632   3.834 -0.4864  0.3811 -0.3182
  171DOPC  H12X20878   3.092   1.536   3.877 -2.0691 -0.3280 -0.5507
  171DOPC  H12Y20879   2.964   1.599   3.783  0.0390 -0.0472 -1.0146
  171DOPC  C31320880   3.010   1.722   3.938 -0.1789  0.2079 -0.1088
  171DOPC  H13X20881   3.094   1.786   3.972 -0.0728 -1.1556  2.4825
  171DOPC  H13Y20882   2.930   1.788   3.899  0.1400  0.0066 -1.1421
  171DOPC  C31420883   2.934   1.646   4.050 -0.6187  0.5111 -1.0071
  171DOPC  H14X20884   2.826   1.635   4.027 -1.1807  1.7784  0.8515
  171DOPC  H14Y20885   2.978   1.545   4.066 -0.3415  0.7431 -0.2847
  171DOPC  C31520886   2.951   1.725   4.189 -0.4166  0.3694 -0.1889
  171DOPC  H15X20887   2.917   1.828   4.165 -2.4232 -0.3676 -0.7061
  171DOPC  H15Y20888   3.059   1.717   4.211 -0.1504 -0.0252 -1.5686
  171DOPC  C31620889   2.877   1.651   4.298  0.3372 -0.0887  0.1426
  171DOPC  H16X20890   2.789   1.598   4.257 -1.4891  0.0473  3.4763
  171DOPC  H16Y20891   2.937   1.567   4.338 -0.6809 -0.4242  1.0129
  171DOPC  C31720892   2.827   1.741   4.415  0.2617 -0.2165 -0.4034
  171DOPC  H17X20893   2.773   1.671   4.483  0.7149 -1.3010 -1.1227
  171DOPC  H17Y20894   2.915   1.785   4.467 -0.4362 -0.5657  1.1152
  171DOPC  C31820895   2.726   1.849   4.390  0.2906  0.0881  0.0353
  171DOPC  H18X20896   2.692   1.894   4.485 -0.8254  0.9086 -0.7265
  171DOPC  H18Y20897   2.766   1.935   4.332  0.9294  1.3930  2.3037
  171DOPC  H18Z20898   2.632   1.814   4.342  0.2300 -0.5761  0.6246
  172DOPC     N20899   2.360   3.531   2.712  0.3439 -0.2074  0.6185
  172DOPC   C1220900   2.362   3.474   2.858  0.5291  0.0388 -0.2737
  172DOPC  H12A20901   2.262   3.452   2.890 -0.4100  1.6673 -1.9054
  172DOPC  H12B20902   2.379   3.557   2.925 -1.6353  1.3149 -1.2007
  172DOPC   C1320903   2.293   3.431   2.620 -0.0003  0.3630 -0.0939
  172DOPC  H13A20904   2.349   3.339   2.629 -0.5742  0.0920  0.8029
  172DOPC  H13B20905   2.193   3.419   2.661  1.2035 -0.1090  2.9566
  172DOPC  H13C20906   2.302   3.455   2.515 -2.3563 -0.4842 -0.5612
  172DOPC   C1420907   2.497   3.566   2.661 -0.3094 -0.7153 -0.3210
  172DOPC  H14A20908   2.559   3.479   2.650  1.3494  0.2912  0.7852
  172DOPC  H14B20909   2.495   3.626   2.571 -3.6648  2.9669  1.8510
  172DOPC  H14C20910   2.543   3.634   2.730 -0.9606  0.4799 -1.0294
  172DOPC   C1520911   2.284   3.663   2.708 -0.2231 -0.2403 -0.9557
  172DOPC  H15A20912   2.262   3.708   2.613 -0.5702  1.8576  0.0635
  172DOPC  H15B20913   2.338   3.738   2.764  0.7361 -2.1320  0.8320
  172DOPC  H15C20914   2.189   3.646   2.758  0.9007 -1.1088  1.0212
  172DOPC   C1120915   2.445   3.353   2.896 -0.2663 -0.3248  0.1690
  172DOPC  H11A20916   2.411   3.330   2.999  1.4257  1.3923  1.1851
  172DOPC  H11B20917   2.405   3.271   2.833  1.4697 -0.9506 -0.1701
  172DOPC     P20918   2.655   3.467   2.995 -0.1732 -0.3202 -0.1122
  172DOPC   O1320919   2.638   3.603   2.945  0.4546 -0.9342 -0.0190
  172DOPC   O1420920   2.799   3.433   3.002  0.6741 -0.4602 -0.4836
  172DOPC   O1220921   2.586   3.363   2.900 -0.3120  0.1039  0.2111
  172DOPC   O1120922   2.606   3.453   3.155 -0.2171 -0.2945  1.1765
  172DOPC    C120923   2.630   3.328   3.222  0.3376 -0.5991  0.6600
  172DOPC    HA20924   2.647   3.245   3.151  1.2879  1.2456 -1.3874
  172DOPC    HB20925   2.540   3.306   3.283  0.2960 -0.3366  0.6921
  172DOPC    C220926   2.745   3.330   3.323 -0.3796 -0.0093 -0.9313
  172DOPC    HS20927   2.836   3.308   3.262  0.5045 -0.1591  0.4112
  172DOPC   O2120928   2.713   3.238   3.427  0.3765 -0.2729 -0.3802
  172DOPC   C2120929   2.812   3.165   3.469  0.1053  0.3086  0.1683
  172DOPC   O2220930   2.932   3.178   3.442  0.3585 -0.2007  0.0528
  172DOPC   C2220931   2.765   3.057   3.566  0.1500  0.5402  0.5097
  172DOPC   H2R20932   2.767   2.961   3.510 -0.8236  1.1569 -0.6331
  172DOPC   H2S20933   2.659   3.067   3.600  0.2817  0.7536  0.8686
  172DOPC    C320934   2.767   3.468   3.387  0.2854  0.6725 -0.1606
  172DOPC    HX20935   2.662   3.492   3.417 -0.8897 -0.1252 -3.2719
  172DOPC    HY20936   2.806   3.533   3.306  1.4094  0.7364  0.4145
  172DOPC   O3120937   2.861   3.456   3.496 -0.0578  0.1933 -0.0725
  172DOPC   C3120938   2.874   3.558   3.577  0.0236  0.4912  0.0555
  172DOPC   O3220939   2.794   3.650   3.578 -0.3632 -0.4220  0.7121
  172DOPC   C3220940   3.007   3.541   3.651  0.5274 -0.5578  0.0437
  172DOPC   H2X20941   3.094   3.552   3.583 -0.2122  1.3364 -0.6444
  172DOPC   H2Y20942   3.005   3.624   3.725  0.3723  0.3033 -0.9108
  172DOPC   C2320943   2.853   3.051   3.693 -0.3492 -0.1316  0.6697
  172DOPC   H3R20944   2.862   3.148   3.746 -1.0243 -0.5743  1.6341
  172DOPC   H3S20945   2.956   3.020   3.662 -0.6574 -1.1918  0.6536
  172DOPC   C2420946   2.799   2.952   3.790  0.6519  0.5188  0.1707
  172DOPC   H4R20947   2.789   2.854   3.738 -1.0452 -0.0502  1.4579
  172DOPC   H4S20948   2.697   2.992   3.811 -0.2749 -1.6299  0.0882
  172DOPC   C2520949   2.888   2.930   3.909 -0.0651 -0.1041 -0.2923
  172DOPC   H5R20950   2.830   2.882   3.991  0.5059  0.2174  0.3109
  172DOPC   H5S20951   2.930   3.028   3.940 -2.1537  1.3296 -1.7065
  172DOPC   C2620952   3.009   2.844   3.892  0.2780 -0.3595  0.7363
  172DOPC   H6R20953   3.051   2.882   3.797 -2.1717 -0.2973 -0.4013
  172DOPC   H6S20954   2.978   2.738   3.873  2.0099 -0.4345 -2.3580
  172DOPC   C2720955   3.103   2.837   4.015  0.1515  0.2105 -1.0824
  172DOPC   H7R20956   3.140   2.939   4.041 -1.2102  0.5949 -0.5687
  172DOPC   H7S20957   3.189   2.776   3.979  1.1929  0.9645  0.0595
  172DOPC   C2820958   3.055   2.780   4.154 -0.1372  0.4833  0.5328
  172DOPC   H8R20959   2.992   2.689   4.146 -0.6090  0.9338 -1.3156
  172DOPC   H8S20960   2.983   2.860   4.184 -2.6340 -0.7509 -1.6967
  172DOPC   C2920961   3.169   2.756   4.251  0.3746  0.3376  0.2736
  172DOPC   H9R20962   3.261   2.717   4.205  1.3438  0.2286  2.2244
  172DOPC  C21020963   3.171   2.769   4.381 -0.0475  0.6896  0.1177
  172DOPC  H10R20964   3.264   2.746   4.434  0.5336 -0.3637 -1.2984
  172DOPC  C21120965   3.054   2.808   4.473  0.0911 -0.0500 -0.6478
  172DOPC  H11R20966   2.962   2.811   4.411  0.7897 -0.4500 -1.7496
  172DOPC  H11S20967   3.067   2.910   4.513  0.3835  0.0364 -0.9533
  172DOPC  C21220968   3.032   2.709   4.588 -0.2716  0.0807 -0.3837
  172DOPC  H12R20969   3.043   2.606   4.547  0.5206  0.0594 -0.1367
  172DOPC  H12S20970   2.929   2.725   4.625 -0.5850 -0.6942 -0.8976
  172DOPC  C21320971   3.131   2.719   4.709  0.0379 -0.1510 -0.1321
  172DOPC  H13R20972   3.229   2.688   4.667 -0.0400 -0.7868  0.1554
  172DOPC  H13S20973   3.097   2.652   4.791 -0.9396  0.3713 -0.0928
  172DOPC  C21420974   3.136   2.860   4.771  0.4384 -0.1231  0.2733
  172DOPC  H14R20975   3.038   2.910   4.780 -0.2374 -0.8735 -2.1760
  172DOPC  H14S20976   3.202   2.919   4.704  0.5525 -0.7988 -0.2159
  172DOPC  C21520977   3.210   2.860   4.904  0.1289 -1.0301 -0.3408
  172DOPC  H15R20978   3.146   2.811   4.980  0.2307 -2.6043 -1.2309
  172DOPC  H15S20979   3.225   2.965   4.937 -0.8719 -0.2358 -2.2378
  172DOPC  C21620980   3.348   2.794   4.901 -0.5695 -0.2448 -0.6508
  172DOPC  H16R20981   3.404   2.835   4.815 -1.7638 -1.7298 -2.1931
  172DOPC  H16S20982   3.334   2.685   4.885 -1.0311 -0.3398  0.3232
  172DOPC  C21720983   3.425   2.829   5.033 -0.8890  0.1955 -0.2857
  172DOPC  H17R20984   3.354   2.794   5.111  0.5364 -3.0760 -0.2801
  172DOPC  H17S20985   3.442   2.939   5.038  0.8956  0.0089 -1.2517
  172DOPC  C21820986   3.557   2.753   5.062  0.3289  0.3502  0.2379
  172DOPC  H18R20987   3.588   2.749   5.169 -0.2087  0.6004  0.4085
  172DOPC  H18S20988   3.640   2.795   5.003  0.1248  0.1992 -0.1607
  172DOPC  H18T20989   3.549   2.648   5.027  1.4949  0.9275 -1.8727
  172DOPC   C3320990   3.023   3.413   3.734 -0.2444  0.1972  0.2345
  172DOPC   H3X20991   3.046   3.324   3.672  1.0426  1.0106 -0.4829
  172DOPC   H3Y20992   2.928   3.387   3.787 -0.1164 -0.7165  0.0398
  172DOPC   C3420993   3.135   3.412   3.838 -0.7578  0.2978  0.0478
  172DOPC   H4X20994   3.119   3.495   3.910 -1.3985 -0.1661  0.4559
  172DOPC   H4Y20995   3.224   3.433   3.775 -1.0546  0.8425 -0.1961
  172DOPC   C3520996   3.154   3.284   3.920 -0.0975 -0.2037  0.4716
  172DOPC   H5X20997   3.153   3.199   3.850 -0.4373 -2.4051  2.9898
  172DOPC   H5Y20998   3.068   3.275   3.990  0.0973 -1.4954  0.5521
  172DOPC   C3620999   3.288   3.284   3.987  0.2822  0.2847 -0.7298
  172DOPC   H6X21000   3.366   3.302   3.911  2.2432 -0.0160  1.1150
  172DOPC   H6Y21001   3.297   3.371   4.056  1.4541 -0.4558  0.0723
  172DOPC   C3721002   3.324   3.149   4.057  0.1211  0.1100  0.1821
  172DOPC   H7X21003   3.234   3.120   4.115 -0.1149  1.4480  0.5212
  172DOPC   H7Y21004   3.338   3.070   3.980 -1.3175  1.0781 -1.1447
  172DOPC   C3821005   3.445   3.153   4.150  0.5671  0.1634  0.4314
  172DOPC   H8X21006   3.437   3.228   4.232 -1.5649 -0.8772  1.2322
  172DOPC   H8Y21007   3.528   3.200   4.092  1.3316 -0.4309  1.0209
  172DOPC   C3921008   3.495   3.023   4.211 -0.2119 -0.4647  0.1982
  172DOPC   H9X21009   3.569   2.966   4.155 -1.2497 -0.4467 -1.2377
  172DOPC  C31021010   3.477   2.994   4.338  1.0894 -0.1181  0.1451
  172DOPC  H10X21011   3.508   2.894   4.372  0.1473 -0.2723  0.5979
  172DOPC  C31121012   3.400   3.071   4.437 -0.1485 -0.0941 -0.7620
  172DOPC  H11X21013   3.345   3.000   4.503 -0.2739  0.8136  0.1368
  172DOPC  H11Y21014   3.315   3.133   4.402 -1.2050  0.5587  2.5307
  172DOPC  C31221015   3.502   3.154   4.513  0.5116 -0.5379  1.1295
  172DOPC  H12X21016   3.461   3.243   4.565  1.9333 -0.9300  3.0249
  172DOPC  H12Y21017   3.583   3.198   4.452  1.2637 -1.6909  1.2695
  172DOPC  C31321018   3.575   3.083   4.630 -0.2320  0.5323 -0.1590
  172DOPC  H13X21019   3.500   3.039   4.700  1.2293  1.7411  2.3246
  172DOPC  H13Y21020   3.630   3.000   4.581 -0.2787  0.5180 -0.1865
  172DOPC  C31421021   3.684   3.174   4.701 -0.1158 -0.3727  0.5398
  172DOPC  H14X21022   3.756   3.196   4.620 -1.5772 -1.5308 -1.1649
  172DOPC  H14Y21023   3.640   3.267   4.745 -0.9535 -0.6173  0.2339
  172DOPC  C31521024   3.765   3.092   4.804 -0.3195  0.1448  0.2612
  172DOPC  H15X21025   3.829   3.016   4.756  0.6882 -0.1365  1.9929
  172DOPC  H15Y21026   3.687   3.043   4.866 -1.2589  0.3945 -0.6781
  172DOPC  C31621027   3.854   3.184   4.892  0.0030 -0.5131  0.7283
  172DOPC  H16X21028   3.940   3.224   4.833 -1.2093  0.5595 -0.3899
  172DOPC  H16Y21029   3.800   3.279   4.910 -0.1467 -0.0083 -1.9418
  172DOPC  C31721030   3.916   3.112   5.010  0.1424 -0.3726  0.4489
  172DOPC  H17X21031   3.965   3.021   4.968  1.8840  0.9435 -0.5322
  172DOPC  H17Y21032   3.992   3.188   5.038  0.7900 -0.3798 -1.1807
  172DOPC  C31821033   3.827   3.076   5.130  0.0232 -0.3985 -0.1246
  172DOPC  H18X21034   3.844   3.159   5.202  0.3695  0.6945 -1.4202
  172DOPC  H18Y21035   3.718   3.059   5.118 -0.3325  0.8656  1.0943
  172DOPC  H18Z21036   3.864   2.984   5.180 -0.4746 -1.6618 -1.9810
  173DOPC     N21037   2.496   4.216   3.149  0.0939 -0.1698  0.0377
  173DOPC   C1221038   2.409   4.089   3.153  0.5269 -0.3660 -0.6928
  173DOPC  H12A21039   2.467   4.007   3.114  1.0177 -0.4525  0.1983
  173DOPC  H12B21040   2.327   4.116   3.088 -0.2011  2.4309  1.1908
  173DOPC   C1321041   2.419   4.336   3.186 -0.1568  0.1419  0.4568
  173DOPC  H13A21042   2.346   4.369   3.113 -1.4056  1.0887  2.0526
  173DOPC  H13B21043   2.373   4.318   3.283  1.3689  1.8151  1.5516
  173DOPC  H13C21044   2.489   4.417   3.199  0.4943  0.4809 -3.7551
  173DOPC   C1421045   2.553   4.236   3.013  0.6263  0.1887 -0.2573
  173DOPC  H14A21046   2.617   4.155   2.980 -0.8252 -0.2054 -2.2807
  173DOPC  H14B21047   2.480   4.238   2.934  1.9150 -2.1273 -1.6105
  173DOPC  H14C21048   2.594   4.336   3.006 -1.5122  1.1507  0.0988
  173DOPC   C1521049   2.606   4.199   3.250 -0.6851 -0.5620 -0.2943
  173DOPC  H15A21050   2.564   4.202   3.350  0.4592  1.5665  0.1723
  173DOPC  H15B21051   2.675   4.282   3.246  0.4444 -1.2265  2.5907
  173DOPC  H15C21052   2.670   4.114   3.234  1.7749  1.1557 -0.0837
  173DOPC   C1121053   2.347   4.036   3.289 -0.1793  0.1604 -0.5466
  173DOPC  H11A21054   2.276   3.952   3.272 -1.1502  0.5868  1.2391
  173DOPC  H11B21055   2.431   3.999   3.352  0.8645  2.0475 -0.7459
  173DOPC     P21056   2.130   4.183   3.318  0.0350 -0.2829 -0.3830
  173DOPC   O1321057   2.105   4.149   3.172  0.5337 -0.3742  0.1438
  173DOPC   O1421058   2.112   4.322   3.361  0.4131 -0.3133  0.6855
  173DOPC   O1221059   2.277   4.150   3.356  0.5673  0.1670 -0.3453
  173DOPC   O1121060   2.048   4.084   3.410  0.4855 -0.0687  0.1700
  173DOPC    C121061   2.092   4.072   3.548 -0.0713 -0.0266 -0.3699
  173DOPC    HA21062   2.141   4.161   3.593 -0.1286  0.6085 -1.5223
  173DOPC    HB21063   2.165   3.988   3.554  0.5999  0.3572 -2.4485
  173DOPC    C221064   1.964   4.048   3.641 -0.6423 -0.0919 -0.3180
  173DOPC    HS21065   2.011   4.060   3.741  2.3043 -1.7768 -1.3572
  173DOPC   O2121066   1.909   3.917   3.622 -0.3674  0.7064  0.6675
  173DOPC   C2121067   1.878   3.856   3.734 -0.3858  0.7743 -0.2092
  173DOPC   O2221068   1.876   3.906   3.845  0.7018 -0.5167  0.1172
  173DOPC   C2221069   1.845   3.714   3.694 -0.5471  0.1488  0.0005
  173DOPC   H2R21070   1.920   3.663   3.631 -1.4561 -2.4682  0.9220
  173DOPC   H2S21071   1.753   3.720   3.633  0.6094 -0.1131 -1.8437
  173DOPC    C321072   1.856   4.157   3.620  0.4502  0.1471 -0.2440
  173DOPC    HX21073   1.809   4.144   3.520  1.9465 -0.8656 -0.8598
  173DOPC    HY21074   1.910   4.254   3.611 -2.1395  1.7017  0.1307
  173DOPC   O3121075   1.762   4.161   3.729  0.1849  0.6026 -0.4039
  173DOPC   C3121076   1.806   4.213   3.842 -0.2426  0.8755 -0.0025
  173DOPC   O3221077   1.919   4.254   3.860  0.1615 -0.3316 -0.2747
  173DOPC   C3221078   1.693   4.210   3.948 -0.0708  0.1826  0.7677
  173DOPC   H2X21079   1.594   4.188   3.903  1.5576  0.7698 -3.5856
  173DOPC   H2Y21080   1.712   4.127   4.020 -0.5579  1.2805  2.2030
  173DOPC   C2321081   1.814   3.624   3.819 -0.6456  1.6350 -1.1553
  173DOPC   H3R21082   1.738   3.667   3.887 -1.2245 -1.6758  0.5147
  173DOPC   H3S21083   1.906   3.620   3.882 -0.4292 -0.0021 -1.5187
  173DOPC   C2421084   1.773   3.481   3.782  0.5978  0.9305 -0.9883
  173DOPC   H4R21085   1.779   3.424   3.877 -0.5158  0.3985 -1.2239
  173DOPC   H4S21086   1.850   3.438   3.714  0.8985 -1.7025  0.8555
  173DOPC   C2521087   1.631   3.481   3.720 -0.0513 -0.0457  0.2288
  173DOPC   H5R21088   1.639   3.521   3.617  1.8734  1.1985  0.8119
  173DOPC   H5S21089   1.568   3.546   3.784 -1.4585 -0.9948 -0.1521
  173DOPC   C2621090   1.584   3.333   3.717 -0.3639  0.3687  0.5497
  173DOPC   H6R21091   1.595   3.275   3.811 -0.6563  1.3758  1.2293
  173DOPC   H6S21092   1.648   3.287   3.638  1.2818  1.0438  1.4250
  173DOPC   C2721093   1.440   3.312   3.656  0.3541  0.4534  0.0712
  173DOPC   H7R21094   1.431   3.360   3.557 -2.9926  0.5714  0.3119
  173DOPC   H7S21095   1.365   3.352   3.727 -0.7669 -1.1581 -0.1338
  173DOPC   C2821096   1.405   3.162   3.642 -0.1598 -0.2929 -0.0764
  173DOPC   H8R21097   1.436   3.115   3.738  1.3229  0.7555 -0.0205
  173DOPC   H8S21098   1.469   3.124   3.560  1.1150  0.3981  0.5697
  173DOPC   C2921099   1.252   3.142   3.613 -0.2902 -0.3994 -0.4333
  173DOPC   H9R21100   1.210   3.167   3.514 -0.5100  2.4051  0.2762
  173DOPC  C21021101   1.164   3.100   3.706  0.2935  0.1901 -0.2866
  173DOPC  H10R21102   1.059   3.078   3.680  0.5027  0.4358 -1.3852
  173DOPC  C21121103   1.196   3.067   3.849 -0.0539  0.6085 -0.8528
  173DOPC  H11R21104   1.152   3.145   3.914 -2.5158 -1.1592 -0.2764
  173DOPC  H11S21105   1.305   3.057   3.870  0.1533  3.8702  0.1274
  173DOPC  C21221106   1.141   2.923   3.880 -0.5756 -0.1536  0.2623
  173DOPC  H12R21107   1.179   2.858   3.798 -1.7192 -0.1521 -0.2983
  173DOPC  H12S21108   1.030   2.920   3.868 -0.5344  1.0764 -0.6356
  173DOPC  C21321109   1.187   2.869   4.008 -0.9170  0.7754  1.0474
  173DOPC  H13R21110   1.294   2.898   4.012 -0.2236 -1.3142 -0.6719
  173DOPC  H13S21111   1.186   2.758   4.007 -0.2230  0.7332 -1.6406
  173DOPC  C21421112   1.122   2.922   4.132  0.3419  0.1958 -0.0688
  173DOPC  H14R21113   1.014   2.897   4.121  0.2768  1.2643 -2.7296
  173DOPC  H14S21114   1.128   3.033   4.124  0.2154  0.2245  0.2370
  173DOPC  C21521115   1.194   2.868   4.252  0.3125 -0.2300  0.0997
  173DOPC  H15R21116   1.303   2.887   4.247  0.2561 -0.1095 -0.7332
  173DOPC  H15S21117   1.177   2.759   4.244 -3.1836  0.2316 -0.3437
  173DOPC  C21621118   1.134   2.904   4.376 -0.8783  0.1227  0.0035
  173DOPC  H16R21119   1.025   2.884   4.367 -0.2787 -2.8122 -2.5151
  173DOPC  H16S21120   1.147   3.014   4.390 -1.4314  0.3047 -0.8246
  173DOPC  C21721121   1.204   2.833   4.493  0.0365  0.3897  0.0022
  173DOPC  H17R21122   1.315   2.835   4.486  0.0819  2.8427  0.6156
  173DOPC  H17S21123   1.183   2.724   4.504 -0.5965  0.3169 -1.5813
  173DOPC  C21821124   1.177   2.904   4.626  0.3419 -0.2794 -0.4395
  173DOPC  H18R21125   1.068   2.890   4.644  0.1317  0.7829 -0.8465
  173DOPC  H18S21126   1.196   3.013   4.629  1.1769 -0.4432  0.7517
  173DOPC  H18T21127   1.234   2.866   4.713 -0.8000  0.2433  0.5550
  173DOPC   C3321128   1.686   4.352   4.011 -0.4758 -0.1191  0.6572
  173DOPC   H3X21129   1.625   4.419   3.947  1.3433 -1.2522 -2.5162
  173DOPC   H3Y21130   1.790   4.389   4.018 -1.2386  2.4780 -0.5515
  173DOPC   C3421131   1.625   4.346   4.156 -0.5994  0.2091  0.3320
  173DOPC   H4X21132   1.662   4.437   4.208  3.5793 -1.1552  0.1113
  173DOPC   H4Y21133   1.678   4.267   4.213  0.0441  0.1234 -0.3625
  173DOPC   C3521134   1.479   4.341   4.160 -0.0412  0.5943 -0.3640
  173DOPC   H5X21135   1.441   4.267   4.086  1.8884  0.8297 -1.6636
  173DOPC   H5Y21136   1.446   4.440   4.123  1.0850  1.7238  1.5136
  173DOPC   C3621137   1.420   4.296   4.292  0.5024  0.3080  0.7329
  173DOPC   H6X21138   1.313   4.272   4.276  0.3857  2.4180 -2.6145
  173DOPC   H6Y21139   1.462   4.196   4.319  0.2090 -0.2764 -0.8864
  173DOPC   C3721140   1.433   4.402   4.400  0.5232  0.9945 -0.2110
  173DOPC   H7X21141   1.535   4.417   4.441  0.5670  0.5990 -0.1722
  173DOPC   H7Y21142   1.413   4.499   4.349 -3.1571  0.4721 -0.0209
  173DOPC   C3821143   1.330   4.374   4.509 -1.0416 -0.5544 -1.3610
  173DOPC   H8X21144   1.370   4.448   4.581  1.0885 -1.5260 -1.4524
  173DOPC   H8Y21145   1.339   4.269   4.544 -1.9643 -0.6117 -1.2887
  173DOPC   C3921146   1.193   4.402   4.467 -0.6997  0.2345  0.3674
  173DOPC   H9X21147   1.185   4.506   4.433  0.6091  0.1976 -0.1250
  173DOPC  C31021148   1.078   4.343   4.492  0.6631  0.4256  0.3306
  173DOPC  H10X21149   0.983   4.380   4.450 -1.3440 -2.5101  1.8856
  173DOPC  C31121150   1.051   4.215   4.573  0.5094 -0.3738 -0.2812
  173DOPC  H11X21151   0.975   4.251   4.646 -2.3563  1.0622 -3.6519
  173DOPC  H11Y21152   1.145   4.173   4.614  0.9251  0.1678 -0.6578
  173DOPC  C31221153   0.992   4.112   4.479 -0.2285 -0.0815 -0.4574
  173DOPC  H12X21154   1.068   4.093   4.400  0.3316 -1.5005  0.3998
  173DOPC  H12Y21155   0.902   4.145   4.423 -0.6480  2.2780  1.4555
  173DOPC  C31321156   0.961   3.993   4.564  0.2074 -0.1619 -0.2952
  173DOPC  H13X21157   1.046   3.950   4.622 -0.5062 -2.5533 -0.8768
  173DOPC  H13Y21158   0.882   4.013   4.639  0.1635 -1.2369 -0.0379
  173DOPC  C31421159   0.893   3.874   4.486  0.4145  0.3752  0.8022
  173DOPC  H14X21160   0.811   3.913   4.423 -0.4887 -0.4942  1.4079
  173DOPC  H14Y21161   0.978   3.828   4.431  2.4312  2.1880  2.1887
  173DOPC  C31521162   0.837   3.776   4.582 -0.2802 -0.1358 -0.2861
  173DOPC  H15X21163   0.747   3.819   4.632 -0.4701 -0.4162 -0.3872
  173DOPC  H15Y21164   0.910   3.768   4.665 -0.1457  0.0631 -0.3835
  173DOPC  C31621165   0.794   3.642   4.516 -0.6241  0.5316 -0.2653
  173DOPC  H16X21166   0.759   3.585   4.605 -0.7564 -1.0525 -1.2845
  173DOPC  H16Y21167   0.715   3.658   4.439  0.7745  0.6852 -1.7388
  173DOPC  C31721168   0.905   3.557   4.454 -0.1101 -0.1096 -0.1664
  173DOPC  H17X21169   0.858   3.481   4.388  1.1710  0.4817 -1.8280
  173DOPC  H17Y21170   0.974   3.626   4.401  1.0788 -0.8117  0.4418
  173DOPC  C31821171   0.982   3.481   4.562  0.4918 -0.0923 -0.3562
  173DOPC  H18X21172   1.032   3.552   4.631 -1.0976 -0.1027  0.8581
  173DOPC  H18Y21173   0.903   3.426   4.618  2.1169 -1.4078  0.7246
  173DOPC  H18Z21174   1.055   3.407   4.520 -0.0066  0.3113 -2.0256
  174DOPC     N21175   3.927   0.987   2.790  0.0719  0.0601  0.2883
  174DOPC   C1221176   3.891   1.014   2.938  0.3445  0.5124 -0.4844
  174DOPC  H12A21177   3.849   0.930   2.991  1.5805  1.6207  2.5530
  174DOPC  H12B21178   3.810   1.086   2.938 -0.9821 -0.8946  1.3276
  174DOPC   C1321179   4.035   0.890   2.786 -0.1912  0.1973 -0.1893
  174DOPC  H13A21180   4.081   0.869   2.691 -0.9342 -0.3333 -0.4438
  174DOPC  H13B21181   4.117   0.925   2.848  0.5662 -0.0283 -1.0469
  174DOPC  H13C21182   4.006   0.796   2.832 -1.7698 -0.2528 -1.9775
  174DOPC   C1421183   3.962   1.109   2.717  0.1299  0.7497 -0.1132
  174DOPC  H14A21184   4.060   1.138   2.753  0.1532  0.4510  0.0716
  174DOPC  H14B21185   3.966   1.104   2.610 -1.4431  0.5529 -0.1847
  174DOPC  H14C21186   3.897   1.192   2.738 -0.5080 -0.0819  1.4120
  174DOPC   C1521187   3.796   0.937   2.726 -0.3866 -0.3546  0.0760
  174DOPC  H15A21188   3.814   0.912   2.623 -0.9240 -0.4992  0.0154
  174DOPC  H15B21189   3.728   1.020   2.738  0.5631  0.3699  0.5984
  174DOPC  H15C21190   3.753   0.850   2.773 -1.5702  0.6121  0.8348
  174DOPC   C1121191   4.004   1.069   3.030  0.3669 -0.5646  0.7642
  174DOPC  H11A21192   3.961   1.087   3.131 -1.8431 -0.9466 -0.0494
  174DOPC  H11B21193   4.085   0.992   3.036  0.4227 -0.5080  0.7348
  174DOPC     P21194   3.975   1.320   2.996 -0.0922 -0.0541 -0.6238
  174DOPC   O1321195   3.833   1.290   2.985 -0.4529 -0.2383 -0.7092
  174DOPC   O1421196   4.026   1.416   2.902  0.2831  0.5317 -0.4009
  174DOPC   O1221197   4.057   1.187   2.984  0.1719 -0.2831 -0.4185
  174DOPC   O1121198   4.009   1.384   3.140  0.1115 -0.4984 -0.4376
  174DOPC    C121199   4.139   1.408   3.190  0.1829  0.5322  0.0387
  174DOPC    HA21200   4.146   1.499   3.253  0.3685  1.2926 -1.0468
  174DOPC    HB21201   4.213   1.420   3.109  1.2380 -0.4028  0.8284
  174DOPC    C221202   4.203   1.293   3.278 -0.1830 -0.1697  0.3062
  174DOPC    HS21203   4.218   1.205   3.211  2.7851 -0.2228  0.8840
  174DOPC   O2121204   4.119   1.269   3.388 -0.2917  0.3618  0.6378
  174DOPC   C2121205   4.099   1.136   3.414 -0.7725  0.7044  0.3991
  174DOPC   O2221206   4.107   1.047   3.331 -0.0428 -0.0999 -0.1109
  174DOPC   C2221207   4.067   1.112   3.562  0.2282  0.2506  0.6722
  174DOPC   H2R21208   3.984   1.038   3.558  0.3633  0.1454 -2.1787
  174DOPC   H2S21209   4.035   1.209   3.606 -0.9555  0.7880 -1.2557
  174DOPC    C321210   4.347   1.325   3.324 -0.2051 -0.3073 -0.1194
  174DOPC    HX21211   4.354   1.419   3.384 -1.0726 -0.6562  0.5595
  174DOPC    HY21212   4.396   1.363   3.232 -0.5633 -1.9102 -1.0093
  174DOPC   O3121213   4.417   1.220   3.397  0.3091  0.0033 -0.2999
  174DOPC   C3121214   4.475   1.126   3.324 -0.3361 -0.5913  0.0590
  174DOPC   O3221215   4.495   1.133   3.201 -0.4589 -0.2603  0.3951
  174DOPC   C3221216   4.512   1.003   3.412 -0.1849  0.0210 -0.2758
  174DOPC   H2X21217   4.597   1.034   3.477  0.0319  0.5186 -0.7906
  174DOPC   H2Y21218   4.426   0.978   3.478  0.9845 -0.9399  0.9292
  174DOPC   C2321219   4.195   1.059   3.636 -0.0940 -0.2995  0.3600
  174DOPC   H3R21220   4.282   1.122   3.609  0.2383 -0.9051  0.0049
  174DOPC   H3S21221   4.211   0.956   3.596 -1.1559  0.0128 -0.9382
  174DOPC   C2421222   4.194   1.048   3.793  0.4136 -0.8363  0.5622
  174DOPC   H4R21223   4.126   0.966   3.825 -0.6162 -0.9388 -1.6711
  174DOPC   H4S21224   4.153   1.148   3.820 -1.3822 -0.9829 -1.3927
  174DOPC   C2521225   4.330   1.034   3.862  0.3175  0.6684  0.0452
  174DOPC   H5R21226   4.323   1.044   3.972 -0.5596  0.0618  0.0511
  174DOPC   H5S21227   4.396   1.121   3.844  2.1918 -0.4661  1.0665
  174DOPC   C2621228   4.415   0.920   3.807  0.3076  0.0891 -0.4088
  174DOPC   H6R21229   4.414   0.923   3.696  0.1193 -0.6567 -0.4324
  174DOPC   H6S21230   4.362   0.826   3.833  0.0095  0.8264  1.8798
  174DOPC   C2721231   4.553   0.907   3.867 -0.2080  0.0716 -0.5783
  174DOPC   H7R21232   4.614   0.995   3.837 -0.8060  0.9553  0.7307
  174DOPC   H7S21233   4.598   0.820   3.814 -3.0975  0.2362 -3.6597
  174DOPC   C2821234   4.554   0.884   4.023  0.1097 -0.3138  0.6117
  174DOPC   H8R21235   4.474   0.931   4.085  1.1345  0.6891  1.1984
  174DOPC   H8S21236   4.654   0.915   4.060 -0.6249  0.0712  2.3571
  174DOPC   C2921237   4.526   0.736   4.036  0.2760  0.9327 -0.7306
  174DOPC   H9R21238   4.444   0.698   3.973  0.0859 -1.3126  0.7468
  174DOPC  C21021239   4.598   0.656   4.114 -0.0317  0.4020 -0.4632
  174DOPC  H10R21240   4.586   0.547   4.113  1.8231  0.0689  2.2902
  174DOPC  C21121241   4.721   0.691   4.193  0.0182  1.4128  0.1789
  174DOPC  H11R21242   4.759   0.792   4.163 -0.3501  1.3083 -0.6582
  174DOPC  H11S21243   4.802   0.621   4.167 -0.2688  0.2831  2.1518
  174DOPC  C21221244   4.703   0.681   4.347 -0.4574 -0.3086  0.6578
  174DOPC  H12R21245   4.627   0.754   4.382  0.2287  0.7655 -0.0048
  174DOPC  H12S21246   4.800   0.709   4.393 -0.0741 -0.6579  0.0763
  174DOPC  C21321247   4.685   0.534   4.392  0.0957  0.0438  0.1802
  174DOPC  H13R21248   4.759   0.479   4.330  0.0343  2.0201 -1.7630
  174DOPC  H13S21249   4.587   0.494   4.358 -0.0047 -0.1586  0.6958
  174DOPC  C21421250   4.703   0.505   4.544  0.2714  0.4387 -0.1285
  174DOPC  H14R21251   4.807   0.519   4.578  0.4908 -3.3321  1.2375
  174DOPC  H14S21252   4.692   0.397   4.567 -2.9594  0.6281 -0.2119
  174DOPC  C21521253   4.599   0.579   4.635  0.6472  0.2089 -0.1480
  174DOPC  H15R21254   4.502   0.528   4.622  0.6867 -0.2309  1.0999
  174DOPC  H15S21255   4.583   0.682   4.595 -1.4565  0.5716  1.4481
  174DOPC  C21621256   4.636   0.605   4.777 -0.2371  0.2102 -0.3514
  174DOPC  H16R21257   4.565   0.680   4.818  1.3195  1.6578 -0.2211
  174DOPC  H16S21258   4.738   0.639   4.804 -0.4716 -1.5921  3.5409
  174DOPC  C21721259   4.624   0.475   4.863  0.3101 -0.1907  0.2949
  174DOPC  H17R21260   4.701   0.406   4.824 -0.3038 -0.8305  0.1907
  174DOPC  H17S21261   4.530   0.427   4.827 -0.4065  1.4295 -0.0889
  174DOPC  C21821262   4.625   0.494   5.012  0.9946 -0.4105  0.3764
  174DOPC  H18R21263   4.723   0.528   5.052  0.7218  0.2487  0.5061
  174DOPC  H18S21264   4.607   0.401   5.070 -0.2710 -0.5261 -0.1770
  174DOPC  H18T21265   4.554   0.574   5.042  0.3930 -0.6178 -0.4572
  174DOPC   C3321266   4.558   0.875   3.331  0.0998 -0.5545 -0.1509
  174DOPC   H3X21267   4.627   0.904   3.248 -0.0022 -1.3693 -0.5262
  174DOPC   H3Y21268   4.466   0.835   3.285 -0.7039  0.7442  0.2756
  174DOPC   C3421269   4.621   0.767   3.409 -0.1210 -0.4536 -0.9217
  174DOPC   H4X21270   4.694   0.813   3.479 -1.7885  0.4275  0.3184
  174DOPC   H4Y21271   4.666   0.689   3.344 -0.0617 -1.6855  0.5436
  174DOPC   C3521272   4.511   0.693   3.500  0.0753 -0.1166  0.5906
  174DOPC   H5X21273   4.467   0.622   3.427  2.0515 -1.4311  0.6023
  174DOPC   H5Y21274   4.423   0.755   3.527  0.2419  0.2744  0.2591
  174DOPC   C3621275   4.564   0.615   3.620 -0.7843  0.0270 -0.2111
  174DOPC   H6X21276   4.639   0.547   3.575  1.4048  2.6285 -0.7791
  174DOPC   H6Y21277   4.614   0.691   3.683 -0.5225 -0.2717 -0.0566
  174DOPC   C3721278   4.459   0.535   3.690 -0.5723 -0.1539  0.2200
  174DOPC   H7X21279   4.386   0.608   3.731  0.1308  0.3512  0.5951
  174DOPC   H7Y21280   4.401   0.478   3.614  0.3069  0.0904 -0.6414
  174DOPC   C3821281   4.505   0.425   3.790  0.0904 -0.0449  0.2414
  174DOPC   H8X21282   4.538   0.463   3.889 -1.7151  0.5489  0.6444
  174DOPC   H8Y21283   4.592   0.373   3.745  1.1406  0.3939  1.6846
  174DOPC   C3921284   4.395   0.323   3.818 -0.6466  0.7520  0.2624
  174DOPC   H9X21285   4.328   0.300   3.734 -0.1984  0.8553 -0.1242
  174DOPC  C31021286   4.388   0.246   3.923  0.1489  0.5444 -0.3645
  174DOPC  H10X21287   4.298   0.184   3.935  0.1986  0.5947  0.3030
  174DOPC  C31121288   4.471   0.246   4.046  0.6809  0.3158 -0.2548
  174DOPC  H11X21289   4.465   0.347   4.092 -0.0623 -0.6687  1.9437
  174DOPC  H11Y21290   4.579   0.225   4.032  0.1653 -2.0370 -1.1770
  174DOPC  C31221291   4.419   0.142   4.145 -0.2804  0.4093 -0.0194
  174DOPC  H12X21292   4.431   0.040   4.101 -0.0396  0.9279 -1.2069
  174DOPC  H12Y21293   4.310   0.157   4.159 -0.1269  0.5132  1.1676
  174DOPC  C31321294   4.503   0.153   4.279 -0.8649  0.2004  0.0722
  174DOPC  H13X21295   4.609   0.157   4.246 -0.8608  3.0394  0.2009
  174DOPC  H13Y21296   4.492   0.259   4.311 -0.3157  0.0553  0.7694
  174DOPC  C31421297   4.482   0.059   4.392 -0.2499 -0.4083  0.0422
  174DOPC  H14X21298   4.383   0.086   4.435  0.4023  1.1970  0.6229
  174DOPC  H14Y21299   4.491  -0.049   4.368 -0.4666 -0.4958  0.3574
  174DOPC  C31521300   4.584   0.078   4.506  0.4018  0.4791 -0.1012
  174DOPC  H15X21301   4.569   0.179   4.550  0.4549  0.9730 -1.1998
  174DOPC  H15Y21302   4.678   0.080   4.448 -0.1374  1.0710 -0.9840
  174DOPC  C31621303   4.585  -0.031   4.612  0.3090  0.3376 -1.2457
  174DOPC  H16X21304   4.488  -0.084   4.609  0.6881 -0.4128 -0.5331
  174DOPC  H16Y21305   4.668  -0.098   4.580 -0.6504 -0.4845 -2.0929
  174DOPC  C31721306   4.620   0.009   4.756  0.1231 -0.3316 -0.2531
  174DOPC  H17X21307   4.607  -0.081   4.818  4.5716 -0.8592  0.1883
  174DOPC  H17Y21308   4.724   0.047   4.763 -0.2042  0.3626  1.3998
  174DOPC  C31821309   4.541   0.131   4.795  0.1013  0.0207  0.1257
  174DOPC  H18X21310   4.591   0.227   4.770  2.4807 -0.9454  0.8432
  174DOPC  H18Y21311   4.446   0.129   4.737  0.6997 -2.5453 -0.8878
  174DOPC  H18Z21312   4.521   0.116   4.903 -0.1979 -2.4643 -0.2101
  175DOPC     N21313   3.779   4.511   3.022 -0.2292 -0.1873  0.6041
  175DOPC   C1221314   3.882   4.408   3.067  0.0009  0.1050 -0.0334
  175DOPC  H12A21315   3.846   4.311   3.036  0.4638 -0.1208  0.1275
  175DOPC  H12B21316   3.890   4.407   3.175  1.7736  1.7729 -0.1098
  175DOPC   C1321317   3.834   4.647   3.027 -0.0521  0.4398 -0.3224
  175DOPC  H13A21318   3.911   4.664   2.953 -0.1544  1.5540 -0.1798
  175DOPC  H13B21319   3.757   4.720   3.009 -2.5535 -2.1398 -0.8620
  175DOPC  H13C21320   3.875   4.661   3.126  0.0819 -0.9749 -0.1549
  175DOPC   C1421321   3.654   4.488   3.092 -0.5865 -0.4939  0.6015
  175DOPC  H14A21322   3.660   4.521   3.195  0.6966 -2.6683  1.3061
  175DOPC  H14B21323   3.576   4.549   3.050  0.5364 -0.4720 -1.5774
  175DOPC  H14C21324   3.620   4.385   3.086 -0.2669 -0.6874  1.8207
  175DOPC   C1521325   3.757   4.478   2.877 -0.4557  0.1969 -0.5133
  175DOPC  H15A21326   3.731   4.374   2.866 -2.5564 -0.4527  6.1274
  175DOPC  H15B21327   3.847   4.494   2.820  0.2373 -1.5445  0.0277
  175DOPC  H15C21328   3.676   4.539   2.840  0.0138  0.4169 -1.2039
  175DOPC   C1121329   4.029   4.421   3.021  0.0326 -0.2941  0.3015
  175DOPC  H11A21330   4.086   4.327   3.037  2.9236  1.3458  0.2053
  175DOPC  H11B21331   4.021   4.435   2.912  2.2980 -1.4717 -0.0647
  175DOPC     P21332   4.109   4.534   3.240 -0.8305 -0.0130  0.4731
  175DOPC   O1321333   3.973   4.540   3.304 -0.1974 -0.2125  0.6779
  175DOPC   O1421334   4.199   4.635   3.299  0.8855  0.7412  0.2382
  175DOPC   O1221335   4.097   4.536   3.082  0.1732 -0.4192 -0.6494
  175DOPC   O1121336   4.172   4.393   3.273 -0.5050  0.2097 -0.2657
  175DOPC    C121337   4.101   4.304   3.354 -0.2250  0.4945 -0.9410
  175DOPC    HA21338   4.128   4.202   3.320 -2.7755 -0.3740 -0.5364
  175DOPC    HB21339   3.992   4.305   3.337  0.0177 -2.9823 -3.7369
  175DOPC    C221340   4.144   4.317   3.499  0.4973 -0.2600 -0.4066
  175DOPC    HS21341   4.096   4.236   3.559 -0.4397  0.7606  0.2585
  175DOPC   O2121342   4.102   4.442   3.547  0.3453  0.3742 -0.1619
  175DOPC   C2121343   3.974   4.464   3.571 -0.6191  0.7572  0.5942
  175DOPC   O2221344   3.882   4.377   3.565  0.1715  0.2359 -0.5967
  175DOPC   C2221345   3.957   4.606   3.625  0.4595  0.3779  0.5210
  175DOPC   H2R21346   3.847   4.620   3.629  0.4212  0.0532  0.6588
  175DOPC   H2S21347   3.986   4.670   3.539  2.8346 -1.2295  0.0328
  175DOPC    C321348   4.289   4.308   3.526  0.0601  0.3376 -0.5027
  175DOPC    HX21349   4.332   4.391   3.466 -0.7160  1.9881  1.1298
  175DOPC    HY21350   4.340   4.217   3.487  1.2408  1.8340 -2.7026
  175DOPC   O3121351   4.315   4.330   3.666  0.1148  0.4669 -0.1492
  175DOPC   C3121352   4.352   4.446   3.704 -0.0218 -0.2159 -0.2066
  175DOPC   O3221353   4.387   4.534   3.630 -0.2807 -0.2860  0.2587
  175DOPC   C3221354   4.357   4.461   3.853  0.2038  0.3564 -0.6063
  175DOPC   H2X21355   4.273   4.420   3.912  1.2866 -1.0646 -0.0008
  175DOPC   H2Y21356   4.432   4.387   3.887  0.6964  1.3612  0.5448
  175DOPC   C2321357   4.023   4.637   3.762  0.1856  0.4691  0.0426
  175DOPC   H3R21358   4.132   4.616   3.753  0.7417  1.3793  3.3342
  175DOPC   H3S21359   3.990   4.559   3.833  1.2803  1.5390  1.8103
  175DOPC   C2421360   4.000   4.779   3.815  0.8143 -0.1367  0.4901
  175DOPC   H4R21361   4.026   4.847   3.732 -4.1357  2.7453  0.9299
  175DOPC   H4S21362   4.073   4.781   3.898  0.6712 -0.4840  0.6254
  175DOPC   C2521363   3.855   4.805   3.870  0.0266 -0.7812  0.0716
  175DOPC   H5R21364   3.778   4.766   3.800  0.2648 -0.4982 -0.3483
  175DOPC   H5S21365   3.827   4.912   3.881  1.6042 -0.1285 -1.7347
  175DOPC   C2621366   3.839   4.744   4.010  0.5268  0.8885  0.6840
  175DOPC   H6R21367   3.887   4.645   4.026  1.2288  1.4107  1.9663
  175DOPC   H6S21368   3.730   4.737   4.028  0.6784  1.5360  1.9851
  175DOPC   C2721369   3.894   4.839   4.114  0.0976  0.4209 -0.2130
  175DOPC   H7R21370   3.863   4.944   4.093  0.8995  0.6534 -0.2574
  175DOPC   H7S21371   4.004   4.850   4.099 -0.1720  1.0207 -1.9439
  175DOPC   C2821372   3.872   4.788   4.257 -0.0506 -0.2181  0.1626
  175DOPC   H8R21373   3.938   4.841   4.329 -1.4579 -0.0343  1.3820
  175DOPC   H8S21374   3.894   4.680   4.245 -0.0853  0.0267 -2.9121
  175DOPC   C2921375   3.733   4.801   4.308 -0.1261 -0.5424 -0.4228
  175DOPC   H9R21376   3.665   4.824   4.224  0.9518 -2.2763 -1.8539
  175DOPC  C21021377   3.704   4.792   4.441  0.2370  0.3132  0.5236
  175DOPC  H10R21378   3.607   4.826   4.480 -0.2689  0.4476 -0.7750
  175DOPC  C21121379   3.797   4.767   4.557  0.0313 -0.3706 -0.7454
  175DOPC  H11R21380   3.903   4.750   4.529  0.0659  1.0041 -1.5605
  175DOPC  H11S21381   3.780   4.677   4.620  2.0601 -1.2165 -1.3224
  175DOPC  C21221382   3.784   4.890   4.651 -1.0847  0.2251  0.1777
  175DOPC  H12R21383   3.683   4.904   4.695 -0.6489  1.2685  0.8997
  175DOPC  H12S21384   3.822   4.978   4.594 -0.4895 -0.9675 -1.3097
  175DOPC  C21321385   3.874   4.874   4.779 -0.2065  0.3196  0.3679
  175DOPC  H13R21386   3.977   4.853   4.743 -1.1687  0.4561 -2.7392
  175DOPC  H13S21387   3.840   4.784   4.835 -1.6155  1.4412  1.3887
  175DOPC  C21421388   3.875   5.001   4.861  0.5910 -0.0652 -0.0135
  175DOPC  H14R21389   3.771   5.026   4.893  0.7194 -0.1515  0.4873
  175DOPC  H14S21390   3.896   5.082   4.789  1.0817  0.4896  0.7356
  175DOPC  C21521391   3.971   5.008   4.978  0.5803  0.3007  0.8868
  175DOPC  H15R21392   4.069   5.030   4.933  0.0938 -3.0195 -2.2442
  175DOPC  H15S21393   3.981   4.911   5.032  1.5003 -0.6134 -0.8456
  175DOPC  C21621394   3.933   5.111   5.086 -0.6638 -0.6359  0.4338
  175DOPC  H16R21395   3.825   5.104   5.113 -1.5735  0.7469 -2.5022
  175DOPC  H16S21396   3.937   5.207   5.032  0.1151 -0.0819  1.4330
  175DOPC  C21721397   4.035   5.118   5.198  0.4977 -0.0981 -0.0321
  175DOPC  H17R21398   4.012   5.208   5.258  0.5616  0.3415 -0.6552
  175DOPC  H17S21399   4.131   5.131   5.144 -0.8523  2.3675 -2.0892
  175DOPC  C21821400   4.032   4.992   5.287 -0.9266  0.0850 -0.2224
  175DOPC  H18R21401   4.123   4.989   5.350 -0.0057 -0.0460 -1.5295
  175DOPC  H18S21402   4.018   4.898   5.230  1.3293 -0.5574  0.2099
  175DOPC  H18T21403   3.953   4.994   5.365  0.6906  1.4496  1.4663
  175DOPC   C3321404   4.383   4.601   3.916  0.3749  0.3377  1.2527
  175DOPC   H3X21405   4.309   4.669   3.869  0.0407 -1.0509 -0.3439
  175DOPC   H3Y21406   4.485   4.640   3.895 -0.8465  3.4127  0.5427
  175DOPC   C3421407   4.374   4.602   4.070  0.6237  0.8584  0.0921
  175DOPC   H4X21408   4.415   4.701   4.098 -0.3208  2.3818 -3.3929
  175DOPC   H4Y21409   4.444   4.528   4.116  1.6895  1.0764 -1.1386
  175DOPC   C3521410   4.226   4.583   4.116 -0.6245  0.3498  0.4267
  175DOPC   H5X21411   4.195   4.476   4.120 -0.3059  0.1320 -1.6976
  175DOPC   H5Y21412   4.156   4.632   4.044  1.6995 -0.8854 -2.9397
  175DOPC   C3621413   4.199   4.631   4.256 -0.2909 -0.7118 -0.5402
  175DOPC   H6X21414   4.195   4.742   4.261  1.7126 -0.6286  0.1367
  175DOPC   H6Y21415   4.097   4.601   4.290 -1.0157  1.4100 -0.6678
  175DOPC   C3721416   4.296   4.568   4.361  0.2739  0.4822  0.0306
  175DOPC   H7X21417   4.300   4.459   4.342 -2.0628  0.6675 -1.9967
  175DOPC   H7Y21418   4.400   4.607   4.357  0.6884 -0.6736 -3.2922
  175DOPC   C3821419   4.250   4.607   4.503 -0.3090  0.3011 -0.1372
  175DOPC   H8X21420   4.325   4.556   4.568 -2.8179 -3.6657 -0.0423
  175DOPC   H8Y21421   4.157   4.553   4.529  0.3019 -0.9852 -0.5390
  175DOPC   C3921422   4.245   4.751   4.538 -0.1796  0.3593 -0.7760
  175DOPC   H9X21423   4.231   4.825   4.457 -0.2716 -1.7571 -2.8118
  175DOPC  C31021424   4.245   4.795   4.666 -0.0304 -0.2636 -0.6847
  175DOPC  H10X21425   4.232   4.904   4.677 -1.1768 -0.4172 -0.3421
  175DOPC  C31121426   4.253   4.715   4.794  0.0386 -0.1110  0.2621
  175DOPC  H11X21427   4.248   4.605   4.777  1.2075 -0.5486  2.3969
  175DOPC  H11Y21428   4.159   4.741   4.847  0.1218  0.1644  0.2760
  175DOPC  C31221429   4.378   4.726   4.889 -0.3173  0.0124 -0.1939
  175DOPC  H12X21430   4.468   4.724   4.825 -1.2591 -1.8684 -1.5456
  175DOPC  H12Y21431   4.375   4.640   4.960 -0.0824  0.0049 -0.1946
  175DOPC  C31321432   4.354   4.843   4.983  0.1128 -0.6338 -0.0945
  175DOPC  H13X21433   4.321   4.925   4.916 -2.3789 -0.3970  1.2987
  175DOPC  H13Y21434   4.272   4.809   5.050 -0.9638 -1.3781 -1.7469
  175DOPC  C31421435   4.484   4.877   5.060 -0.5523  0.1391  0.1682
  175DOPC  H14X21436   4.520   4.795   5.127 -2.1814 -0.4843  0.3183
  175DOPC  H14Y21437   4.576   4.883   4.998  0.8720  0.0572  2.1532
  175DOPC  C31521438   4.471   5.009   5.130  0.4577  0.1365 -0.2403
  175DOPC  H15X21439   4.383   5.006   5.198  1.2583  0.8656  0.8606
  175DOPC  H15Y21440   4.465   5.096   5.061  3.8314  2.1165  1.6904
  175DOPC  C31621441   4.598   5.037   5.212 -0.7706  0.1225 -0.7206
  175DOPC  H16X21442   4.632   4.952   5.276 -1.3705 -0.8645 -1.6828
  175DOPC  H16Y21443   4.685   5.062   5.147 -0.7515  1.1786 -0.3114
  175DOPC  C31721444   4.579   5.153   5.313 -0.2662  0.0183  0.5669
  175DOPC  H17X21445   4.481   5.145   5.366 -0.2286 -0.2531  0.5968
  175DOPC  H17Y21446   4.664   5.147   5.384  0.6863  0.2912 -0.5158
  175DOPC  C31821447   4.584   5.286   5.246 -0.3682  0.0465  0.1684
  175DOPC  H18X21448   4.681   5.317   5.201 -0.4852 -0.0479 -0.1531
  175DOPC  H18Y21449   4.502   5.302   5.172 -0.9919  0.4303  0.9346
  175DOPC  H18Z21450   4.555   5.365   5.319 -3.9068  0.1177 -1.0869
  176DOPC     N21451   2.390   1.012   2.459 -0.6047 -0.5406 -0.2857
  176DOPC   C1221452   2.407   0.892   2.545 -0.1358 -0.2173 -0.0354
  176DOPC  H12A21453   2.492   0.834   2.513 -1.3856 -2.0518 -0.1678
  176DOPC  H12B21454   2.318   0.832   2.538 -0.0681 -0.2274 -0.9678
  176DOPC   C1321455   2.521   1.078   2.447 -0.2891 -0.0253 -0.4401
  176DOPC  H13A21456   2.573   1.089   2.540  0.8424  1.3563 -1.2054
  176DOPC  H13B21457   2.587   1.007   2.399  1.5086  0.6547  0.9655
  176DOPC  H13C21458   2.524   1.167   2.386 -0.2616 -0.6956 -1.4417
  176DOPC   C1421459   2.282   1.102   2.508 -0.7022 -0.9557 -0.1319
  176DOPC  H14A21460   2.267   1.188   2.444 -0.7320  0.4349  1.6708
  176DOPC  H14B21461   2.187   1.050   2.511 -1.4486  0.3980  2.1482
  176DOPC  H14C21462   2.306   1.136   2.607  0.4995 -0.1419 -0.6813
  176DOPC   C1521463   2.352   0.975   2.320  0.5048  0.1940 -0.3817
  176DOPC  H15A21464   2.259   0.919   2.319 -0.3145  1.3681  1.7661
  176DOPC  H15B21465   2.426   0.910   2.278  1.8423  2.3387 -1.5174
  176DOPC  H15C21466   2.348   1.067   2.263  2.2606 -0.7675 -2.1800
  176DOPC   C1121467   2.421   0.927   2.696  0.3104 -0.1360 -0.4364
  176DOPC  H11A21468   2.499   1.005   2.708  1.3764 -1.2286 -0.1159
  176DOPC  H11B21469   2.322   0.969   2.726  0.0655  0.3149 -1.7773
  176DOPC     P21470   2.423   0.753   2.903  0.3166 -0.0540 -0.0747
  176DOPC   O1321471   2.503   0.636   2.937 -0.3867  0.5319  0.2188
  176DOPC   O1421472   2.279   0.742   2.906  0.7345 -0.1007 -0.2508
  176DOPC   O1221473   2.467   0.805   2.760  0.6197 -0.8643 -0.4448
  176DOPC   O1121474   2.471   0.868   2.996 -0.5245  0.4386  0.1190
  176DOPC    C121475   2.607   0.912   3.005 -0.2730 -0.7378  0.0299
  176DOPC    HA21476   2.608   1.022   3.021 -0.1881 -0.8191  0.5896
  176DOPC    HB21477   2.668   0.901   2.912  1.5582  0.6235  1.0131
  176DOPC    C221478   2.676   0.859   3.131 -0.3153  0.3808 -0.4890
  176DOPC    HS21479   2.683   0.750   3.111  0.7844  0.5312 -0.9785
  176DOPC   O2121480   2.608   0.894   3.254 -0.1443  0.2535 -0.3084
  176DOPC   C2121481   2.611   0.810   3.345  0.1807  0.0877  0.2145
  176DOPC   O2221482   2.625   0.689   3.340  0.2794 -0.2212 -0.5782
  176DOPC   C2221483   2.574   0.887   3.471 -0.1344  0.1678 -0.6695
  176DOPC   H2R21484   2.463   0.892   3.475 -0.2065 -0.7030 -1.2009
  176DOPC   H2S21485   2.612   0.990   3.456 -0.8950  0.5635  0.0756
  176DOPC    C321486   2.818   0.917   3.146 -0.4147 -0.3684  0.1865
  176DOPC    HX21487   2.805   1.021   3.181 -0.3676 -1.2607  3.0853
  176DOPC    HY21488   2.851   0.914   3.040 -0.4839  0.9564  0.1096
  176DOPC   O3121489   2.897   0.834   3.238  0.2687 -0.6451 -0.4019
  176DOPC   C3121490   3.000   0.896   3.291  0.0987 -0.1995  0.2535
  176DOPC   O3221491   3.020   1.016   3.280 -0.3716 -0.3539 -0.0090
  176DOPC   C3221492   3.082   0.801   3.374 -0.8976 -0.1542 -0.1505
  176DOPC   H2X21493   3.013   0.723   3.412 -0.7026  0.3301  1.2710
  176DOPC   H2Y21494   3.156   0.741   3.317 -0.1450 -1.4310  2.0648
  176DOPC   C2321495   2.634   0.832   3.603  0.1214 -0.3753  0.2413
  176DOPC   H3R21496   2.742   0.855   3.587 -0.8017  2.2263 -3.5751
  176DOPC   H3S21497   2.621   0.722   3.607  0.5448 -0.4884 -0.9600
  176DOPC   C2421498   2.592   0.902   3.733  0.7561 -0.6524  0.1282
  176DOPC   H4R21499   2.486   0.894   3.764  1.2988  1.5924  2.9398
  176DOPC   H4S21500   2.611   1.011   3.720 -0.8146 -0.2388  1.0642
  176DOPC   C2521501   2.686   0.855   3.852 -0.5089  0.2871  0.3051
  176DOPC   H5R21502   2.786   0.897   3.829 -0.3696 -0.6184 -0.8669
  176DOPC   H5S21503   2.683   0.744   3.856 -2.2204  0.2543 -0.8166
  176DOPC   C2621504   2.641   0.916   3.990  0.5758 -0.0048  0.1280
  176DOPC   H6R21505   2.532   0.899   4.005  0.2798 -0.1231 -1.8150
  176DOPC   H6S21506   2.659   1.025   3.997 -1.3674  0.3212  0.6186
  176DOPC   C2721507   2.717   0.848   4.106 -0.4606 -0.3599  0.3213
  176DOPC   H7R21508   2.823   0.878   4.097 -1.2762  2.1669 -2.1911
  176DOPC   H7S21509   2.692   0.740   4.098  0.1183 -0.6603  2.2361
  176DOPC   C2821510   2.656   0.868   4.245 -0.1208  0.2836 -0.0276
  176DOPC   H8R21511   2.698   0.789   4.310 -0.2384 -1.7181 -2.2407
  176DOPC   H8S21512   2.548   0.843   4.249 -0.3433  1.2521  0.3711
  176DOPC   C2921513   2.668   1.010   4.301  0.6309 -0.3809  0.9981
  176DOPC   H9R21514   2.628   1.083   4.228  0.1881 -0.3443  1.2753
  176DOPC  C21021515   2.712   1.048   4.423 -0.2009  0.2423 -0.8436
  176DOPC  H10R21516   2.733   1.156   4.429 -1.5202  0.6248 -2.4183
  176DOPC  C21121517   2.764   0.964   4.536  0.2877 -0.0876  0.0129
  176DOPC  H11R21518   2.799   0.867   4.496  0.3057  0.3742 -1.1316
  176DOPC  H11S21519   2.686   0.958   4.615 -0.5272 -3.0317 -0.9071
  176DOPC  C21221520   2.884   1.042   4.600  0.2493  0.2364  0.0334
  176DOPC  H12R21521   2.840   1.138   4.634 -0.1647  1.2118 -2.9503
  176DOPC  H12S21522   2.964   1.068   4.528  0.6833  0.2102  0.5050
  176DOPC  C21321523   2.956   0.966   4.717  0.4405 -0.3137 -0.6069
  176DOPC  H13R21524   2.884   0.933   4.796 -0.9862  0.2164 -1.6397
  176DOPC  H13S21525   3.017   1.046   4.764  0.1019 -1.5845  2.2335
  176DOPC  C21421526   3.041   0.847   4.662 -0.6787  0.0477 -0.6612
  176DOPC  H14R21527   3.117   0.887   4.593  2.2069 -2.1828  0.9984
  176DOPC  H14S21528   2.974   0.770   4.617 -2.0447  0.4195  0.6321
  176DOPC  C21521529   3.126   0.779   4.773  0.1807  0.3897 -0.5979
  176DOPC  H15R21530   3.065   0.731   4.853  2.3371  1.8795  2.0955
  176DOPC  H15S21531   3.172   0.867   4.822 -0.0786 -0.1661  0.6756
  176DOPC  C21621532   3.240   0.693   4.710 -0.0754  0.3861 -0.1481
  176DOPC  H16R21533   3.291   0.757   4.634 -2.4131  3.7198  0.8302
  176DOPC  H16S21534   3.192   0.606   4.661 -1.7898  1.5714 -0.6571
  176DOPC  C21721535   3.340   0.649   4.819 -0.2763  0.6130 -0.0275
  176DOPC  H17R21536   3.289   0.590   4.898 -2.1897  1.1019 -0.8346
  176DOPC  H17S21537   3.382   0.733   4.877 -1.3708  0.1316  1.5257
  176DOPC  C21821538   3.458   0.550   4.767 -0.0680 -0.3535 -0.3864
  176DOPC  H18R21539   3.521   0.603   4.692  0.6128 -1.5411 -0.6805
  176DOPC  H18S21540   3.410   0.464   4.716 -0.8077  1.1420 -2.3427
  176DOPC  H18T21541   3.525   0.535   4.854  1.1402 -1.5339 -1.4781
  176DOPC   C3321542   3.154   0.873   3.492  0.8590  0.2802 -0.3549
  176DOPC   H3X21543   3.085   0.948   3.538  0.2521 -1.5445  1.9253
  176DOPC   H3Y21544   3.240   0.936   3.460  0.3158  1.5902  0.6427
  176DOPC   C3421545   3.197   0.768   3.598  0.1500 -0.5420  0.5792
  176DOPC   H4X21546   3.275   0.825   3.654 -1.7942  4.0108 -0.8115
  176DOPC   H4Y21547   3.256   0.690   3.547 -0.3771 -0.2942 -0.4499
  176DOPC   C3521548   3.087   0.729   3.698  0.3719 -0.0952 -0.2232
  176DOPC   H5X21549   3.029   0.640   3.663 -1.7508  0.6170  1.3175
  176DOPC   H5Y21550   3.009   0.808   3.690  1.5953  1.1712  0.0986
  176DOPC   C3621551   3.132   0.715   3.844 -0.5390  0.2713  0.2131
  176DOPC   H6X21552   3.221   0.648   3.848 -1.7551 -1.3610  1.1596
  176DOPC   H6Y21553   3.171   0.812   3.882  1.3019 -0.7534  1.0954
  176DOPC   C3721554   3.026   0.666   3.940  0.3246 -0.4567  0.0903
  176DOPC   H7X21555   2.930   0.704   3.900  1.2988 -0.7909 -2.7728
  176DOPC   H7Y21556   3.021   0.555   3.934 -0.3904 -0.3586 -3.3344
  176DOPC   C3821557   3.053   0.714   4.086 -0.0112 -0.1314 -0.4436
  176DOPC   H8X21558   2.966   0.679   4.145 -0.9790  1.2894 -0.9749
  176DOPC   H8Y21559   3.056   0.825   4.085 -2.3395 -0.0057 -1.4871
  176DOPC   C3921560   3.177   0.658   4.142  0.9199 -0.5829  0.4649
  176DOPC   H9X21561   3.167   0.551   4.165 -2.3673  0.0305  2.7089
  176DOPC  C31021562   3.288   0.723   4.177  0.0524 -0.5424  0.2611
  176DOPC  H10X21563   3.376   0.680   4.228  1.5647  1.0589 -0.8908
  176DOPC  C31121564   3.305   0.875   4.161  0.5957  0.0435  0.1168
  176DOPC  H11X21565   3.209   0.912   4.202 -0.0782 -0.7044 -0.7290
  176DOPC  H11Y21566   3.295   0.900   4.053 -0.4424 -0.2360  0.1427
  176DOPC  C31221567   3.429   0.937   4.227  0.1554 -0.6580 -0.1182
  176DOPC  H12X21568   3.424   1.040   4.185 -2.6681 -1.4665 -2.0383
  176DOPC  H12Y21569   3.524   0.891   4.192  0.3530  0.2835 -0.8655
  176DOPC  C31321570   3.424   0.935   4.381 -0.0849 -0.3702 -0.1658
  176DOPC  H13X21571   3.322   0.964   4.411 -0.0447  2.2594 -2.2544
  176DOPC  H13Y21572   3.451   0.834   4.420  2.3958  0.4146  0.3074
  176DOPC  C31421573   3.532   1.027   4.441  0.3010 -0.5440  0.8360
  176DOPC  H14X21574   3.625   1.005   4.384 -0.2467 -2.3142  0.5724
  176DOPC  H14Y21575   3.507   1.128   4.402  0.6867 -1.4899 -2.0296
  176DOPC  C31521576   3.577   1.011   4.588  0.1436 -0.6346  0.2015
  176DOPC  H15X21577   3.668   1.075   4.599 -0.0715 -0.4071  0.6667
  176DOPC  H15Y21578   3.617   0.910   4.609  2.6197  0.0589 -0.7255
  176DOPC  C31621579   3.469   1.043   4.693  0.0190  0.2843  0.4081
  176DOPC  H16X21580   3.443   1.149   4.671 -2.3463 -0.3212  0.0743
  176DOPC  H16Y21581   3.377   0.981   4.687  0.3068  0.0104 -2.2455
  176DOPC  C31721582   3.520   1.034   4.834  0.3011  0.2873  0.3119
  176DOPC  H17X21583   3.543   0.928   4.859  0.9195  0.2320 -0.4549
  176DOPC  H17Y21584   3.608   1.098   4.862  0.3903 -0.5359  2.0748
  176DOPC  C31821585   3.417   1.072   4.944  0.0518  0.0768  0.0295
  176DOPC  H18X21586   3.468   1.060   5.042  1.5288  4.4102  0.0163
  176DOPC  H18Y21587   3.400   1.181   4.931  1.1190  0.1307 -1.1753
  176DOPC  H18Z21588   3.320   1.018   4.940 -0.5763  1.2291 -2.1055
  177DOPC     N21589   4.776   5.026   3.050  0.6625 -0.9213  0.4876
  177DOPC   C1221590   4.788   5.173   3.082  0.2346 -0.0656 -0.0039
  177DOPC  H12A21591   4.853   5.187   3.167 -0.3413  0.1700  0.3993
  177DOPC  H12B21592   4.695   5.210   3.122  0.5089  0.2873  0.3237
  177DOPC   C1321593   4.688   4.956   3.150 -0.5973 -0.2683  1.2109
  177DOPC  H13A21594   4.668   4.856   3.114  1.5870  0.0231 -1.0662
  177DOPC  H13B21595   4.738   4.954   3.246  0.1634  1.9279  0.9304
  177DOPC  H13C21596   4.593   5.006   3.165 -1.2663 -1.8379  2.4373
  177DOPC   C1421597   4.912   4.967   3.051 -1.2014  0.2692  0.2015
  177DOPC  H14A21598   4.964   4.988   3.143  1.1357  1.2729 -1.2517
  177DOPC  H14B21599   4.915   4.865   3.015  0.4227  0.9963 -1.9674
  177DOPC  H14C21600   4.965   5.020   2.973 -0.0614 -1.8354 -0.5343
  177DOPC   C1521601   4.707   5.022   2.920  0.1149 -0.0933  0.1494
  177DOPC  H15A21602   4.617   5.082   2.927  0.8954  1.2671 -1.0979
  177DOPC  H15B21603   4.682   4.925   2.878  2.1272  0.8347 -3.7036
  177DOPC  H15C21604   4.776   5.074   2.856 -0.8490  2.0433  0.7473
  177DOPC   C1121605   4.847   5.274   2.977  1.1192  0.7175  0.3232
  177DOPC  H11A21606   4.766   5.290   2.902  2.2744  1.4731 -0.8033
  177DOPC  H11B21607   4.870   5.372   3.023  0.0715  1.5584 -0.8687
  177DOPC     P21608   5.090   5.301   2.881 -0.1964 -0.0547  0.2929
  177DOPC   O1321609   5.061   5.424   2.804 -0.2626  0.1683  0.1995
  177DOPC   O1421610   5.196   5.210   2.839 -0.3157  0.4666  0.1524
  177DOPC   O1221611   4.959   5.216   2.912  0.2569  1.1369  0.4705
  177DOPC   O1121612   5.123   5.339   3.029 -0.8267 -0.0973 -0.4437
  177DOPC    C121613   5.207   5.254   3.107  0.0388 -0.4301 -0.7269
  177DOPC    HA21614   5.311   5.263   3.067 -0.7290 -1.9918 -3.3608
  177DOPC    HB21615   5.180   5.146   3.101 -1.0502 -0.3751  1.9690
  177DOPC    C221616   5.208   5.291   3.259 -0.0365 -0.6249 -0.0135
  177DOPC    HS21617   5.111   5.254   3.299 -0.1930  1.6455  1.9903
  177DOPC   O2121618   5.237   5.432   3.274  0.2755 -0.5380 -0.0143
  177DOPC   C2121619   5.175   5.497   3.374  0.0445 -0.5021  0.0811
  177DOPC   O2221620   5.088   5.448   3.445 -0.7158  0.3585 -0.0877
  177DOPC   C2221621   5.206   5.650   3.365 -0.3276  0.4770  0.4330
  177DOPC   H2R21622   5.144   5.698   3.286  0.4883  0.6051 -0.1410
  177DOPC   H2S21623   5.313   5.660   3.338 -0.2797  0.3130  0.5647
  177DOPC    C321624   5.314   5.213   3.340  0.5339  0.5626 -0.0148
  177DOPC    HX21625   5.418   5.222   3.301 -0.0661  2.8897 -1.2339
  177DOPC    HY21626   5.289   5.106   3.324  0.2644  0.6015  0.1426
  177DOPC   O3121627   5.304   5.242   3.479  0.4276 -0.1943  0.0832
  177DOPC   C3121628   5.207   5.182   3.545  0.1954 -0.4369  0.2491
  177DOPC   O3221629   5.118   5.116   3.492  1.3015 -0.4726  0.3543
  177DOPC   C3221630   5.245   5.185   3.694  0.0740 -0.9837 -0.2059
  177DOPC   H2X21631   5.238   5.078   3.722 -2.2812 -0.4006  1.7798
  177DOPC   H2Y21632   5.349   5.225   3.696  0.0831 -0.9801 -0.6053
  177DOPC   C2321633   5.182   5.713   3.506  0.3952  0.1811  0.2358
  177DOPC   H3R21634   5.080   5.691   3.544  0.2450  0.7500  0.1658
  177DOPC   H3S21635   5.197   5.822   3.496  2.8085  0.1186  2.2380
  177DOPC   C2421636   5.286   5.663   3.608 -0.2185 -0.5391 -0.0963
  177DOPC   H4R21637   5.387   5.677   3.564  0.1531  1.1701  1.1914
  177DOPC   H4S21638   5.266   5.555   3.622  2.9784 -1.1203  0.8276
  177DOPC   C2521639   5.265   5.747   3.736  0.3562 -0.0309  0.0439
  177DOPC   H5R21640   5.172   5.726   3.794  0.4154  0.3502  0.2841
  177DOPC   H5S21641   5.280   5.854   3.712 -1.0324  0.2051  0.1640
  177DOPC   C2621642   5.378   5.704   3.830  0.5766 -0.3872  0.4864
  177DOPC   H6R21643   5.472   5.730   3.776 -0.7747 -1.3385 -2.5285
  177DOPC   H6S21644   5.364   5.595   3.839 -1.4043 -0.3412 -1.3730
  177DOPC   C2721645   5.357   5.770   3.968 -0.1020  0.0770  0.1193
  177DOPC   H7R21646   5.254   5.750   4.002  0.1121  1.5031  1.7395
  177DOPC   H7S21647   5.369   5.879   3.953  2.1288 -0.4370 -2.8826
  177DOPC   C2821648   5.460   5.714   4.071  0.2893 -0.1490 -0.2285
  177DOPC   H8R21649   5.418   5.617   4.106  0.5653 -0.8084 -1.6685
  177DOPC   H8S21650   5.467   5.784   4.157 -0.3490  1.4739 -1.4625
  177DOPC   C2921651   5.597   5.716   4.009 -0.2808 -0.5711 -0.8708
  177DOPC   H9R21652   5.606   5.762   3.910  1.8240  1.9114  0.3430
  177DOPC  C21021653   5.708   5.661   4.056 -0.5186 -0.6532 -0.4565
  177DOPC  H10R21654   5.798   5.677   3.996 -0.5743  1.4316 -0.0591
  177DOPC  C21121655   5.717   5.577   4.191  0.0902 -0.2640  0.4714
  177DOPC  H11R21656   5.822   5.543   4.202 -0.5398 -1.3919  4.7585
  177DOPC  H11S21657   5.648   5.490   4.190  0.2195 -0.3649  0.0116
  177DOPC  C21221658   5.672   5.646   4.322  0.5003 -0.3099  0.0438
  177DOPC  H12R21659   5.703   5.575   4.402  1.1215  0.0663  0.1378
  177DOPC  H12S21660   5.562   5.654   4.309  0.4561  1.3290  1.1420
  177DOPC  C21321661   5.721   5.785   4.358  0.0393  0.0436 -0.0721
  177DOPC  H13R21662   5.682   5.854   4.280 -3.0044 -1.5145 -0.0481
  177DOPC  H13S21663   5.832   5.776   4.362  0.0264 -0.4644 -0.6662
  177DOPC  C21421664   5.672   5.841   4.490 -0.9049  0.2157  0.5571
  177DOPC  H14R21665   5.722   5.940   4.489  1.1818 -0.7696 -0.7188
  177DOPC  H14S21666   5.699   5.772   4.573  2.1865  0.6925  0.0671
  177DOPC  C21521667   5.525   5.862   4.490  0.1501  0.4713 -0.2350
  177DOPC  H15R21668   5.482   5.759   4.493 -0.6177  0.7631 -0.8462
  177DOPC  H15S21669   5.504   5.912   4.393  0.6610 -2.0749 -1.7727
  177DOPC  C21621670   5.478   5.955   4.606  0.6770  0.9569 -0.2310
  177DOPC  H16R21671   5.506   5.917   4.706 -0.4777  2.0005  0.5148
  177DOPC  H16S21672   5.367   5.951   4.614  0.6400  0.7867 -0.7923
  177DOPC  C21721673   5.512   6.102   4.579 -0.1089 -0.1291 -0.6495
  177DOPC  H17R21674   5.459   6.121   4.483  0.2078 -1.5550 -1.1302
  177DOPC  H17S21675   5.619   6.127   4.560 -0.4850  0.7016 -1.8286
  177DOPC  C21821676   5.465   6.189   4.697  0.1013  0.1394 -0.3465
  177DOPC  H18R21677   5.357   6.171   4.719 -0.0597  1.4501 -0.0067
  177DOPC  H18S21678   5.485   6.297   4.680  5.0050 -0.2548  1.4341
  177DOPC  H18T21679   5.521   6.161   4.788 -1.9733  0.7638  1.1985
  177DOPC   C3321680   5.137   5.250   3.780 -0.0178 -0.2364  0.2524
  177DOPC   H3X21681   5.042   5.193   3.786 -0.4219  0.3452 -0.4142
  177DOPC   H3Y21682   5.105   5.350   3.742  1.5048  0.5560  0.9322
  177DOPC   C3421683   5.191   5.270   3.922  0.1362 -0.0777 -0.0811
  177DOPC   H4X21684   5.285   5.328   3.918 -0.9379  1.7948  0.5624
  177DOPC   H4Y21685   5.209   5.164   3.951 -2.0703 -1.5396 -3.4492
  177DOPC   C3521686   5.087   5.340   4.013  0.1537  0.2129 -0.3203
  177DOPC   H5X21687   4.986   5.303   3.984 -0.0586  0.6415 -0.1417
  177DOPC   H5Y21688   5.087   5.448   3.986  0.8717  0.5996  1.1121
  177DOPC   C3621689   5.115   5.324   4.165 -0.0415 -0.4444  0.0952
  177DOPC   H6X21690   5.035   5.367   4.229 -0.0566  0.2579 -0.3863
  177DOPC   H6Y21691   5.104   5.217   4.192 -2.2119 -0.2910 -0.0632
  177DOPC   C3721692   5.251   5.375   4.215 -0.0869  0.9583  0.3807
  177DOPC   H7X21693   5.330   5.302   4.188 -0.5053  1.0064 -1.0659
  177DOPC   H7Y21694   5.285   5.467   4.164 -0.1503  0.3364 -0.8264
  177DOPC   C3821695   5.245   5.387   4.371 -0.3869  0.2548 -0.5971
  177DOPC   H8X21696   5.240   5.284   4.413  1.6033  0.5508  0.4869
  177DOPC   H8Y21697   5.155   5.447   4.398  0.7406  1.7272  0.0197
  177DOPC   C3921698   5.370   5.456   4.424 -0.2944 -0.1186 -0.9672
  177DOPC   H9X21699   5.410   5.532   4.356  3.0534 -0.1297  0.8228
  177DOPC  C31021700   5.427   5.444   4.543 -0.2266  0.1980 -0.4649
  177DOPC  H10X21701   5.502   5.521   4.568  0.8519 -0.3579 -1.8873
  177DOPC  C31121702   5.394   5.355   4.658 -0.4027 -0.2780  0.3179
  177DOPC  H11X21703   5.453   5.261   4.660  0.8977  0.4989  2.8181
  177DOPC  H11Y21704   5.290   5.318   4.650 -2.0967  3.6314  1.7421
  177DOPC  C31221705   5.408   5.415   4.793  0.1446 -0.5879 -0.0488
  177DOPC  H12X21706   5.513   5.448   4.809 -0.4005  1.7971 -0.9831
  177DOPC  H12Y21707   5.380   5.341   4.871 -2.6575  2.3835  2.0888
  177DOPC  C31321708   5.306   5.527   4.808 -0.0891  0.6139 -1.1770
  177DOPC  H13X21709   5.317   5.605   4.730 -0.3820 -0.6609 -2.5350
  177DOPC  H13Y21710   5.202   5.490   4.799 -0.4429  1.6043 -1.2652
  177DOPC  C31421711   5.327   5.600   4.947 -0.0207 -0.4304  0.7735
  177DOPC  H14X21712   5.235   5.662   4.959  0.9910  1.5202 -0.9234
  177DOPC  H14Y21713   5.345   5.535   5.035  2.2749 -0.3959  0.3818
  177DOPC  C31521714   5.429   5.711   4.930  0.2540 -0.3170  0.2805
  177DOPC  H15X21715   5.407   5.785   4.850  2.1507 -0.7048 -0.6588
  177DOPC  H15Y21716   5.525   5.660   4.908  0.9158  1.6512 -1.7609
  177DOPC  C31621717   5.451   5.791   5.059  0.1597  0.2159 -0.0064
  177DOPC  H16X21718   5.354   5.782   5.112 -1.1267 -1.4080 -2.3870
  177DOPC  H16Y21719   5.530   5.747   5.123  0.0781 -0.0081 -0.0587
  177DOPC  C31721720   5.476   5.947   5.026  0.0321  0.4105 -0.9386
  177DOPC  H17X21721   5.555   5.952   4.948 -0.5070  0.6974 -1.4742
  177DOPC  H17Y21722   5.384   5.987   4.979 -0.7607 -2.4833 -2.1122
  177DOPC  C31821723   5.521   6.031   5.153  1.0696  0.6123 -0.2827
  177DOPC  H18X21724   5.439   6.026   5.228 -0.2456  2.7257 -1.4893
  177DOPC  H18Y21725   5.612   5.983   5.196  1.3060 -0.4398 -1.8767
  177DOPC  H18Z21726   5.540   6.133   5.115  0.1638 -0.0628 -2.6959
  178DOPC     N21727   3.145   4.346   2.651 -0.5018  0.1340 -0.9574
  178DOPC   C1221728   3.190   4.428   2.768  0.1479  0.3571 -0.5803
  178DOPC  H12A21729   3.149   4.528   2.767  1.9363  1.1496  0.4832
  178DOPC  H12B21730   3.296   4.446   2.767  0.3184 -0.2095  1.6223
  178DOPC   C1321731   3.191   4.202   2.682  0.2323  0.4381  0.0088
  178DOPC  H13A21732   3.165   4.180   2.785 -1.9476  4.4348  0.5033
  178DOPC  H13B21733   3.143   4.124   2.624 -2.2323  1.2180  0.8649
  178DOPC  H13C21734   3.298   4.194   2.673  0.1251 -0.4386 -0.5452
  178DOPC   C1421735   3.203   4.380   2.516  0.0306 -0.5540 -0.0469
  178DOPC  H14A21736   3.169   4.307   2.445 -1.3767  1.8492 -2.0254
  178DOPC  H14B21737   3.170   4.481   2.493  1.8307 -0.2032 -1.2902
  178DOPC  H14C21738   3.310   4.376   2.509  0.4681  1.1575  3.2305
  178DOPC   C1521739   2.998   4.345   2.649  0.0300  0.3653  0.1817
  178DOPC  H15A21740   2.963   4.447   2.649 -0.9230  0.0501 -0.1484
  178DOPC  H15B21741   2.957   4.291   2.733  0.7542  1.9457  1.6155
  178DOPC  H15C21742   2.958   4.296   2.561 -1.2836 -0.0405  0.9750
  178DOPC   C1121743   3.149   4.390   2.915 -0.2565 -0.4732  0.1825
  178DOPC  H11A21744   3.165   4.480   2.978  0.5362  1.1660 -2.1939
  178DOPC  H11B21745   3.039   4.376   2.913 -0.2683 -1.1819  2.7218
  178DOPC     P21746   3.373   4.267   2.983 -0.2003 -0.0262  0.1271
  178DOPC   O1321747   3.457   4.363   2.905 -0.0066  0.2040  0.4078
  178DOPC   O1421748   3.406   4.122   2.974  0.2802 -0.1719  0.3640
  178DOPC   O1221749   3.221   4.273   2.944  0.1097 -0.0154 -0.5789
  178DOPC   O1121750   3.379   4.310   3.130 -0.7227  0.2775 -0.3548
  178DOPC    C121751   3.343   4.217   3.234  0.5273  0.1280 -0.2317
  178DOPC    HA21752   3.415   4.132   3.239  0.4097  0.0960  2.0141
  178DOPC    HB21753   3.241   4.179   3.214 -0.6909  2.7400  0.6010
  178DOPC    C221754   3.349   4.296   3.369  0.0760  1.0036  0.5060
  178DOPC    HS21755   3.301   4.222   3.436 -2.0689  0.8744 -1.0851
  178DOPC   O2121756   3.273   4.415   3.362 -0.1260  0.0728  0.9634
  178DOPC   C2121757   3.140   4.405   3.350 -0.3148 -0.4318  0.0862
  178DOPC   O2221758   3.076   4.300   3.338 -0.7153  0.2292  0.2810
  178DOPC   C2221759   3.081   4.539   3.360 -0.1216  0.3975 -0.3980
  178DOPC   H2R21760   2.978   4.527   3.318 -0.0065  2.9520 -1.6035
  178DOPC   H2S21761   3.135   4.611   3.295  1.6990 -3.0279 -3.0024
  178DOPC    C321762   3.489   4.322   3.430  0.2451  0.3136  0.9616
  178DOPC    HX21763   3.562   4.369   3.360  0.0998 -0.9120 -0.0576
  178DOPC    HY21764   3.532   4.219   3.438 -0.4497 -0.2961 -1.8442
  178DOPC   O3121765   3.490   4.374   3.563  0.3495 -0.1330 -0.3124
  178DOPC   C3121766   3.539   4.497   3.577 -0.2611 -0.3352 -0.1863
  178DOPC   O3221767   3.570   4.573   3.491  0.1053 -0.3822 -0.2159
  178DOPC   C3221768   3.549   4.534   3.726 -0.3712 -0.2859 -0.3836
  178DOPC   H2X21769   3.591   4.636   3.740 -1.7552  0.4973 -1.5723
  178DOPC   H2Y21770   3.446   4.520   3.767 -0.4459  0.3203 -0.3489
  178DOPC   C2321771   3.072   4.573   3.503 -0.6348 -0.9000  0.1982
  178DOPC   H3R21772   3.174   4.574   3.548  0.1045  2.0759 -1.2666
  178DOPC   H3S21773   3.010   4.507   3.567 -0.7965  1.4154  2.5891
  178DOPC   C2421774   3.008   4.718   3.533 -0.4993  0.9366  0.4309
  178DOPC   H4R21775   3.066   4.799   3.483 -1.1260  1.4456  0.5161
  178DOPC   H4S21776   3.031   4.736   3.641 -2.8454  1.0953  0.9598
  178DOPC   C2521777   2.858   4.728   3.496 -0.7192 -0.5738 -1.0125
  178DOPC   H5R21778   2.819   4.635   3.451 -2.0599 -1.1263  1.1511
  178DOPC   H5S21779   2.836   4.815   3.430 -2.4914  1.0843  1.5635
  178DOPC   C2621780   2.775   4.746   3.627 -0.9721  0.1844  0.0875
  178DOPC   H6R21781   2.816   4.841   3.667 -2.5011  0.8646  0.0952
  178DOPC   H6S21782   2.806   4.665   3.696 -1.6456  1.1512  1.5796
  178DOPC   C2721783   2.624   4.756   3.628  1.4751 -0.0521  0.2893
  178DOPC   H7R21784   2.580   4.654   3.619 -1.2283  0.9390  1.1117
  178DOPC   H7S21785   2.601   4.819   3.539  0.1666  2.2327  2.1247
  178DOPC   C2821786   2.566   4.804   3.763  0.0867 -0.3133 -0.4084
  178DOPC   H8R21787   2.618   4.746   3.843  0.0717  0.7610  0.3925
  178DOPC   H8S21788   2.462   4.765   3.763 -0.5839  1.3477 -1.7953
  178DOPC   C2921789   2.560   4.953   3.790 -0.6171  0.4195  0.4348
  178DOPC   H9R21790   2.490   5.014   3.731  1.5238  1.7447 -0.8812
  178DOPC  C21021791   2.619   5.027   3.892 -0.8572  0.5674  0.3285
  178DOPC  H10R21792   2.603   5.136   3.900 -1.5157  0.5821 -0.9839
  178DOPC  C21121793   2.700   4.973   4.003 -0.2127 -0.4907  0.1745
  178DOPC  H11R21794   2.792   5.034   4.012  1.7229 -3.2684  0.3653
  178DOPC  H11S21795   2.736   4.869   3.993 -0.2890 -0.5259  0.2655
  178DOPC  C21221796   2.613   4.983   4.135  0.6547 -0.0276 -0.8163
  178DOPC  H12R21797   2.547   4.894   4.141  3.0234 -1.8048  0.3795
  178DOPC  H12S21798   2.549   5.072   4.153  0.2815 -0.2437 -1.0450
  178DOPC  C21321799   2.697   4.965   4.262 -0.5860  0.5119  0.1908
  178DOPC  H13R21800   2.782   5.037   4.259  0.8158 -1.0482  0.9953
  178DOPC  H13S21801   2.739   4.862   4.268 -0.4886  0.6224  3.1860
  178DOPC  C21421802   2.620   4.994   4.390 -0.4336 -0.7481 -0.0319
  178DOPC  H14R21803   2.538   4.919   4.397 -0.6492 -0.4448  0.9537
  178DOPC  H14S21804   2.584   5.099   4.399 -1.1413 -0.9859  0.0078
  178DOPC  C21521805   2.718   4.979   4.514 -0.3693 -0.8549  0.0692
  178DOPC  H15R21806   2.810   5.039   4.501  1.7228 -3.6320  0.9786
  178DOPC  H15S21807   2.760   4.878   4.492  0.5447 -0.2288 -1.1709
  178DOPC  C21621808   2.645   4.978   4.649 -0.0406  0.4755  0.2599
  178DOPC  H16R21809   2.724   4.956   4.725 -0.3666 -2.0150 -0.0168
  178DOPC  H16S21810   2.572   4.894   4.653 -0.4620  0.7055 -1.6815
  178DOPC  C21721811   2.573   5.106   4.685  0.3942  0.1810 -0.1981
  178DOPC  H17R21812   2.518   5.153   4.601  2.7277  1.5196 -1.0911
  178DOPC  H17S21813   2.650   5.184   4.701  0.5643 -0.0308  0.0124
  178DOPC  C21821814   2.497   5.092   4.816  0.1146  0.1621 -0.2862
  178DOPC  H18R21815   2.568   5.079   4.900  4.1706  0.5122 -3.3285
  178DOPC  H18S21816   2.424   5.009   4.804 -2.1588  2.2341 -1.6315
  178DOPC  H18T21817   2.435   5.181   4.841 -3.0040 -1.9505  0.1048
  178DOPC   C3321818   3.632   4.422   3.792  0.2734  0.4695 -0.5104
  178DOPC   H3X21819   3.740   4.435   3.770  0.1028 -0.9454 -2.4697
  178DOPC   H3Y21820   3.602   4.319   3.760  0.6742  0.5886 -1.2906
  178DOPC   C3421821   3.600   4.423   3.940  0.8005  0.7627  0.5133
  178DOPC   H4X21822   3.612   4.527   3.978 -0.6566  1.2163 -0.1878
  178DOPC   H4Y21823   3.667   4.360   4.002  0.2664  0.0539  0.3812
  178DOPC   C3521824   3.461   4.382   3.980  0.2861  0.7197  0.3882
  178DOPC   H5X21825   3.436   4.279   3.946 -1.9909  1.3063  0.1180
  178DOPC   H5Y21826   3.388   4.452   3.935 -0.3898  0.6175  1.3070
  178DOPC   C3621827   3.432   4.401   4.130  0.1177 -0.4362 -0.4104
  178DOPC   H6X21828   3.460   4.501   4.168  1.7932 -1.6200  1.6802
  178DOPC   H6Y21829   3.331   4.358   4.140  0.7566 -1.8190  0.3474
  178DOPC   C3721830   3.506   4.300   4.224  0.2174 -0.0287 -0.2982
  178DOPC   H7X21831   3.522   4.206   4.167  0.9902 -0.2210  0.2133
  178DOPC   H7Y21832   3.613   4.328   4.238 -0.2319  1.4501  0.3068
  178DOPC   C3821833   3.433   4.258   4.351 -0.1729 -0.4963 -0.6453
  178DOPC   H8X21834   3.499   4.184   4.401 -0.1206  0.5952  0.9683
  178DOPC   H8Y21835   3.332   4.216   4.334  0.1910 -1.5034 -0.3861
  178DOPC   C3921836   3.416   4.383   4.433  0.4908 -0.5249 -0.1656
  178DOPC   H9X21837   3.460   4.478   4.399 -0.5049  0.5946  1.5056
  178DOPC  C31021838   3.347   4.384   4.545 -0.0745 -0.4052  0.1610
  178DOPC  H10X21839   3.342   4.477   4.604  0.7154  0.2510 -0.7740
  178DOPC  C31121840   3.287   4.267   4.625 -0.1224 -0.0856 -0.3662
  178DOPC  H11X21841   3.326   4.283   4.728 -3.2609  1.6886  0.6898
  178DOPC  H11Y21842   3.311   4.166   4.587  1.0672  0.7024 -1.8021
  178DOPC  C31221843   3.138   4.273   4.641 -0.3605 -0.4689 -0.6090
  178DOPC  H12X21844   3.115   4.375   4.680  1.3116 -1.1319  2.4587
  178DOPC  H12Y21845   3.098   4.205   4.719  0.3636 -0.1986  0.0180
  178DOPC  C31321846   3.063   4.241   4.511  0.3730 -0.0410 -0.0198
  178DOPC  H13X21847   3.082   4.320   4.436 -1.1092  0.5166  0.1518
  178DOPC  H13Y21848   3.096   4.145   4.467 -1.4057 -0.9836  0.6026
  178DOPC  C31421849   2.907   4.249   4.525  0.0709  0.0690 -0.7382
  178DOPC  H14X21850   2.861   4.234   4.425 -1.7259  1.5370 -0.1840
  178DOPC  H14Y21851   2.890   4.160   4.589  0.8843 -0.9034 -1.8183
  178DOPC  C31521852   2.847   4.373   4.597  0.0693 -0.0339  0.0702
  178DOPC  H15X21853   2.884   4.472   4.562  1.3481 -0.1849  0.9446
  178DOPC  H15Y21854   2.871   4.369   4.705  0.2434  0.8259  0.0695
  178DOPC  C31621855   2.692   4.376   4.594 -0.0451 -0.2616 -0.0148
  178DOPC  H16X21856   2.664   4.479   4.623 -0.3634  0.0356 -1.3199
  178DOPC  H16Y21857   2.652   4.367   4.491  2.4717 -1.6255 -0.9482
  178DOPC  C31721858   2.625   4.266   4.682  0.0441 -0.6046  0.4856
  178DOPC  H17X21859   2.649   4.167   4.638  0.8543 -0.1868 -0.0402
  178DOPC  H17Y21860   2.660   4.260   4.787 -0.0754  0.1948  0.5777
  178DOPC  C31821861   2.472   4.282   4.696 -0.3461 -0.4151  0.1066
  178DOPC  H18X21862   2.418   4.190   4.728 -1.9027 -0.4690 -2.4698
  178DOPC  H18Y21863   2.438   4.357   4.771 -0.2352 -0.5780  0.3225
  178DOPC  H18Z21864   2.434   4.313   4.597  1.2040  0.2109 -0.3165
  179DOPC     N21865   5.867   5.097   2.731 -0.5945 -0.1706  0.7839
  179DOPC   C1221866   5.889   5.136   2.877 -0.2390  0.7414  0.2083
  179DOPC  H12A21867   5.994   5.119   2.899 -0.6754 -0.9716  1.1831
  179DOPC  H12B21868   5.826   5.066   2.929  2.2995 -0.9697  1.2222
  179DOPC   C1321869   5.948   5.193   2.643 -0.2883  0.2420 -0.0285
  179DOPC  H13A21870   6.050   5.191   2.676 -0.5495 -1.2574  0.7901
  179DOPC  H13B21871   5.944   5.163   2.539  0.7553 -1.0441  0.2791
  179DOPC  H13C21872   5.920   5.296   2.656 -0.0857  0.1649  1.0905
  179DOPC   C1421873   5.727   5.092   2.698  0.6569 -0.3214 -0.8014
  179DOPC  H14A21874   5.670   5.038   2.771  0.0098 -0.5161 -1.4423
  179DOPC  H14B21875   5.686   5.192   2.707 -2.5277 -1.5672 -0.2037
  179DOPC  H14C21876   5.712   5.061   2.595  1.8984 -0.6677 -0.8951
  179DOPC   C1521877   5.938   4.969   2.707 -0.1102 -0.7556  0.4979
  179DOPC  H15A21878   5.939   4.939   2.603  1.3986  0.4041  0.1430
  179DOPC  H15B21879   5.905   4.889   2.770  0.2646  0.3389  2.1493
  179DOPC  H15C21880   6.041   4.982   2.738  0.2357 -1.1492 -0.4273
  179DOPC   C1121881   5.858   5.276   2.930 -0.5389 -0.0303 -0.4470
  179DOPC  H11A21882   5.883   5.270   3.038 -0.2116  1.5283 -0.4172
  179DOPC  H11B21883   5.923   5.353   2.882  0.5169 -0.5707  0.0603
  179DOPC     P21884   5.611   5.297   3.008  0.1008  0.1963 -0.2028
  179DOPC   O1321885   5.532   5.174   2.970 -0.0116 -0.6571  0.1172
  179DOPC   O1421886   5.540   5.428   3.025 -0.2714  0.3583  0.4885
  179DOPC   O1221887   5.731   5.319   2.907  0.5848  0.3483  0.2731
  179DOPC   O1121888   5.681   5.276   3.141 -0.3332 -0.2907 -0.3609
  179DOPC    C121889   5.698   5.152   3.202 -0.2281 -0.2743  0.4327
  179DOPC    HA21890   5.767   5.082   3.149  1.8267  0.9937  1.3076
  179DOPC    HB21891   5.600   5.108   3.229  0.2117 -1.8564 -0.4310
  179DOPC    C221892   5.765   5.162   3.344  0.1835 -0.3646 -0.2073
  179DOPC    HS21893   5.751   5.057   3.379  1.3157 -1.3608 -2.5160
  179DOPC   O2121894   5.699   5.264   3.419  0.1115  0.2710  0.3259
  179DOPC   C2121895   5.692   5.229   3.545  0.6988  0.5614 -0.6931
  179DOPC   O2221896   5.716   5.121   3.595  0.2449  0.5174  0.7315
  179DOPC   C2221897   5.629   5.350   3.618  0.1611 -0.1104 -0.4242
  179DOPC   H2R21898   5.549   5.399   3.560  0.2043 -1.1955 -1.4489
  179DOPC   H2S21899   5.702   5.430   3.640 -2.1610  1.4033  2.3806
  179DOPC    C321900   5.915   5.195   3.333  0.2176  0.2835  0.0181
  179DOPC    HX21901   5.913   5.302   3.304 -1.7723  0.0233 -0.9858
  179DOPC    HY21902   5.963   5.134   3.254 -1.4920  0.8888 -1.5505
  179DOPC   O3121903   5.975   5.180   3.463 -0.1914 -0.0573  0.1935
  179DOPC   C3121904   6.031   5.059   3.492  0.6632 -0.1375  0.2699
  179DOPC   O3221905   6.029   4.966   3.415 -0.0656  0.3240  0.0199
  179DOPC   C3221906   6.073   5.054   3.637  0.1796 -0.5412  0.1645
  179DOPC   H2X21907   6.171   5.106   3.647  0.7425 -1.5264 -0.1642
  179DOPC   H2Y21908   6.006   5.120   3.697  1.0087  0.5134 -0.0336
  179DOPC   C2321909   5.582   5.298   3.758  0.0664  0.1692 -0.3985
  179DOPC   H3R21910   5.531   5.200   3.748  1.3866 -0.9005  2.3879
  179DOPC   H3S21911   5.508   5.371   3.797  1.0329  0.4255  1.0762
  179DOPC   C2421912   5.694   5.300   3.866  0.1975 -0.1318 -0.1402
  179DOPC   H4R21913   5.735   5.403   3.862  1.4413 -0.5583  0.9240
  179DOPC   H4S21914   5.780   5.229   3.860  0.7377  0.2700  1.9877
  179DOPC   C2521915   5.635   5.263   4.004  0.5959  0.1186  0.2484
  179DOPC   H5R21916   5.539   5.317   4.017  0.1612 -0.6859  0.4318
  179DOPC   H5S21917   5.701   5.310   4.080  1.3488  0.9806 -0.9029
  179DOPC   C2621918   5.641   5.115   4.041 -0.5348  0.1634  0.2076
  179DOPC   H6R21919   5.746   5.079   4.035 -0.1698  1.3915 -1.5158
  179DOPC   H6S21920   5.590   5.054   3.964  1.6412 -1.1073 -0.3036
  179DOPC   C2721921   5.570   5.091   4.175  0.2767  0.0054  0.0481
  179DOPC   H7R21922   5.469   5.136   4.162  0.3719 -0.1834 -1.4861
  179DOPC   H7S21923   5.622   5.157   4.248 -0.2894 -0.6978  1.0933
  179DOPC   C2821924   5.562   4.940   4.218  0.3191  0.1327  0.0954
  179DOPC   H8R21925   5.665   4.899   4.218  0.2014 -0.2760  1.9966
  179DOPC   H8S21926   5.502   4.878   4.148  0.8401  0.0033 -0.2347
  179DOPC   C2921927   5.514   4.925   4.361  0.2881  0.1219 -0.1489
  179DOPC   H9R21928   5.404   4.930   4.361  0.2950  0.2675 -0.0137
  179DOPC  C21021929   5.582   4.902   4.477 -0.4073  0.6348  0.9463
  179DOPC  H10R21930   5.529   4.874   4.569  1.2296 -2.1372  1.1574
  179DOPC  C21121931   5.722   4.882   4.510  1.0504  0.0983  0.8479
  179DOPC  H11R21932   5.754   4.980   4.550 -1.1763  0.6583  1.4066
  179DOPC  H11S21933   5.768   4.854   4.413  0.7836 -0.8896  0.9957
  179DOPC  C21221934   5.746   4.770   4.615 -0.0294 -0.1984 -0.5851
  179DOPC  H12R21935   5.705   4.798   4.714  0.3805 -0.5791 -0.3039
  179DOPC  H12S21936   5.856   4.758   4.631 -0.2891 -0.5259  1.0685
  179DOPC  C21321937   5.695   4.634   4.560 -0.1716  0.1058 -0.7521
  179DOPC  H13R21938   5.758   4.603   4.474 -0.5795  1.0025 -1.3921
  179DOPC  H13S21939   5.589   4.642   4.529 -0.2204 -1.8014 -1.2008
  179DOPC  C21421940   5.702   4.526   4.664 -0.5041 -0.1177 -0.4427
  179DOPC  H14R21941   5.622   4.544   4.739  0.6821  1.1794  0.5600
  179DOPC  H14S21942   5.798   4.524   4.719 -0.3081 -1.6001 -0.7885
  179DOPC  C21521943   5.672   4.381   4.609 -0.3079  0.2635  0.0859
  179DOPC  H15R21944   5.735   4.347   4.524  1.1201  1.2736  0.6938
  179DOPC  H15S21945   5.573   4.378   4.559 -0.2166 -3.5844 -0.1233
  179DOPC  C21621946   5.650   4.279   4.717  0.4586 -0.4039  0.5245
  179DOPC  H16R21947   5.570   4.329   4.776  0.0639  0.7135 -0.9171
  179DOPC  H16S21948   5.736   4.255   4.784  0.3155 -0.3377  0.7339
  179DOPC  C21721949   5.593   4.152   4.662 -0.2757  0.5002 -0.5700
  179DOPC  H17R21950   5.681   4.101   4.616  2.7155  0.3677  4.5296
  179DOPC  H17S21951   5.507   4.180   4.598 -0.7579 -0.8793 -0.5704
  179DOPC  C21821952   5.541   4.056   4.774 -0.0733  0.2366 -0.4866
  179DOPC  H18R21953   5.480   3.968   4.744  0.0144 -0.2612  0.7192
  179DOPC  H18S21954   5.505   4.118   4.859 -0.0660  0.9624 -1.0019
  179DOPC  H18T21955   5.628   4.012   4.826 -0.3821  0.6866  0.4396
  179DOPC   C3321956   6.067   4.913   3.708  0.2148 -0.0643  0.3379
  179DOPC   H3X21957   6.133   4.841   3.655 -1.7635 -0.3555 -1.9222
  179DOPC   H3Y21958   5.965   4.874   3.685  0.4450  0.2792 -1.4380
  179DOPC   C3421959   6.089   4.929   3.849 -0.0102  0.3618 -0.3421
  179DOPC   H4X21960   6.042   5.013   3.903  0.1301  0.4537 -0.3639
  179DOPC   H4Y21961   6.196   4.958   3.860 -0.2166  1.3729 -0.9340
  179DOPC   C3521962   6.052   4.803   3.936  0.2523  0.0413 -0.6063
  179DOPC   H5X21963   6.069   4.722   3.862  0.2379  1.1296 -1.8422
  179DOPC   H5Y21964   5.942   4.796   3.948  0.3273 -1.0301 -0.3900
  179DOPC   C3621965   6.127   4.775   4.065  0.0784 -0.0398 -0.3149
  179DOPC   H6X21966   6.102   4.672   4.096  0.7577  1.0499  4.5774
  179DOPC   H6Y21967   6.237   4.779   4.048  0.2821 -0.3615  0.8819
  179DOPC   C3721968   6.078   4.876   4.170 -0.0933  0.1022 -0.0681
  179DOPC   H7X21969   6.105   4.975   4.127  0.1826 -0.6476 -1.6715
  179DOPC   H7Y21970   5.967   4.870   4.176 -0.1712  1.9328  1.0305
  179DOPC   C3821971   6.137   4.869   4.311 -0.4676 -0.0851 -0.4451
  179DOPC   H8X21972   6.102   4.962   4.361  0.5595 -0.7158  1.5764
  179DOPC   H8Y21973   6.248   4.867   4.302 -0.3664  0.1763  0.6628
  179DOPC   C3921974   6.077   4.749   4.381  0.2570  0.4570 -0.2831
  179DOPC   H9X21975   6.018   4.685   4.313 -1.1716  1.7748 -0.3571
  179DOPC  C31021976   6.107   4.711   4.506 -0.2759 -0.7032 -0.3705
  179DOPC  H10X21977   6.053   4.627   4.553  0.4423 -1.0581 -0.1634
  179DOPC  C31121978   6.202   4.783   4.599 -0.4085  0.4362  0.2694
  179DOPC  H11X21979   6.144   4.834   4.679 -1.9941 -0.3929 -0.3152
  179DOPC  H11Y21980   6.267   4.854   4.545  1.4591 -1.1358  0.3024
  179DOPC  C31221981   6.300   4.675   4.668 -0.6256 -0.6139 -0.1418
  179DOPC  H12X21982   6.374   4.733   4.726  1.6287 -0.6480 -2.7771
  179DOPC  H12Y21983   6.363   4.618   4.597  0.9981  0.5398  0.3252
  179DOPC  C31321984   6.220   4.578   4.761 -0.6264  0.0202 -0.5184
  179DOPC  H13X21985   6.147   4.644   4.813  1.1868  1.0931  0.7709
  179DOPC  H13Y21986   6.169   4.501   4.699 -0.5459 -1.9754  1.7196
  179DOPC  C31421987   6.308   4.517   4.884 -0.4127  0.7464  0.6937
  179DOPC  H14X21988   6.351   4.599   4.945  1.3492 -0.5203  1.2630
  179DOPC  H14Y21989   6.239   4.451   4.943  0.7548 -1.7209 -0.5489
  179DOPC  C31521990   6.433   4.432   4.838  0.0459 -0.3600  0.0359
  179DOPC  H15X21991   6.492   4.411   4.930  0.2509  1.4977  0.3769
  179DOPC  H15Y21992   6.497   4.490   4.768 -0.2339 -1.3030 -1.0180
  179DOPC  C31621993   6.402   4.294   4.791 -0.1270  0.4794  0.2444
  179DOPC  H16X21994   6.342   4.236   4.864  0.7912 -1.2447 -0.2975
  179DOPC  H16Y21995   6.338   4.299   4.701 -1.3744 -0.0813  1.0757
  179DOPC  C31721996   6.524   4.211   4.739 -1.1193  0.8991 -0.5634
  179DOPC  H17X21997   6.486   4.113   4.703  0.7440 -0.0179 -0.1602
  179DOPC  H17Y21998   6.577   4.266   4.658  0.7762  1.2370  0.8427
  179DOPC  C31821999   6.634   4.170   4.840 -0.5654 -0.1194  0.0544
  179DOPC  H18X22000   6.733   4.163   4.791  0.0788  0.8125  1.1822
  179DOPC  H18Y22001   6.650   4.257   4.907  0.4112  1.9339 -2.6563
  179DOPC  H18Z22002   6.607   4.078   4.895  2.0456 -1.0585 -0.1193
  180DOPC     N22003   5.890   2.304   2.793 -0.1259 -0.2889  0.2105
  180DOPC   C1222004   5.916   2.253   2.933 -0.6175 -0.1138 -0.4693
  180DOPC  H12A22005   5.992   2.176   2.927  1.9514  2.2090  0.0280
  180DOPC  H12B22006   5.825   2.209   2.969 -1.3958  1.4621 -0.4297
  180DOPC   C1322007   6.015   2.357   2.732  0.0441 -0.4512  0.1900
  180DOPC  H13A22008   6.102   2.294   2.735  1.3114  1.2493  0.9527
  180DOPC  H13B22009   5.984   2.396   2.636  3.2891  3.1047  0.3515
  180DOPC  H13C22010   6.043   2.447   2.785  0.5784 -1.1810  1.1679
  180DOPC   C1422011   5.790   2.416   2.782 -0.1232 -0.3142 -0.2735
  180DOPC  H14A22012   5.779   2.459   2.684 -0.5108 -2.2349 -1.1261
  180DOPC  H14B22013   5.700   2.374   2.824  1.7212 -1.7569  2.5510
  180DOPC  H14C22014   5.800   2.503   2.845  0.1101  0.1437 -0.9397
  180DOPC   C1522015   5.840   2.203   2.703  0.4945 -0.0149 -0.3217
  180DOPC  H15A22016   5.754   2.153   2.747 -0.3846  1.5043 -0.2609
  180DOPC  H15B22017   5.903   2.124   2.666 -0.6909 -0.1815 -2.1037
  180DOPC  H15C22018   5.797   2.253   2.618  0.0784  1.7040  0.8364
  180DOPC   C1122019   5.972   2.358   3.031  0.0413  0.9804 -0.3521
  180DOPC  H11A22020   5.999   2.290   3.115  0.0196  1.0625 -0.2787
  180DOPC  H11B22021   6.069   2.404   3.001  0.5579 -1.0284 -1.9923
  180DOPC     P22022   5.888   2.551   3.179 -0.2144 -0.4798 -0.0369
  180DOPC   O1322023   5.812   2.667   3.128 -0.2302  0.6424 -0.2124
  180DOPC   O1422024   6.031   2.567   3.211 -0.5662  0.7013  0.2156
  180DOPC   O1222025   5.865   2.443   3.077  0.6106  0.1678  0.2264
  180DOPC   O1122026   5.810   2.500   3.304  0.0207 -0.7417  0.3201
  180DOPC    C122027   5.748   2.370   3.324 -0.8736 -0.3495 -0.3295
  180DOPC    HA22028   5.747   2.353   3.433 -1.1722  0.6835 -0.1662
  180DOPC    HB22029   5.814   2.288   3.288  0.4379  0.5323  0.0265
  180DOPC    C222030   5.605   2.371   3.265  0.1493  0.7413  0.4108
  180DOPC    HS22031   5.616   2.422   3.167  0.6192  0.3385  0.2529
  180DOPC   O2122032   5.517   2.451   3.344  0.0654  0.1444 -0.2781
  180DOPC   C2122033   5.407   2.496   3.289 -0.7523 -0.2342 -0.4922
  180DOPC   O2222034   5.375   2.484   3.175  0.0226 -0.0427  0.3774
  180DOPC   C2222035   5.348   2.597   3.387 -0.7230  0.1321  0.2174
  180DOPC   H2R22036   5.249   2.621   3.343 -0.9664 -1.8106 -0.3590
  180DOPC   H2S22037   5.396   2.698   3.386  1.8776 -1.0350  0.3789
  180DOPC    C322038   5.555   2.233   3.238  0.2216 -0.5046  0.2704
  180DOPC    HX22039   5.625   2.182   3.169 -0.0171  1.1345 -1.2869
  180DOPC    HY22040   5.463   2.241   3.175  0.3165  1.8381  0.3403
  180DOPC   O3122041   5.537   2.162   3.362  0.0820  0.4429  0.1984
  180DOPC   C3122042   5.409   2.141   3.398 -0.6049  0.5396  0.0427
  180DOPC   O3222043   5.310   2.182   3.347  0.5215  0.3538 -0.0656
  180DOPC   C3222044   5.421   2.054   3.520 -0.2147 -0.0825 -0.6561
  180DOPC   H2X22045   5.389   1.954   3.484 -0.4085 -0.4117  0.3905
  180DOPC   H2Y22046   5.525   2.037   3.555 -1.2073 -0.8840  2.2061
  180DOPC   C2322047   5.325   2.551   3.526  0.0228  0.4829  0.0988
  180DOPC   H3R22048   5.421   2.542   3.581  0.4815  1.0712 -0.5793
  180DOPC   H3S22049   5.267   2.457   3.526 -0.2689  0.6394 -1.4179
  180DOPC   C2422050   5.233   2.656   3.600 -0.1593  1.2666  0.4788
  180DOPC   H4R22051   5.138   2.672   3.544 -0.4708  1.1592  0.9686
  180DOPC   H4S22052   5.290   2.751   3.586  0.9174  0.7758  1.3941
  180DOPC   C2522053   5.198   2.634   3.753 -0.1998 -0.1367  0.4922
  180DOPC   H5R22054   5.296   2.634   3.805  0.5450  1.1849 -0.8345
  180DOPC   H5S22055   5.146   2.538   3.770  0.4070 -0.3702  1.0804
  180DOPC   C2622056   5.125   2.756   3.810 -0.0300  0.5563  0.0261
  180DOPC   H6R22057   5.095   2.731   3.914 -1.0734  0.7266 -0.2188
  180DOPC   H6S22058   5.033   2.766   3.749 -0.0982 -1.4225 -0.2491
  180DOPC   C2722059   5.207   2.889   3.812  0.0016 -0.0270 -0.2791
  180DOPC   H7R22060   5.209   2.934   3.710  4.7158 -1.2346 -0.9854
  180DOPC   H7S22061   5.313   2.857   3.819 -0.5462 -2.2024 -1.0691
  180DOPC   C2822062   5.177   2.980   3.933 -0.0065  0.0503  0.1792
  180DOPC   H8R22063   5.245   3.068   3.931  1.0343 -0.7437 -0.9335
  180DOPC   H8S22064   5.221   2.925   4.019  0.5693  0.6093  0.2534
  180DOPC   C2922065   5.030   3.020   3.950  0.4396 -0.2023  1.0978
  180DOPC   H9R22066   4.991   3.088   3.873  0.3117  0.0132  1.3504
  180DOPC  C21022067   4.951   2.966   4.049 -0.5274 -0.3867  0.0390
  180DOPC  H10R22068   4.852   3.014   4.058 -1.3192 -1.7501 -1.0125
  180DOPC  C21122069   4.994   2.880   4.166 -0.1375  1.1724 -0.3980
  180DOPC  H11R22070   5.002   2.945   4.256  0.1230 -0.3101  0.6684
  180DOPC  H11S22071   5.089   2.827   4.142  0.0824  1.8013 -0.9640
  180DOPC  C21222072   4.898   2.762   4.205  0.0334  0.6086  0.1039
  180DOPC  H12R22073   4.894   2.702   4.111  3.7645  0.8530 -0.3658
  180DOPC  H12S22074   4.800   2.807   4.232 -1.6239 -1.1040 -2.5404
  180DOPC  C21322075   4.950   2.671   4.318  0.7840 -0.1825  0.7661
  180DOPC  H13R22076   4.966   2.736   4.407  0.8103  0.7224  0.1069
  180DOPC  H13S22077   5.049   2.631   4.288  0.1876 -0.3854 -1.0183
  180DOPC  C21422078   4.854   2.553   4.366  0.8932 -0.0305  0.3078
  180DOPC  H14R22079   4.882   2.477   4.289  1.8839  0.1104  0.5234
  180DOPC  H14S22080   4.752   2.595   4.351  1.0891  1.1067  1.9588
  180DOPC  C21522081   4.883   2.498   4.510  0.7352 -0.4613  0.0232
  180DOPC  H15R22082   4.992   2.482   4.522  0.5060 -2.0665  0.2576
  180DOPC  H15S22083   4.839   2.396   4.504 -0.9267  0.2107  0.0656
  180DOPC  C21622084   4.817   2.574   4.621  0.1911  1.0050  0.3934
  180DOPC  H16R22085   4.727   2.516   4.651 -0.5150  2.9283  2.2659
  180DOPC  H16S22086   4.773   2.662   4.568  0.5471  0.1770 -1.3582
  180DOPC  C21722087   4.910   2.610   4.739  0.0593 -0.4843  0.0993
  180DOPC  H17R22088   4.998   2.664   4.699 -2.4601  0.9140 -4.2293
  180DOPC  H17S22089   4.945   2.512   4.778  2.2940 -0.4933 -1.7048
  180DOPC  C21822090   4.840   2.708   4.837 -0.1856  0.5937  0.8622
  180DOPC  H18R22091   4.876   2.691   4.941  0.6352 -3.3053  0.0991
  180DOPC  H18S22092   4.735   2.673   4.828  0.1419  0.1422 -2.7200
  180DOPC  H18T22093   4.842   2.810   4.793  0.8431 -0.3259 -1.3648
  180DOPC   C3322094   5.329   2.102   3.632  0.1198  0.4694  0.0117
  180DOPC   H3X22095   5.227   2.071   3.600  0.8512 -2.2275  0.0986
  180DOPC   H3Y22096   5.337   2.211   3.650  1.9006 -0.0402  3.0054
  180DOPC   C3422097   5.380   2.028   3.757  0.0791 -0.0549 -0.0488
  180DOPC   H4X22098   5.338   2.071   3.851 -0.2091  3.6122 -1.6964
  180DOPC   H4Y22099   5.490   2.042   3.755  0.0171  0.8468  1.2619
  180DOPC   C3522100   5.350   1.876   3.760  0.2404  0.5799 -0.0638
  180DOPC   H5X22101   5.418   1.825   3.689  1.3880 -0.0863  1.4699
  180DOPC   H5Y22102   5.244   1.868   3.728  0.2471  1.7366 -0.4579
  180DOPC   C3622103   5.386   1.819   3.894  0.6416  1.0156  0.0942
  180DOPC   H6X22104   5.497   1.822   3.894  0.7833 -1.4387  1.2961
  180DOPC   H6Y22105   5.350   1.885   3.976 -0.5174  2.3893 -1.4678
  180DOPC   C3722106   5.345   1.672   3.925 -0.3322  0.1109 -0.5587
  180DOPC   H7X22107   5.349   1.617   3.829 -0.0745  0.5576 -0.8027
  180DOPC   H7Y22108   5.416   1.622   3.994 -3.7236 -0.2283  3.0652
  180DOPC   C3822109   5.211   1.655   3.993  0.9224  0.6473 -0.5979
  180DOPC   H8X22110   5.143   1.714   3.927 -0.4587 -0.8089 -0.5199
  180DOPC   H8Y22111   5.215   1.711   4.089  4.1172 -1.2732  0.5210
  180DOPC   C3922112   5.174   1.510   3.997 -0.5594 -0.0476  0.4595
  180DOPC   H9X22113   5.120   1.463   3.914 -0.1256 -3.6906  2.0195
  180DOPC  C31022114   5.188   1.438   4.109 -0.8118 -0.0734 -0.1671
  180DOPC  H10X22115   5.164   1.331   4.107  1.3471 -0.6304 -3.1177
  180DOPC  C31122116   5.257   1.476   4.245  0.0288  0.4099 -0.2205
  180DOPC  H11X22117   5.306   1.575   4.238  2.3135 -0.4892  1.8551
  180DOPC  H11Y22118   5.338   1.404   4.269 -1.7498 -0.9367  2.1342
  180DOPC  C31222119   5.152   1.470   4.356  0.9194  1.2334  0.5041
  180DOPC  H12X22120   5.198   1.457   4.456 -1.5830 -1.3751  1.4676
  180DOPC  H12Y22121   5.090   1.380   4.338 -0.0108  2.3585 -2.5725
  180DOPC  C31322122   5.071   1.596   4.349 -0.7029 -0.4526 -0.0116
  180DOPC  H13X22123   5.098   1.664   4.433 -1.2107  0.7300 -0.7784
  180DOPC  H13Y22124   5.093   1.640   4.250 -0.5784 -0.0392  0.1949
  180DOPC  C31422125   4.923   1.562   4.358 -1.1427 -0.0985  0.3235
  180DOPC  H14X22126   4.865   1.649   4.319  0.3213  0.1426 -1.4463
  180DOPC  H14Y22127   4.908   1.474   4.293 -1.5882 -1.4439  2.1641
  180DOPC  C31522128   4.883   1.524   4.501  0.0141 -0.3017  0.4343
  180DOPC  H15X22129   4.894   1.606   4.576 -1.6826  2.8735 -2.4804
  180DOPC  H15Y22130   4.921   1.424   4.531 -1.1381 -0.5984  0.9706
  180DOPC  C31622131   4.728   1.495   4.511 -0.1113 -0.5207 -0.0892
  180DOPC  H16X22132   4.677   1.586   4.474  0.6245 -0.7936 -1.8620
  180DOPC  H16Y22133   4.709   1.418   4.434 -0.1165 -0.8111  0.1985
  180DOPC  C31722134   4.674   1.467   4.651 -0.2266  0.2610  0.2428
  180DOPC  H17X22135   4.709   1.362   4.660 -0.5163 -0.1654 -2.6898
  180DOPC  H17Y22136   4.721   1.535   4.726 -1.3009  2.4894 -0.9949
  180DOPC  C31822137   4.526   1.470   4.669 -0.7749  0.4962 -0.5874
  180DOPC  H18X22138   4.503   1.440   4.773  0.8272 -1.3294 -0.7148
  180DOPC  H18Y22139   4.500   1.577   4.652  2.8429  1.7653  0.8820
  180DOPC  H18Z22140   4.465   1.401   4.606 -0.0947 -0.3975 -0.2886
  181DOPC     N22141   0.196   4.019   2.999 -0.0470  0.5506  0.1691
  181DOPC   C1222142   0.253   3.874   2.980  0.5070 -0.0759 -0.2476
  181DOPC  H12A22143   0.355   3.889   2.949  0.1634  1.9782 -0.4764
  181DOPC  H12B22144   0.207   3.827   2.894  0.4294 -0.2885 -0.0927
  181DOPC   C1322145   0.156   4.083   2.874  0.8414  0.1359  0.5273
  181DOPC  H13A22146   0.101   4.173   2.895 -1.6500 -1.5964  2.0708
  181DOPC  H13B22147   0.240   4.091   2.807  1.7772  1.6957  1.8084
  181DOPC  H13C22148   0.084   4.023   2.819 -0.9756 -0.1842  3.0621
  181DOPC   C1422149   0.287   4.113   3.070 -0.0049  0.9716  0.2701
  181DOPC  H14A22150   0.370   4.143   3.009  0.6601  0.6081  0.9824
  181DOPC  H14B22151   0.239   4.205   3.101 -0.6483  0.6670  0.2004
  181DOPC  H14C22152   0.326   4.067   3.160 -0.8821  0.6028  0.4784
  181DOPC   C1522153   0.074   4.007   3.079  0.3244  0.0167  0.5190
  181DOPC  H15A22154   0.012   4.095   3.073 -0.5832 -0.6926 -1.0791
  181DOPC  H15B22155   0.101   3.980   3.180  0.3483 -0.5748  0.3600
  181DOPC  H15C22156   0.013   3.925   3.044  1.2224 -0.4234 -0.0427
  181DOPC   C1122157   0.263   3.779   3.101  0.1912  0.1550 -0.2545
  181DOPC  H11A22158   0.166   3.749   3.148  0.3886 -1.5768 -0.8848
  181DOPC  H11B22159   0.299   3.680   3.066 -1.6848 -0.2656 -1.1280
  181DOPC     P22160   0.500   3.772   3.221 -0.0848 -0.0740 -0.3765
  181DOPC   O1322161   0.577   3.862   3.303 -0.5280 -0.2325 -0.0170
  181DOPC   O1422162   0.562   3.756   3.088 -0.6963  0.3623 -0.2587
  181DOPC   O1222163   0.353   3.831   3.201  0.0265  0.2522 -0.1238
  181DOPC   O1122164   0.477   3.632   3.290  0.2757  0.3402  0.0653
  181DOPC    C122165   0.388   3.615   3.403  0.6654 -0.1029 -0.9307
  181DOPC    HA22166   0.328   3.523   3.387  1.8758 -0.6875 -2.3810
  181DOPC    HB22167   0.324   3.705   3.417  0.7490  0.0699 -1.6064
  181DOPC    C222168   0.461   3.582   3.542 -0.1289 -0.0213  0.2544
  181DOPC    HS22169   0.521   3.673   3.563 -0.0228 -0.4955  2.1322
  181DOPC   O2122170   0.535   3.461   3.532 -0.3260  0.1965  0.0988
  181DOPC   C2122171   0.643   3.469   3.613 -0.0700  0.0295  0.9863
  181DOPC   O2222172   0.660   3.556   3.695 -0.0865 -0.4537 -0.6626
  181DOPC   C2222173   0.743   3.355   3.583  0.2050  0.7138  0.1488
  181DOPC   H2R22174   0.825   3.406   3.529 -0.7925 -0.4635 -2.6904
  181DOPC   H2S22175   0.698   3.275   3.520  3.2298 -1.5487  0.6588
  181DOPC    C322176   0.360   3.570   3.651  0.6393  0.3163 -0.0629
  181DOPC    HX22177   0.406   3.567   3.752  0.3591  2.4928  0.1858
  181DOPC    HY22178   0.308   3.474   3.632 -0.2689  0.5164  1.2746
  181DOPC   O3122179   0.262   3.669   3.649  0.1530 -0.3126 -0.2060
  181DOPC   C3122180   0.301   3.783   3.707  0.0156 -0.0913 -0.6686
  181DOPC   O3222181   0.412   3.804   3.757 -0.1590 -0.5116  0.0274
  181DOPC   C3222182   0.183   3.870   3.713 -0.7231  0.2769 -0.4026
  181DOPC   H2X22183   0.144   3.901   3.614  0.3443 -1.6337 -1.4699
  181DOPC   H2Y22184   0.102   3.805   3.753 -2.4471  1.2177 -2.2125
  181DOPC   C2322185   0.804   3.305   3.717 -0.2220  0.1910 -0.1849
  181DOPC   H3R22186   0.839   3.392   3.777  2.3115 -0.8779  0.0427
  181DOPC   H3S22187   0.895   3.247   3.691  0.0881  0.5431  0.1005
  181DOPC   C2422188   0.706   3.231   3.805 -0.0322 -0.1130  0.5350
  181DOPC   H4R22189   0.666   3.147   3.744 -0.3804 -0.3874  1.1309
  181DOPC   H4S22190   0.625   3.298   3.841 -0.5568  0.5844 -1.7916
  181DOPC   C2522191   0.755   3.155   3.922  0.0215 -0.6229  0.3444
  181DOPC   H5R22192   0.779   3.220   4.010 -0.6157  1.3899 -0.8978
  181DOPC   H5S22193   0.852   3.111   3.894  0.0321  0.6592 -1.8845
  181DOPC   C2622194   0.666   3.042   3.968  0.2322 -0.1333  0.0707
  181DOPC   H6R22195   0.670   2.955   3.899  1.2927 -0.0936  0.0669
  181DOPC   H6S22196   0.566   3.089   3.963  0.7053  0.9464  0.4925
  181DOPC   C2722197   0.692   2.992   4.110  0.1543  0.1144 -0.6383
  181DOPC   H7R22198   0.668   3.077   4.178  0.9900  0.0250 -0.2269
  181DOPC   H7S22199   0.798   2.962   4.124 -1.1380 -4.8286  0.4078
  181DOPC   C2822200   0.601   2.876   4.147  0.2720 -0.3324  0.0666
  181DOPC   H8R22201   0.635   2.834   4.243 -1.5615  1.8766  1.8022
  181DOPC   H8S22202   0.638   2.809   4.067 -0.3948  0.8272 -1.2743
  181DOPC   C2922203   0.450   2.895   4.149 -0.4264  0.2429  0.4989
  181DOPC   H9R22204   0.411   2.960   4.229  2.5083 -0.1306  2.3842
  181DOPC  C21022205   0.364   2.837   4.070  0.1944  0.0625  1.0142
  181DOPC  H10R22206   0.259   2.867   4.080 -0.0359 -0.9165  1.7429
  181DOPC  C21122207   0.407   2.772   3.939  0.3698  1.0003 -0.0648
  181DOPC  H11R22208   0.498   2.814   3.892  0.5758  1.9102  1.0976
  181DOPC  H11S22209   0.334   2.788   3.856  2.0222 -2.5113 -2.4415
  181DOPC  C21222210   0.404   2.618   3.961 -0.4957  0.9512 -0.4168
  181DOPC  H12R22211   0.335   2.583   4.040 -0.5099 -1.1543 -1.2934
  181DOPC  H12S22212   0.504   2.595   4.003 -0.6236  2.0891  0.5706
  181DOPC  C21322213   0.374   2.540   3.833 -0.0139 -0.0924 -0.0915
  181DOPC  H13R22214   0.454   2.573   3.763  0.2663  0.1864  0.3511
  181DOPC  H13S22215   0.276   2.580   3.800 -0.1572  0.2739  0.7481
  181DOPC  C21422216   0.368   2.389   3.829  0.3333  0.4665 -0.9826
  181DOPC  H14R22217   0.465   2.341   3.858 -0.6184 -1.3181 -0.5821
  181DOPC  H14S22218   0.346   2.348   3.728 -1.4717  0.2221 -0.5283
  181DOPC  C21522219   0.259   2.340   3.922  0.2054  0.7557 -0.2713
  181DOPC  H15R22220   0.180   2.417   3.930 -0.5052 -0.0653  1.1485
  181DOPC  H15S22221   0.297   2.338   4.027 -2.2703 -2.9037  0.7278
  181DOPC  C21622222   0.225   2.188   3.896  0.5972 -0.0937  0.8869
  181DOPC  H16R22223   0.279   2.127   3.971  0.2086 -0.5813  0.7744
  181DOPC  H16S22224   0.271   2.169   3.796  1.1467 -0.5589  1.2253
  181DOPC  C21722225   0.071   2.158   3.907 -0.0014  0.7201  0.2628
  181DOPC  H17R22226   0.056   2.055   3.868 -0.9371  0.7076  0.6335
  181DOPC  H17S22227   0.020   2.228   3.837 -0.8020 -1.2281 -1.1818
  181DOPC  C21822228   0.021   2.151   4.056  0.2980  0.0848  0.2735
  181DOPC  H18R22229  -0.088   2.146   4.039  0.3718 -0.8556  0.0108
  181DOPC  H18S22230   0.038   2.232   4.131 -2.6366  1.1189 -0.0725
  181DOPC  H18T22231   0.042   2.049   4.096  0.5264 -1.2455 -2.9801
  181DOPC   C3322232   0.193   3.998   3.806  0.5046  0.0828 -0.3595
  181DOPC   H3X22233   0.271   4.060   3.757 -1.3809  2.8743 -0.1038
  181DOPC   H3Y22234   0.230   3.990   3.911  0.3094  0.6085 -0.2464
  181DOPC   C3422235   0.069   4.089   3.810  0.5948 -0.0054  0.1956
  181DOPC   H4X22236  -0.020   4.045   3.859  0.8042  1.2574  1.8122
  181DOPC   H4Y22237   0.031   4.089   3.706  0.5799  0.0028  0.2011
  181DOPC   C3522238   0.091   4.235   3.856  0.2643  0.0080 -0.3341
  181DOPC   H5X22239   0.007   4.293   3.812 -0.3409 -2.6908 -3.0833
  181DOPC   H5Y22240   0.179   4.279   3.806 -0.9475  0.1837 -2.4447
  181DOPC   C3622241   0.104   4.253   4.009 -0.2011  0.2852  0.0103
  181DOPC   H6X22242   0.189   4.187   4.035  0.2001  0.6464 -0.3789
  181DOPC   H6Y22243   0.129   4.359   4.031 -0.8066  0.4674 -0.1503
  181DOPC   C3722244  -0.034   4.221   4.079  0.3353  0.0107 -0.0861
  181DOPC   H7X22245  -0.105   4.297   4.041 -0.9620 -1.4330 -0.6567
  181DOPC   H7Y22246  -0.077   4.121   4.056 -2.5157  1.3361 -0.9037
  181DOPC   C3822247  -0.023   4.230   4.230  0.3661  0.3856  0.6252
  181DOPC   H8X22248  -0.124   4.210   4.272  0.0537  1.8437  0.6096
  181DOPC   H8Y22249  -0.003   4.332   4.267 -0.3197  1.3464 -1.4881
  181DOPC   C3922250   0.084   4.146   4.288  1.1500  0.3223 -0.1043
  181DOPC   H9X22251   0.179   4.202   4.294  0.3976  1.5659  0.3498
  181DOPC  C31022252   0.068   4.015   4.321 -0.4861  0.5323  0.2016
  181DOPC  H10X22253   0.152   3.963   4.370 -1.7244 -0.4362  1.3785
  181DOPC  C31122254  -0.058   3.935   4.315 -0.6915  0.7113  0.0861
  181DOPC  H11X22255  -0.022   3.838   4.277  0.1098  0.0613  2.3142
  181DOPC  H11Y22256  -0.128   3.983   4.243  0.8752  1.5907 -0.9066
  181DOPC  C31222257  -0.117   3.908   4.455  0.3651  0.4285 -0.0756
  181DOPC  H12X22258  -0.198   3.842   4.418  0.4994  0.1202  0.1808
  181DOPC  H12Y22259  -0.166   4.001   4.492 -0.5296  0.4276 -1.2014
  181DOPC  C31322260  -0.020   3.830   4.549 -0.4281 -0.1001  0.6643
  181DOPC  H13X22261   0.008   3.737   4.495 -2.0364 -1.7232  2.4848
  181DOPC  H13Y22262   0.077   3.881   4.564 -0.3425  1.0587 -2.8971
  181DOPC  C31422263  -0.087   3.800   4.689  0.1005  0.7076 -0.4273
  181DOPC  H14X22264  -0.022   3.741   4.757 -1.4575  0.9078  1.3094
  181DOPC  H14Y22265  -0.099   3.895   4.745  2.0355 -0.1139  1.5401
  181DOPC  C31522266  -0.213   3.720   4.661  0.7314  0.3659 -0.1690
  181DOPC  H15X22267  -0.181   3.636   4.596  1.6702 -0.5457  1.4051
  181DOPC  H15Y22268  -0.294   3.772   4.607  0.1936 -0.3983 -0.1214
  181DOPC  C31622269  -0.274   3.663   4.795 -0.0795 -0.2323  0.0639
  181DOPC  H16X22270  -0.184   3.613   4.837 -0.5775 -2.4108 -1.2760
  181DOPC  H16Y22271  -0.313   3.738   4.866 -0.6958 -1.5180  1.1339
  181DOPC  C31722272  -0.381   3.556   4.768 -0.6667  0.4199 -1.0204
  181DOPC  H17X22273  -0.473   3.612   4.744 -0.5382  1.2073  0.2546
  181DOPC  H17Y22274  -0.342   3.493   4.685  2.7856 -0.4638  1.0452
  181DOPC  C31822275  -0.405   3.465   4.891  0.2572 -0.7100  0.1123
  181DOPC  H18X22276  -0.316   3.404   4.920 -0.2212 -0.9311  1.1637
  181DOPC  H18Y22277  -0.468   3.501   4.975 -1.1767  0.4079 -1.4044
  181DOPC  H18Z22278  -0.482   3.395   4.852 -1.7020  0.7896  1.1112
  182DOPC     N22279   2.410   0.206   2.981  0.7125 -0.2983 -0.5230
  182DOPC   C1222280   2.285   0.188   3.068 -0.0829  0.1526 -0.5175
  182DOPC  H12A22281   2.291   0.265   3.143  1.5476 -0.4246 -0.0190
  182DOPC  H12B22282   2.298   0.095   3.122 -1.0231  1.1104  1.4519
  182DOPC   C1322283   2.430   0.082   2.901  0.1028 -0.3047  0.0037
  182DOPC  H13A22284   2.530   0.073   2.863  0.9826 -3.3272  2.6549
  182DOPC  H13B22285   2.425  -0.001   2.969 -0.0649 -0.2650  0.0413
  182DOPC  H13C22286   2.363   0.079   2.816  1.0824 -2.5005 -0.7663
  182DOPC   C1422287   2.539   0.233   3.056 -0.0474  0.3423 -0.5839
  182DOPC  H14A22288   2.546   0.329   3.106  0.7702  0.4695 -0.9251
  182DOPC  H14B22289   2.563   0.165   3.137  0.1014  3.4431  2.1979
  182DOPC  H14C22290   2.624   0.232   2.990  1.8157  1.3492  1.6529
  182DOPC   C1522291   2.408   0.318   2.883  0.2838 -0.5379  0.0998
  182DOPC  H15A22292   2.412   0.414   2.933  0.5334 -1.1097  1.2147
  182DOPC  H15B22293   2.322   0.314   2.817  2.1135  0.5005 -2.4845
  182DOPC  H15C22294   2.500   0.318   2.828 -0.3596 -1.4534 -1.0179
  182DOPC   C1122295   2.149   0.180   3.002 -1.0633 -0.1924  0.0810
  182DOPC  H11A22296   2.131   0.285   2.969 -0.2768  0.3225  1.2018
  182DOPC  H11B22297   2.158   0.101   2.925 -0.3074 -1.2653  1.2123
  182DOPC     P22298   1.910   0.109   3.035 -0.3918 -0.3370  0.6597
  182DOPC   O1322299   1.912  -0.032   3.000  0.1393  0.6627  0.1289
  182DOPC   O1422300   1.896   0.197   2.918 -0.4536  0.1567  0.4836
  182DOPC   O1222301   2.053   0.144   3.104  0.7169  0.0968 -0.1299
  182DOPC   O1122302   1.798   0.148   3.131 -0.4134 -0.2129  0.2302
  182DOPC    C122303   1.825   0.173   3.269 -0.1878  0.5918 -0.0212
  182DOPC    HA22304   1.734   0.223   3.309 -1.3595 -1.0775 -0.5007
  182DOPC    HB22305   1.913   0.240   3.279  1.4817 -1.4779 -0.0017
  182DOPC    C222306   1.843   0.033   3.339  0.0292 -0.1373  0.0918
  182DOPC    HS22307   1.882  -0.039   3.264 -2.3351 -1.9697  0.5049
  182DOPC   O2122308   1.720  -0.006   3.400 -0.0070 -0.0794  0.0831
  182DOPC   C2122309   1.684  -0.132   3.407 -0.0434  0.0125  0.4808
  182DOPC   O2222310   1.752  -0.225   3.384 -0.5842 -0.3842 -0.0004
  182DOPC   C2222311   1.547  -0.155   3.479  0.0116 -0.5509 -0.2589
  182DOPC   H2R22312   1.546  -0.260   3.514  0.0587  0.0684  1.7283
  182DOPC   H2S22313   1.469  -0.132   3.402 -1.1654  0.1496  1.1036
  182DOPC    C322314   1.957   0.047   3.441 -0.1914  0.4539 -0.7891
  182DOPC    HX22315   1.932   0.133   3.506  0.4660  1.1810 -1.4873
  182DOPC    HY22316   2.050   0.080   3.391  1.2615  0.5058  1.7608
  182DOPC   O3122317   1.985  -0.069   3.523 -0.6062  0.2282 -0.4224
  182DOPC   C3122318   2.055  -0.161   3.452  0.1287 -0.0464 -0.4848
  182DOPC   O3222319   2.108  -0.142   3.342 -0.3222 -0.1151 -0.1271
  182DOPC   C3222320   2.051  -0.291   3.531 -0.1251 -0.3885 -1.1334
  182DOPC   H2X22321   1.942  -0.301   3.553 -0.1278  0.3708 -0.7803
  182DOPC   H2Y22322   2.082  -0.377   3.467  3.6615  1.4919 -2.0703
  182DOPC   C2322323   1.523  -0.062   3.598 -0.7407  0.4267 -0.4815
  182DOPC   H3R22324   1.540   0.044   3.571  0.7151  0.9549  2.2059
  182DOPC   H3S22325   1.607  -0.085   3.667 -1.9659 -1.0357  0.5890
  182DOPC   C2422326   1.389  -0.074   3.668  0.2588  0.2455 -0.6661
  182DOPC   H4R22327   1.357  -0.179   3.683 -1.7158  1.0654  1.4972
  182DOPC   H4S22328   1.318  -0.024   3.599 -1.6199  0.1625  1.1162
  182DOPC   C2522329   1.388  -0.010   3.806 -0.2184 -0.0288  0.2746
  182DOPC   H5R22330   1.440   0.089   3.806  0.4227 -0.3467 -0.7120
  182DOPC   H5S22331   1.438  -0.080   3.876 -4.0152 -2.6798  0.6113
  182DOPC   C2622332   1.250  -0.006   3.877  0.5600  0.2796 -0.4146
  182DOPC   H6R22333   1.223  -0.110   3.904 -0.6471  0.7948  0.4620
  182DOPC   H6S22334   1.170   0.032   3.810 -0.2945  0.7231  0.8029
  182DOPC   C2722335   1.252   0.078   4.004 -0.4249  0.3653  0.1482
  182DOPC   H7R22336   1.284   0.183   3.990 -0.2889  0.6660  2.4299
  182DOPC   H7S22337   1.330   0.029   4.067  0.7527  0.7064 -0.9953
  182DOPC   C2822338   1.120   0.072   4.081 -0.0134 -0.1268  0.0680
  182DOPC   H8R22339   1.150   0.096   4.185  0.7022 -0.9584  0.0574
  182DOPC   H8S22340   1.098  -0.036   4.098 -0.6476  0.0884  0.7067
  182DOPC   C2922341   0.999   0.150   4.032 -0.2116  0.0244 -0.3043
  182DOPC   H9R22342   0.939   0.089   3.963  1.5976  0.6571 -2.5499
  182DOPC  C21022343   0.967   0.269   4.078  0.0700  0.0704 -0.5030
  182DOPC  H10R22344   0.881   0.320   4.033  0.5923  1.3933 -0.0527
  182DOPC  C21122345   1.050   0.342   4.178  0.6907  0.5349 -0.5390
  182DOPC  H11R22346   1.109   0.274   4.243  1.0782 -0.7246 -2.1354
  182DOPC  H11S22347   0.992   0.401   4.251 -0.1752  0.4516 -1.1440
  182DOPC  C21222348   1.136   0.444   4.106  0.1320 -0.1142 -0.0621
  182DOPC  H12R22349   1.068   0.494   4.033  0.8291  1.4090  0.2856
  182DOPC  H12S22350   1.213   0.386   4.051 -0.1286  0.2681 -0.8564
  182DOPC  C21322351   1.208   0.547   4.201 -0.5001 -0.0139  0.2579
  182DOPC  H13R22352   1.267   0.496   4.280 -1.0028 -2.7531 -1.0211
  182DOPC  H13S22353   1.122   0.598   4.250 -0.9641 -0.5458  0.0013
  182DOPC  C21422354   1.287   0.652   4.125  0.2119  0.2664 -0.0855
  182DOPC  H14R22355   1.226   0.685   4.038  1.3460 -0.4050 -1.1661
  182DOPC  H14S22356   1.372   0.602   4.075 -0.2695 -0.7300  0.0810
  182DOPC  C21522357   1.349   0.777   4.197  0.7265 -0.3494 -0.3556
  182DOPC  H15R22358   1.257   0.835   4.219  1.2804  0.0380  1.0985
  182DOPC  H15S22359   1.420   0.820   4.124  2.8220 -0.6471  1.3969
  182DOPC  C21622360   1.429   0.754   4.325  0.4262 -0.1599 -0.0227
  182DOPC  H16R22361   1.373   0.672   4.374 -0.3985 -0.2250 -1.0315
  182DOPC  H16S22362   1.431   0.844   4.390  1.1049 -0.3686  0.2615
  182DOPC  C21722363   1.580   0.724   4.304  0.8973  0.0183  0.6912
  182DOPC  H17R22364   1.631   0.819   4.277  0.8765 -0.3013 -0.5370
  182DOPC  H17S22365   1.584   0.646   4.225  0.9484 -0.1404  0.8515
  182DOPC  C21822366   1.640   0.681   4.436 -0.8724  0.0183 -0.2238
  182DOPC  H18R22367   1.709   0.762   4.469  0.1900 -0.3162 -1.5099
  182DOPC  H18S22368   1.709   0.597   4.415  0.3572  1.2495 -1.3749
  182DOPC  H18T22369   1.561   0.664   4.512 -0.7168  2.5115  0.5929
  182DOPC   C3322370   2.144  -0.281   3.651  0.0077  0.1050  0.0427
  182DOPC   H3X22371   2.135  -0.181   3.697 -2.4207 -0.2844  0.5585
  182DOPC   H3Y22372   2.249  -0.296   3.621  0.3535  1.0452  0.7362
  182DOPC   C3422373   2.094  -0.371   3.761  0.6411 -0.5784  0.1098
  182DOPC   H4X22374   2.106  -0.478   3.734 -0.9291 -1.1542  1.4433
  182DOPC   H4Y22375   1.983  -0.361   3.756  0.6328 -1.2442 -2.5032
  182DOPC   C3522376   2.148  -0.337   3.897 -0.1574  0.3167 -0.2777
  182DOPC   H5X22377   2.089  -0.407   3.960 -0.1091 -0.2391 -0.8444
  182DOPC   H5Y22378   2.129  -0.232   3.927  1.5140 -0.0951  2.6014
  182DOPC   C3622379   2.292  -0.383   3.914 -0.4809 -0.4094 -0.0314
  182DOPC   H6X22380   2.325  -0.475   3.861  2.0777  0.5102 -0.1790
  182DOPC   H6Y22381   2.356  -0.296   3.889 -0.3404 -0.2365  0.8665
  182DOPC   C3722382   2.316  -0.420   4.055  0.3795  0.2863  0.4756
  182DOPC   H7X22383   2.233  -0.489   4.083 -1.5306  2.1674 -0.2126
  182DOPC   H7Y22384   2.402  -0.489   4.065  1.3678  1.2815 -0.7655
  182DOPC   C3822385   2.316  -0.307   4.158 -0.5978  0.1046 -0.2647
  182DOPC   H8X22386   2.276  -0.350   4.253 -1.6300 -0.7031 -1.0409
  182DOPC   H8Y22387   2.250  -0.224   4.124 -0.6719 -0.4265 -1.4555
  182DOPC   C3922388   2.458  -0.268   4.172  1.1600  0.0305 -0.1487
  182DOPC   H9X22389   2.521  -0.347   4.216  0.0488 -0.6422  0.2871
  182DOPC  C31022390   2.519  -0.153   4.155  0.5773 -0.2994  0.1295
  182DOPC  H10X22391   2.629  -0.147   4.157  0.6557 -1.5970  0.8619
  182DOPC  C31122392   2.446  -0.026   4.106 -0.0206 -0.5315  1.0416
  182DOPC  H11X22393   2.365  -0.050   4.033  1.5643 -1.8300 -0.3997
  182DOPC  H11Y22394   2.526   0.015   4.040 -1.5747 -1.3396 -1.5134
  182DOPC  C31222395   2.403   0.051   4.221  0.1670  0.3739 -1.2584
  182DOPC  H12X22396   2.306   0.010   4.257  0.9052  0.2715  0.7718
  182DOPC  H12Y22397   2.383   0.158   4.198  1.4368  0.1242 -3.8969
  182DOPC  C31322398   2.498   0.063   4.343 -0.3081 -0.1717  0.1519
  182DOPC  H13X22399   2.499  -0.031   4.402 -0.7391 -1.0477 -1.2014
  182DOPC  H13Y22400   2.604   0.071   4.312  0.6118  0.2258  3.0347
  182DOPC  C31422401   2.454   0.170   4.450 -0.4509 -0.5741 -0.1135
  182DOPC  H14X22402   2.520   0.182   4.539 -1.6880  0.9825  0.6526
  182DOPC  H14Y22403   2.454   0.266   4.395 -0.4917 -0.0695  0.7424
  182DOPC  C31522404   2.312   0.123   4.508 -0.3221 -0.0794  0.2170
  182DOPC  H15X22405   2.319   0.023   4.557  0.2572 -0.3793 -0.4607
  182DOPC  H15Y22406   2.233   0.116   4.430  0.7278  0.2453 -0.9063
  182DOPC  C31622407   2.253   0.202   4.623  0.8070 -0.5748 -0.0604
  182DOPC  H16X22408   2.161   0.154   4.662  0.3684  1.5543  1.7190
  182DOPC  H16Y22409   2.335   0.205   4.699  1.6006 -0.8672 -0.8790
  182DOPC  C31722410   2.216   0.345   4.578  0.1971 -0.5107 -0.0481
  182DOPC  H17X22411   2.308   0.390   4.535  1.9486 -3.4718  0.3467
  182DOPC  H17Y22412   2.134   0.344   4.503  1.6918  2.0018 -1.8910
  182DOPC  C31822413   2.171   0.439   4.690  0.1723 -0.4294 -0.0807
  182DOPC  H18X22414   2.262   0.455   4.752  0.7335  1.1161 -1.2614
  182DOPC  H18Y22415   2.142   0.533   4.640  1.3603  1.5011  2.6052
  182DOPC  H18Z22416   2.097   0.385   4.754  1.3986 -1.0187  0.8847
  183DOPC     N22417   0.072   3.263   2.665  0.2372 -0.0553  0.0337
  183DOPC   C1222418  -0.012   3.315   2.779 -0.8752  0.3232 -0.2755
  183DOPC  H12A22419  -0.116   3.302   2.754 -0.9341 -3.1854  1.1540
  183DOPC  H12B22420   0.004   3.421   2.792  3.7103 -0.2460  0.6126
  183DOPC   C1322421   0.212   3.310   2.681 -0.6961 -0.4498  0.4403
  183DOPC  H13A22422   0.222   3.418   2.688 -0.6570 -0.4200 -0.0390
  183DOPC  H13B22423   0.248   3.262   2.770 -0.2579  0.7787  0.9554
  183DOPC  H13C22424   0.267   3.273   2.596 -2.1705 -0.0047 -0.7518
  183DOPC   C1422425   0.020   3.315   2.540 -0.2564 -0.5550  0.1499
  183DOPC  H14A22426  -0.068   3.267   2.501  1.0305 -3.1329  0.2221
  183DOPC  H14B22427   0.015   3.423   2.543 -0.3320 -0.4831 -1.4455
  183DOPC  H14C22428   0.092   3.287   2.464  0.0965  0.7500 -0.0256
  183DOPC   C1522429   0.077   3.112   2.657  0.1100 -0.1067  0.2870
  183DOPC  H15A22430   0.149   3.074   2.587 -0.0681  1.1010 -0.5904
  183DOPC  H15B22431  -0.022   3.075   2.635 -0.0387 -1.0413  2.2624
  183DOPC  H15C22432   0.102   3.072   2.754 -1.5271  0.1893  0.8664
  183DOPC   C1122433   0.004   3.253   2.918 -0.6763  0.4444  0.6021
  183DOPC  H11A22434  -0.067   3.305   2.986 -0.2078 -0.4994  1.8523
  183DOPC  H11B22435  -0.025   3.146   2.913 -0.9130  0.5678 -1.3652
  183DOPC     P22436   0.199   3.405   3.007  0.3579  0.2937  0.2384
  183DOPC   O1322437   0.115   3.510   2.946  0.1711  0.0280  0.0791
  183DOPC   O1422438   0.345   3.390   2.975 -0.0721 -0.2681 -0.7708
  183DOPC   O1222439   0.136   3.261   2.961  0.2106 -0.1750 -0.5960
  183DOPC   O1122440   0.181   3.400   3.166  0.5117 -0.2853  0.0634
  183DOPC    C122441   0.191   3.270   3.229 -0.5234  0.1585 -0.0803
  183DOPC    HA22442   0.265   3.277   3.311  1.3573 -1.8148 -1.5069
  183DOPC    HB22443   0.235   3.191   3.165 -0.4986  0.9225 -1.0234
  183DOPC    C222444   0.061   3.237   3.309 -0.2707 -0.0231  0.9933
  183DOPC    HS22445  -0.030   3.246   3.245 -0.8036 -0.8859  1.6003
  183DOPC   O2122446   0.041   3.316   3.426 -0.4613  0.3389  0.1295
  183DOPC   C2122447  -0.028   3.430   3.403 -1.3886 -0.0403  0.9326
  183DOPC   O2222448  -0.097   3.455   3.307  0.0091 -0.6964  0.4153
  183DOPC   C2222449   0.001   3.532   3.514 -0.3209 -0.8820 -0.3879
  183DOPC   H2R22450   0.021   3.627   3.460  2.0310 -1.4270 -0.5709
  183DOPC   H2S22451   0.092   3.498   3.567 -0.4442  0.6751  0.9040
  183DOPC    C322452   0.063   3.082   3.336  0.6593  0.7030 -0.5776
  183DOPC    HX22453   0.164   3.053   3.372  1.1132  0.2905 -2.1106
  183DOPC    HY22454   0.063   3.030   3.238  1.3292 -1.8385  0.7002
  183DOPC   O3122455  -0.043   3.027   3.425 -0.2506  0.0438  0.1698
  183DOPC   C3122456  -0.155   3.004   3.358  0.3691  0.2994  0.0529
  183DOPC   O3222457  -0.185   3.042   3.247  0.0899  0.6662  0.7094
  183DOPC   C3222458  -0.251   2.920   3.442 -0.0445  0.2825 -0.3675
  183DOPC   H2X22459  -0.263   2.827   3.383 -1.2994 -0.8330  1.5461
  183DOPC   H2Y22460  -0.216   2.889   3.543 -0.3579  0.7161 -0.1233
  183DOPC   C2322461  -0.108   3.547   3.625 -0.5970 -0.2289  0.0281
  183DOPC   H3R22462  -0.060   3.575   3.721  0.3219  0.2883 -0.5712
  183DOPC   H3S22463  -0.162   3.453   3.649  0.7069 -0.1809  3.8833
  183DOPC   C2422464  -0.211   3.654   3.584 -0.4522 -0.0597 -0.0956
  183DOPC   H4R22465  -0.266   3.613   3.497  0.3194 -1.4673  0.0423
  183DOPC   H4S22466  -0.164   3.750   3.556 -0.5278 -0.2161 -0.7627
  183DOPC   C2522467  -0.322   3.673   3.686  0.1016  0.1435  0.5261
  183DOPC   H5R22468  -0.377   3.578   3.703 -3.0111  1.1566 -2.6069
  183DOPC   H5S22469  -0.385   3.752   3.639  1.1691  0.8562  0.2626
  183DOPC   C2622470  -0.283   3.728   3.823 -0.1953 -0.0313  0.0072
  183DOPC   H6R22471  -0.192   3.791   3.828 -2.1040  2.8640  1.1688
  183DOPC   H6S22472  -0.251   3.645   3.889  1.6781  2.8907  3.1012
  183DOPC   C2722473  -0.380   3.833   3.877 -0.4489 -0.3455 -0.2494
  183DOPC   H7R22474  -0.417   3.899   3.796  0.8034  0.9078  0.1734
  183DOPC   H7S22475  -0.317   3.889   3.949 -0.3908  0.7023 -1.1049
  183DOPC   C2822476  -0.503   3.750   3.929  0.2291 -0.1783  0.1297
  183DOPC   H8R22477  -0.467   3.664   3.990 -1.8121 -2.1599 -1.2578
  183DOPC   H8S22478  -0.553   3.698   3.844  0.1125  0.3606 -0.1349
  183DOPC   C2922479  -0.589   3.839   4.012  1.2943 -0.5343 -0.3432
  183DOPC   H9R22480  -0.680   3.865   3.956 -0.0702  0.3289  2.1139
  183DOPC  C21022481  -0.572   3.891   4.137 -0.1000 -0.0157  0.2032
  183DOPC  H10R22482  -0.650   3.957   4.178  0.0953 -0.3287  1.1188
  183DOPC  C21122483  -0.449   3.860   4.224 -0.4884 -0.1247  0.0040
  183DOPC  H11R22484  -0.370   3.936   4.208 -0.2164 -0.4268 -0.0968
  183DOPC  H11S22485  -0.401   3.760   4.212 -1.5699 -1.1602  3.1093
  183DOPC  C21222486  -0.501   3.848   4.372 -0.0802 -0.0578  0.0930
  183DOPC  H12R22487  -0.411   3.809   4.425 -0.5572  0.5804  1.4465
  183DOPC  H12S22488  -0.580   3.770   4.373  0.6888 -0.8568  0.1963
  183DOPC  C21322489  -0.556   3.982   4.427  0.1118 -0.0007  0.4887
  183DOPC  H13R22490  -0.655   3.988   4.378 -0.3580  0.7984  1.5048
  183DOPC  H13S22491  -0.480   4.052   4.386  0.2500 -1.4329 -1.8775
  183DOPC  C21422492  -0.575   3.979   4.577  0.1412  0.4093 -0.3050
  183DOPC  H14R22493  -0.635   4.068   4.602 -2.4612 -1.1481 -0.6161
  183DOPC  H14S22494  -0.477   3.972   4.629  0.5521 -0.0037 -1.1176
  183DOPC  C21522495  -0.656   3.855   4.631 -0.0251 -0.0775 -0.7465
  183DOPC  H15R22496  -0.634   3.848   4.740 -1.5843  1.5782 -0.2761
  183DOPC  H15S22497  -0.610   3.765   4.584  0.0695 -0.6708  0.4458
  183DOPC  C21622498  -0.806   3.860   4.611  0.2557  0.4203 -0.5116
  183DOPC  H16R22499  -0.823   3.862   4.501 -0.5355 -1.8068 -0.4909
  183DOPC  H16S22500  -0.851   3.951   4.655  0.1559  0.8355 -1.4499
  183DOPC  C21722501  -0.887   3.742   4.656  0.1627 -0.4700  0.1921
  183DOPC  H17R22502  -0.869   3.723   4.764  4.0274 -0.0803 -0.2301
  183DOPC  H17S22503  -0.850   3.649   4.608  0.5428  0.8757 -2.2813
  183DOPC  C21822504  -1.038   3.764   4.626 -0.0944  0.0302 -0.3664
  183DOPC  H18R22505  -1.054   3.752   4.516 -2.6237 -1.4561  0.0697
  183DOPC  H18S22506  -1.073   3.861   4.668  0.3744  1.0697 -2.2798
  183DOPC  H18T22507  -1.086   3.692   4.697  0.9795  3.1253  3.8721
  183DOPC   C3322508  -0.376   2.999   3.476  0.9134 -0.3384  0.9260
  183DOPC   H3X22509  -0.435   2.933   3.544  0.4213 -1.1730 -0.2736
  183DOPC   H3Y22510  -0.434   3.015   3.383  0.4537  0.7543  1.3842
  183DOPC   C3422511  -0.341   3.130   3.547 -0.0854  0.0853 -0.5135
  183DOPC   H4X22512  -0.309   3.208   3.475  1.2769  1.1670  1.1932
  183DOPC   H4Y22513  -0.256   3.112   3.615 -1.6273 -1.0662  1.2024
  183DOPC   C3522514  -0.459   3.175   3.630  0.0543  0.5961  0.2961
  183DOPC   H5X22515  -0.511   3.086   3.671  1.1364 -0.7426 -1.0906
  183DOPC   H5Y22516  -0.521   3.235   3.560  0.4285  0.3331 -0.2730
  183DOPC   C3622517  -0.424   3.278   3.737  0.4967 -0.3187 -0.9175
  183DOPC   H6X22518  -0.376   3.366   3.690 -1.4481  0.9689 -0.5867
  183DOPC   H6Y22519  -0.525   3.310   3.772  0.9585  0.1660  0.0379
  183DOPC   C3722520  -0.348   3.238   3.864  0.5762  0.6198 -0.8053
  183DOPC   H7X22521  -0.409   3.177   3.934  1.1430  1.8038  0.7651
  183DOPC   H7Y22522  -0.267   3.173   3.822  1.6333  1.4635 -0.1124
  183DOPC   C3822523  -0.278   3.358   3.929  0.7544 -0.5176  0.2048
  183DOPC   H8X22524  -0.347   3.437   3.964 -0.2233 -1.2635  0.0043
  183DOPC   H8Y22525  -0.212   3.389   3.844 -0.2251 -0.8331 -0.6895
  183DOPC   C3922526  -0.184   3.310   4.037 -0.4032  0.0226  0.4644
  183DOPC   H9X22527  -0.137   3.212   4.021 -2.3688 -1.0497  1.0342
  183DOPC  C31022528  -0.158   3.364   4.154  0.3308  0.1737 -0.0932
  183DOPC  H10X22529  -0.093   3.310   4.224 -0.1768  0.6612  0.7701
  183DOPC  C31122530  -0.218   3.498   4.206 -0.1217 -0.1762  0.3278
  183DOPC  H11X22531  -0.257   3.566   4.127 -0.8827 -0.8730  0.0869
  183DOPC  H11Y22532  -0.137   3.559   4.252 -0.5558  0.2186  0.5763
  183DOPC  C31222533  -0.334   3.477   4.306  0.0447  0.4738  0.4357
  183DOPC  H12X22534  -0.370   3.570   4.356  0.5627  0.8222  0.1642
  183DOPC  H12Y22535  -0.303   3.412   4.390 -0.3849  0.9520  0.9716
  183DOPC  C31322536  -0.458   3.423   4.230  0.2540  0.4143 -0.2975
  183DOPC  H13X22537  -0.462   3.462   4.126  1.1735 -0.5738 -0.7271
  183DOPC  H13Y22538  -0.431   3.316   4.216 -0.3135  0.2160  0.0893
  183DOPC  C31422539  -0.589   3.456   4.298  0.1682 -0.2111  0.2133
  183DOPC  H14X22540  -0.622   3.562   4.294 -4.0319 -1.2483  1.9972
  183DOPC  H14Y22541  -0.659   3.404   4.230 -2.3932 -0.1848  2.6641
  183DOPC  C31522542  -0.598   3.411   4.448 -0.7740 -0.4830 -0.2643
  183DOPC  H15X22543  -0.549   3.487   4.513 -1.1601 -0.1686 -0.3375
  183DOPC  H15Y22544  -0.534   3.323   4.466 -2.1411 -1.5203 -0.3455
  183DOPC  C31622545  -0.741   3.385   4.498  0.1856  0.1933  0.4611
  183DOPC  H16X22546  -0.814   3.469   4.498 -0.7684 -0.5993 -1.1280
  183DOPC  H16Y22547  -0.775   3.296   4.442 -0.5528  1.2941 -0.9000
  183DOPC  C31722548  -0.736   3.327   4.642 -0.1465  0.2739 -0.0455
  183DOPC  H17X22549  -0.700   3.222   4.636  0.4494  0.2091  2.9923
  183DOPC  H17Y22550  -0.660   3.386   4.697 -0.0267  0.1180 -0.0431
  183DOPC  C31822551  -0.865   3.319   4.724 -0.8773  0.3465  0.0718
  183DOPC  H18X22552  -0.908   3.421   4.722  0.7053  1.0566 -1.6756
  183DOPC  H18Y22553  -0.940   3.244   4.688 -0.2383 -0.1577 -0.2347
  183DOPC  H18Z22554  -0.857   3.295   4.832 -4.1165 -2.3902 -0.1216
  184DOPC     N22555   3.884   0.018   2.914  0.2406  0.0359 -0.1843
  184DOPC   C1222556   3.786  -0.024   3.022  0.1814  0.6785 -0.1001
  184DOPC  H12A22557   3.721  -0.105   2.992 -0.9970  1.6826 -0.3372
  184DOPC  H12B22558   3.728   0.065   3.039 -0.4398  0.2294  0.1700
  184DOPC   C1322559   3.989  -0.090   2.881  0.2458 -0.5616  0.0505
  184DOPC  H13A22560   3.945  -0.165   2.817  0.4405 -1.0038  0.4275
  184DOPC  H13B22561   4.069  -0.047   2.824 -0.4997  0.0646 -0.5442
  184DOPC  H13C22562   4.026  -0.133   2.973 -0.0484  0.1202  0.4902
  184DOPC   C1422563   3.958   0.133   2.969 -0.0461  0.9392 -0.6725
  184DOPC  H14A22564   4.012   0.098   3.056 -0.5986 -0.3718 -0.8295
  184DOPC  H14B22565   4.024   0.173   2.893  1.4710  0.2375  0.2102
  184DOPC  H14C22566   3.888   0.212   2.991 -0.2523  0.5886 -0.0344
  184DOPC   C1522567   3.808   0.064   2.795 -0.4963 -0.1138  0.0420
  184DOPC  H15A22568   3.729   0.133   2.819 -1.9772 -2.2727  1.7404
  184DOPC  H15B22569   3.760  -0.016   2.740 -0.7215  0.6814 -0.9465
  184DOPC  H15C22570   3.872   0.108   2.720 -0.9453 -0.0916 -0.3338
  184DOPC   C1122571   3.844  -0.088   3.156 -0.4030 -0.1989  0.1500
  184DOPC  H11A22572   3.894  -0.012   3.219 -2.1599 -0.0344  1.3962
  184DOPC  H11B22573   3.755  -0.120   3.215  0.0148  0.1657  0.9886
  184DOPC     P22574   4.060  -0.239   3.207  0.0123 -0.5069 -0.1670
  184DOPC   O1322575   4.133  -0.110   3.234  0.2598  0.4177 -0.6316
  184DOPC   O1422576   4.127  -0.337   3.121  0.0591 -0.2137 -0.4207
  184DOPC   O1222577   3.924  -0.209   3.138  0.0552 -0.1157 -0.0527
  184DOPC   O1122578   4.016  -0.307   3.346  0.1988 -0.3615  0.4105
  184DOPC    C122579   3.955  -0.225   3.453  0.3254 -0.8747  0.4725
  184DOPC    HA22580   3.846  -0.230   3.436  0.7367 -3.0266 -2.3100
  184DOPC    HB22581   3.985  -0.119   3.439  0.3860 -0.6956  1.8168
  184DOPC    C222582   4.000  -0.269   3.590 -0.1852  1.3477 -0.1662
  184DOPC    HS22583   3.949  -0.202   3.663 -0.2213 -0.0153  1.1031
  184DOPC   O2122584   4.147  -0.273   3.611 -0.3852  0.2829 -0.4176
  184DOPC   C2122585   4.209  -0.153   3.629 -0.1296  0.4365  0.1156
  184DOPC   O2222586   4.148  -0.050   3.643  0.3478 -0.7412 -0.0850
  184DOPC   C2222587   4.361  -0.170   3.652 -0.3918  0.8700  0.2721
  184DOPC   H2R22588   4.421  -0.099   3.592  2.2580  0.5788  2.3626
  184DOPC   H2S22589   4.383  -0.275   3.624  0.7968  0.6233  1.9608
  184DOPC    C322590   3.944  -0.416   3.617 -0.0185 -0.5961 -0.1125
  184DOPC    HX22591   3.987  -0.483   3.539 -0.7304 -1.8018  0.5084
  184DOPC    HY22592   3.836  -0.414   3.594  0.1192  0.9479 -0.6991
  184DOPC   O3122593   3.992  -0.469   3.745 -0.7123  0.2536 -1.2493
  184DOPC   C3122594   3.917  -0.424   3.847 -0.2195  0.1353 -0.6243
  184DOPC   O3222595   3.833  -0.344   3.839 -0.1312 -0.4411 -0.0835
  184DOPC   C3222596   3.956  -0.500   3.972 -0.1612  0.3352  0.4446
  184DOPC   H2X22597   3.948  -0.610   3.957 -1.1706  0.3510  0.7910
  184DOPC   H2Y22598   4.064  -0.474   3.972 -0.3924  1.4305 -0.6387
  184DOPC   C2322599   4.401  -0.168   3.797  0.0633 -0.3721  0.4088
  184DOPC   H3R22600   4.344  -0.244   3.854  0.3503 -0.2642  0.8380
  184DOPC   H3S22601   4.383  -0.072   3.849 -0.0035  0.6805 -1.4454
  184DOPC   C2422602   4.555  -0.200   3.819 -0.1231  0.1349 -0.4645
  184DOPC   H4R22603   4.623  -0.145   3.751  0.3400  0.0517 -0.0783
  184DOPC   H4S22604   4.580  -0.307   3.802  1.5050  0.5896 -1.1450
  184DOPC   C2522605   4.599  -0.173   3.970  0.0037 -0.1423 -0.8789
  184DOPC   H5R22606   4.544  -0.243   4.036  1.3714 -0.5500 -0.1126
  184DOPC   H5S22607   4.583  -0.069   4.008  1.0841 -1.3973  3.6587
  184DOPC   C2622608   4.754  -0.196   3.996 -0.3411 -0.0656  0.1477
  184DOPC   H6R22609   4.816  -0.130   3.931 -1.4786 -0.6337 -1.5889
  184DOPC   H6S22610   4.769  -0.304   3.974 -0.5606 -0.4676  1.8102
  184DOPC   C2722611   4.804  -0.171   4.138  0.3370 -0.3677  0.1003
  184DOPC   H7R22612   4.797  -0.064   4.166  2.2899 -0.4702  1.1900
  184DOPC   H7S22613   4.913  -0.189   4.153  0.0639 -1.0246  1.4802
  184DOPC   C2822614   4.716  -0.237   4.246 -0.3421  0.5476 -0.2257
  184DOPC   H8R22615   4.606  -0.226   4.228 -0.1241  1.7726 -0.9444
  184DOPC   H8S22616   4.731  -0.176   4.338  1.1143  0.3216 -0.3001
  184DOPC   C2922617   4.759  -0.380   4.269 -0.7837 -0.2250  0.3830
  184DOPC   H9R22618   4.741  -0.439   4.178 -0.2307  0.4366 -0.1662
  184DOPC  C21022619   4.823  -0.430   4.380 -0.9167 -0.1249 -0.5004
  184DOPC  H10R22620   4.851  -0.536   4.385 -0.5976 -0.1279 -1.8272
  184DOPC  C21122621   4.863  -0.355   4.506 -0.3435  0.3850 -0.1565
  184DOPC  H11R22622   4.815  -0.254   4.510  0.4348  0.7346  0.8494
  184DOPC  H11S22623   4.971  -0.330   4.516 -0.5631  0.9282  0.9832
  184DOPC  C21222624   4.807  -0.432   4.624 -0.5359 -0.2892  0.4646
  184DOPC  H12R22625   4.879  -0.516   4.640  0.9736  1.2838  2.4894
  184DOPC  H12S22626   4.703  -0.460   4.597  0.0242 -0.3316 -1.7826
  184DOPC  C21322627   4.814  -0.350   4.755  0.4836  0.2880  0.6997
  184DOPC  H13R22628   4.760  -0.396   4.841 -0.8580  3.7785  1.9122
  184DOPC  H13S22629   4.767  -0.250   4.743 -1.2011 -0.2483  2.1974
  184DOPC  C21422630   4.954  -0.316   4.803 -0.6738  0.1667  0.4753
  184DOPC  H14R22631   5.010  -0.283   4.713 -0.4547 -1.1099  0.1149
  184DOPC  H14S22632   5.006  -0.409   4.834  0.1730 -0.2655 -2.0115
  184DOPC  C21522633   4.970  -0.211   4.916  0.7972 -0.1026  0.1144
  184DOPC  H15R22634   4.926  -0.119   4.873 -1.6211 -1.2126  0.0528
  184DOPC  H15S22635   5.079  -0.195   4.922  0.8626  0.3612 -1.7095
  184DOPC  C21622636   4.912  -0.253   5.052  0.5102  0.8069  0.4534
  184DOPC  H16R22637   4.915  -0.364   5.055  0.0079  0.7750 -0.0033
  184DOPC  H16S22638   4.802  -0.241   5.037  0.3476 -1.5061 -0.7192
  184DOPC  C21722639   4.958  -0.185   5.176  0.6555  0.2910  0.0384
  184DOPC  H17R22640   5.052  -0.237   5.203 -0.3884 -1.5063  0.3714
  184DOPC  H17S22641   4.886  -0.205   5.258 -0.0709  2.2692 -0.0620
  184DOPC  C21822642   4.986  -0.041   5.161  0.4978 -0.3399 -0.5042
  184DOPC  H18R22643   4.970   0.001   5.263  0.7838 -0.1972 -0.5173
  184DOPC  H18S22644   4.912  -0.001   5.088  1.6005 -1.9397 -2.5939
  184DOPC  H18T22645   5.084  -0.011   5.119  0.3595  0.0306 -0.5666
  184DOPC   C3322646   3.881  -0.454   4.101 -0.0570  0.4079  0.3817
  184DOPC   H3X22647   3.773  -0.466   4.077 -0.0015 -0.2390  0.4554
  184DOPC   H3Y22648   3.892  -0.348   4.133  2.0145  0.0588  1.0001
  184DOPC   C3422649   3.911  -0.550   4.215 -0.6436  0.1031 -0.1687
  184DOPC   H4X22650   3.901  -0.654   4.178  0.3245  0.2275 -0.8348
  184DOPC   H4Y22651   3.828  -0.536   4.287 -0.2264  2.1527 -0.0019
  184DOPC   C3522652   4.043  -0.537   4.286  0.5858  0.9383 -0.5316
  184DOPC   H5X22653   4.045  -0.431   4.322 -1.2942  1.3803 -1.5594
  184DOPC   H5Y22654   4.127  -0.569   4.222  2.1452  2.6217  0.5754
  184DOPC   C3622655   4.039  -0.624   4.413 -0.3163  0.2705  0.5096
  184DOPC   H6X22656   3.953  -0.588   4.473 -0.4293 -0.2755  0.6791
  184DOPC   H6Y22657   4.012  -0.729   4.388 -1.4460  0.7845 -0.5450
  184DOPC   C3722658   4.163  -0.618   4.501  0.8354 -0.4653  0.1661
  184DOPC   H7X22659   4.239  -0.679   4.447  1.4964 -0.3499  0.9585
  184DOPC   H7Y22660   4.202  -0.515   4.512  0.4127  0.1588 -3.0656
  184DOPC   C3822661   4.147  -0.680   4.641  0.0625 -0.0482 -0.7182
  184DOPC   H8X22662   4.251  -0.707   4.671 -0.6516 -1.3847  0.6629
  184DOPC   H8Y22663   4.086  -0.771   4.626 -1.5806  0.9035 -0.0350
  184DOPC   C3922664   4.095  -0.590   4.751 -1.0153  0.3816  0.0120
  184DOPC   H9X22665   4.155  -0.499   4.764  0.9446 -1.0107  1.4231
  184DOPC  C31022666   3.990  -0.604   4.825  0.1574 -0.2863 -0.5489
  184DOPC  H10X22667   3.970  -0.518   4.892  0.4950  0.1850 -1.0442
  184DOPC  C31122668   3.886  -0.715   4.826 -0.0942  0.0306  0.6338
  184DOPC  H11X22669   3.890  -0.774   4.732  2.5395 -3.2313  2.5894
  184DOPC  H11Y22670   3.787  -0.666   4.840 -0.0892  0.2400 -0.0332
  184DOPC  C31222671   3.917  -0.816   4.950 -0.3700 -0.2850  0.5667
  184DOPC  H12X22672   3.988  -0.891   4.908  0.3923  0.8890 -0.2973
  184DOPC  H12Y22673   3.819  -0.865   4.966 -1.4494  1.9015  0.9487
  184DOPC  C31322674   3.968  -0.751   5.077 -0.6461  0.2297 -0.8808
  184DOPC  H13X22675   4.063  -0.698   5.056  0.5448 -1.1770  0.6655
  184DOPC  H13Y22676   3.883  -0.688   5.112 -1.0178 -0.9958  0.5536
  184DOPC  C31422677   3.998  -0.860   5.185  0.0438  0.2465 -0.4817
  184DOPC  H14X22678   3.910  -0.925   5.204  1.4297 -1.7055 -0.3975
  184DOPC  H14Y22679   4.065  -0.933   5.135 -1.0047 -0.1335 -1.3811
  184DOPC  C31522680   4.023  -0.804   5.325 -0.0397 -0.1504 -0.3640
  184DOPC  H15X22681   3.938  -0.738   5.353 -0.5654 -0.6805 -0.6897
  184DOPC  H15Y22682   4.112  -0.739   5.334 -0.1025  0.0283 -0.9907
  184DOPC  C31622683   4.029  -0.914   5.436  0.1129  1.1407  0.3692
  184DOPC  H16X22684   3.933  -0.970   5.429  0.7852  0.1283 -1.4812
  184DOPC  H16Y22685   4.111  -0.985   5.410 -0.6323 -0.1564  1.4104
  184DOPC  C31722686   4.034  -0.871   5.583  0.4448  0.3078  0.0943
  184DOPC  H17X22687   4.028  -0.966   5.640 -1.3686  0.1405 -0.3098
  184DOPC  H17Y22688   4.135  -0.825   5.590  1.2514 -1.2608 -0.8457
  184DOPC  C31822689   3.918  -0.781   5.629  0.1735 -0.9844 -0.5259
  184DOPC  H18X22690   3.825  -0.825   5.586  0.7096 -0.9856 -1.7427
  184DOPC  H18Y22691   3.916  -0.759   5.737  0.2176 -0.4435 -0.6354
  184DOPC  H18Z22692   3.935  -0.681   5.584 -0.9121 -0.1878  0.7855
  185DOPC     N22693   7.180   3.501   3.015  0.5149  0.4564 -0.8390
  185DOPC   C1222694   7.230   3.601   2.913  0.2933 -0.1214  0.7577
  185DOPC  H12A22695   7.221   3.549   2.819  1.1979 -0.3507  0.7857
  185DOPC  H12B22696   7.334   3.620   2.937 -0.3320  2.7605  1.6074
  185DOPC   C1322697   7.261   3.376   2.998  0.1416  0.6331  0.8439
  185DOPC  H13A22698   7.229   3.309   3.076 -0.4876 -1.5139 -1.1256
  185DOPC  H13B22699   7.241   3.338   2.898  0.1278 -0.1717  1.1483
  185DOPC  H13C22700   7.366   3.400   3.003  0.3047 -0.1297  1.2481
  185DOPC   C1422701   7.035   3.469   2.989 -0.8234  0.0767 -0.5836
  185DOPC  H14A22702   6.983   3.563   2.983  2.6301  2.1443 -0.7945
  185DOPC  H14B22703   7.021   3.416   2.896 -2.1284 -1.6377  0.5416
  185DOPC  H14C22704   7.002   3.409   3.073  0.4924  0.2789  0.1092
  185DOPC   C1522705   7.198   3.554   3.152 -0.3320 -0.5967 -0.2564
  185DOPC  H15A22706   7.297   3.528   3.186 -0.2691  1.1684  1.0510
  185DOPC  H15B22707   7.127   3.504   3.218 -0.3353 -1.4216 -0.8630
  185DOPC  H15C22708   7.177   3.658   3.171  1.0897 -0.6539  1.9875
  185DOPC   C1122709   7.158   3.736   2.913 -0.6165  0.3114 -0.4191
  185DOPC  H11A22710   7.176   3.801   2.825  1.0446  2.7508  1.5827
  185DOPC  H11B22711   7.050   3.712   2.907 -0.0773 -2.6040 -0.2561
  185DOPC     P22712   7.091   3.910   3.076  0.3627 -0.0233  0.0437
  185DOPC   O1322713   6.978   3.842   3.137 -0.9025 -0.1117  0.0069
  185DOPC   O1422714   7.056   3.997   2.960 -0.3042  0.7210 -0.2891
  185DOPC   O1222715   7.193   3.810   3.030 -0.4080  0.1713 -0.0069
  185DOPC   O1122716   7.166   3.987   3.185  0.1174 -0.1184 -0.4008
  185DOPC    C122717   7.240   4.104   3.148  0.6910 -0.2366  0.2124
  185DOPC    HA22718   7.177   4.194   3.161  1.8894  0.9214 -1.5729
  185DOPC    HB22719   7.281   4.093   3.045 -0.5264 -1.7809 -0.1541
  185DOPC    C222720   7.359   4.120   3.243  0.4928  0.2609 -0.0222
  185DOPC    HS22721   7.420   4.027   3.253 -1.7467 -1.3341 -0.3375
  185DOPC   O2122722   7.313   4.161   3.375 -0.0151 -0.6219 -0.0496
  185DOPC   C2122723   7.384   4.146   3.480  0.1566 -0.3292 -0.4751
  185DOPC   O2222724   7.490   4.100   3.484  0.1808  1.3574  0.1920
  185DOPC   C2222725   7.306   4.205   3.602 -0.3311  0.5920 -0.0993
  185DOPC   H2R22726   7.224   4.136   3.631 -0.2160 -0.1113 -1.3343
  185DOPC   H2S22727   7.260   4.299   3.564 -0.9100  0.6294  0.6841
  185DOPC    C322728   7.445   4.225   3.176  0.7624  0.4792  0.3040
  185DOPC    HX22729   7.388   4.319   3.156 -2.1787 -0.8283  1.8757
  185DOPC    HY22730   7.472   4.175   3.081  1.8973  0.1425  0.7866
  185DOPC   O3122731   7.570   4.256   3.241 -0.1550  0.6158  0.3413
  185DOPC   C3122732   7.559   4.360   3.327  0.2201  0.1459 -0.8499
  185DOPC   O3222733   7.461   4.428   3.342 -0.2715 -0.5840 -0.2579
  185DOPC   C3222734   7.692   4.381   3.402  0.2237 -0.2383 -0.7675
  185DOPC   H2X22735   7.702   4.288   3.460 -1.0288  0.4092  0.5471
  185DOPC   H2Y22736   7.776   4.385   3.330 -0.1179 -1.0491 -1.2264
  185DOPC   C2322737   7.388   4.233   3.725  0.1423 -0.2890 -0.4418
  185DOPC   H3R22738   7.459   4.313   3.694  0.7762 -0.8583 -0.4903
  185DOPC   H3S22739   7.445   4.146   3.766 -0.3299  0.7419  2.6719
  185DOPC   C2422740   7.310   4.287   3.844 -0.5093  0.3755 -1.0335
  185DOPC   H4R22741   7.236   4.362   3.808 -2.6099 -1.4087 -0.7170
  185DOPC   H4S22742   7.381   4.330   3.917  1.9224 -1.5911 -2.0882
  185DOPC   C2522743   7.226   4.180   3.925 -0.9178 -0.2020  0.3839
  185DOPC   H5R22744   7.293   4.092   3.933  0.8033  1.1623  1.8320
  185DOPC   H5S22745   7.130   4.154   3.875 -1.4840 -0.6535  1.6846
  185DOPC   C2622746   7.204   4.219   4.073 -0.2413  0.1818 -0.2448
  185DOPC   H6R22747   7.298   4.192   4.126  0.1391  1.1805 -0.3970
  185DOPC   H6S22748   7.122   4.162   4.123 -1.3313  2.2578  0.4357
  185DOPC   C2722749   7.176   4.366   4.104 -0.1237 -0.2278  0.6358
  185DOPC   H7R22750   7.078   4.394   4.061  1.8566  4.5749 -1.4510
  185DOPC   H7S22751   7.236   4.431   4.037  0.8793 -0.7820  0.9758
  185DOPC   C2822752   7.184   4.408   4.255 -0.1983  0.1017 -0.2123
  185DOPC   H8R22753   7.111   4.349   4.315 -1.5095  0.6207 -1.2266
  185DOPC   H8S22754   7.156   4.515   4.254  1.3101  0.6025  2.3637
  185DOPC   C2922755   7.316   4.381   4.320 -0.6944 -0.0630 -0.3757
  185DOPC   H9R22756   7.354   4.286   4.279  0.9106  0.6394 -0.5786
  185DOPC  C21022757   7.405   4.462   4.381 -0.4838  0.2503 -0.5521
  185DOPC  H10R22758   7.485   4.418   4.442 -0.2329  1.1350 -0.2272
  185DOPC  C21122759   7.384   4.603   4.417 -0.3614 -0.2086 -0.1471
  185DOPC  H11R22760   7.315   4.647   4.342 -1.2301  3.1664  2.3692
  185DOPC  H11S22761   7.475   4.667   4.421 -1.0782  0.9129 -1.1617
  185DOPC  C21222762   7.316   4.622   4.557 -0.0560 -0.0130 -0.2046
  185DOPC  H12R22763   7.224   4.562   4.574  0.8235 -0.8456  1.9442
  185DOPC  H12S22764   7.298   4.731   4.543  0.3476 -0.0158 -0.7555
  185DOPC  C21322765   7.412   4.598   4.674  0.4378  0.3369 -0.2051
  185DOPC  H13R22766   7.511   4.649   4.672  0.7999 -0.3211 -2.3672
  185DOPC  H13S22767   7.446   4.494   4.658  0.9339  0.2930  1.0528
  185DOPC  C21422768   7.341   4.600   4.804 -0.0533  0.7457  0.0089
  185DOPC  H14R22769   7.243   4.550   4.790  1.2235 -1.6736 -0.8670
  185DOPC  H14S22770   7.318   4.707   4.825 -0.3174  0.9587 -1.2919
  185DOPC  C21522771   7.424   4.541   4.919  0.0895 -0.3594  1.0033
  185DOPC  H15R22772   7.513   4.606   4.918  1.0288 -1.6051  0.4263
  185DOPC  H15S22773   7.468   4.440   4.900  1.7350  0.7312 -1.4143
  185DOPC  C21622774   7.348   4.528   5.055  0.0612 -0.4218 -0.2795
  185DOPC  H16R22775   7.401   4.465   5.130  1.0500  0.2738 -0.3647
  185DOPC  H16S22776   7.247   4.488   5.034  0.3964 -1.0424 -0.7478
  185DOPC  C21722777   7.333   4.667   5.115 -0.1697  0.1234  0.3236
  185DOPC  H17R22778   7.291   4.740   5.043  2.0215 -1.7357 -3.0583
  185DOPC  H17S22779   7.434   4.709   5.133 -0.6811  1.5779 -0.0138
  185DOPC  C21822780   7.255   4.672   5.252 -0.5822  0.1070  0.2198
  185DOPC  H18R22781   7.144   4.664   5.241 -0.7425 -0.2295  1.8904
  185DOPC  H18S22782   7.271   4.765   5.310 -3.6052  0.5343  0.5661
  185DOPC  H18T22783   7.296   4.593   5.317 -0.0388  1.2789  1.3422
  185DOPC   C3322784   7.707   4.493   3.504  0.0756 -0.2905 -1.2839
  185DOPC   H3X22785   7.624   4.479   3.576 -0.8931  2.0845 -1.8196
  185DOPC   H3Y22786   7.709   4.592   3.453  3.5288  1.0651  1.1253
  185DOPC   C3422787   7.841   4.479   3.581  0.0575 -0.6073 -0.3157
  185DOPC   H4X22788   7.925   4.493   3.509 -1.4529  1.0443 -1.8865
  185DOPC   H4Y22789   7.841   4.377   3.624  2.6884 -0.0412  1.2147
  185DOPC   C3522790   7.854   4.584   3.690 -0.1361 -0.4808  0.5646
  185DOPC   H5X22791   7.869   4.551   3.795  1.6487  2.5351  1.4004
  185DOPC   H5Y22792   7.759   4.639   3.708 -0.4783 -1.0070  0.3828
  185DOPC   C3622793   7.961   4.697   3.670  0.1513  0.4895  0.0705
  185DOPC   H6X22794   8.046   4.646   3.620 -1.8866 -2.8318 -0.3215
  185DOPC   H6Y22795   7.925   4.767   3.591 -0.8499  0.9577  0.9155
  185DOPC   C3722796   7.997   4.780   3.789  0.0814 -0.1874 -0.0203
  185DOPC   H7X22797   8.043   4.869   3.742 -0.6308  1.0420  1.4672
  185DOPC   H7Y22798   7.907   4.820   3.842  0.2382 -0.9341  0.8411
  185DOPC   C3822799   8.097   4.711   3.878 -0.4459  0.0153  0.7946
  185DOPC   H8X22800   8.200   4.711   3.837 -0.1340  0.0903  1.5678
  185DOPC   H8Y22801   8.069   4.603   3.883  1.9809 -0.7268 -0.1519
  185DOPC   C3922802   8.101   4.781   4.010 -0.4559  0.0717  0.0332
  185DOPC   H9X22803   8.123   4.888   3.999 -1.2134  0.2271 -0.0272
  185DOPC  C31022804   8.065   4.729   4.133  0.2144 -0.0895  0.3585
  185DOPC  H10X22805   8.054   4.806   4.210  3.2919  1.8960 -0.9672
  185DOPC  C31122806   8.003   4.600   4.157 -0.0074  0.3032 -0.3729
  185DOPC  H11X22807   8.076   4.551   4.225 -0.6428  0.1634  0.2197
  185DOPC  H11Y22808   7.971   4.538   4.071  1.9664 -1.5036  0.0927
  185DOPC  C31222809   7.871   4.614   4.235  0.5088 -0.1745  0.6529
  185DOPC  H12X22810   7.890   4.647   4.340  1.9763 -2.1406  1.0654
  185DOPC  H12Y22811   7.831   4.511   4.248  0.9722 -0.3028  1.1174
  185DOPC  C31322812   7.766   4.703   4.170  0.2461  0.0423 -0.0289
  185DOPC  H13X22813   7.719   4.757   4.254 -2.2572 -0.3354 -1.0851
  185DOPC  H13Y22814   7.811   4.778   4.101  0.2933  0.6725  0.6722
  185DOPC  C31422815   7.663   4.627   4.088  0.3690  0.5144  0.3232
  185DOPC  H14X22816   7.719   4.561   4.018  0.3404 -0.5061  1.2515
  185DOPC  H14Y22817   7.595   4.565   4.150 -0.6054  0.0088 -1.1825
  185DOPC  C31522818   7.573   4.711   4.001  0.2442 -0.0291 -0.1083
  185DOPC  H15X22819   7.635   4.769   3.928 -1.8658 -0.2277 -2.1875
  185DOPC  H15Y22820   7.518   4.782   4.065  1.5671  1.2991 -0.3690
  185DOPC  C31622821   7.487   4.621   3.909 -0.0671  0.9544 -0.5581
  185DOPC  H16X22822   7.560   4.554   3.859 -2.9417 -0.5779 -3.0346
  185DOPC  H16Y22823   7.410   4.586   3.981  1.3039 -0.3835  0.3195
  185DOPC  C31722824   7.431   4.697   3.790 -0.1449 -0.1289 -0.3830
  185DOPC  H17X22825   7.492   4.788   3.771  0.3817 -0.7822 -1.8936
  185DOPC  H17Y22826   7.452   4.631   3.703 -1.7736  0.3899 -1.2124
  185DOPC  C31822827   7.279   4.721   3.798 -0.2320 -0.1978 -0.0016
  185DOPC  H18X22828   7.234   4.631   3.845 -0.4718 -0.3392 -0.4980
  185DOPC  H18Y22829   7.261   4.800   3.875  1.1319 -1.8903  2.1601
  185DOPC  H18Z22830   7.251   4.751   3.694 -0.1258  1.2950  0.3715
  186DOPC     N22831   7.509   1.518   2.652  0.5754 -0.0252  0.0627
  186DOPC   C1222832   7.479   1.471   2.793  0.3044 -0.3008  0.1133
  186DOPC  H12A22833   7.499   1.365   2.798 -1.7328 -0.7228  0.3353
  186DOPC  H12B22834   7.371   1.477   2.799  0.2839 -1.1547  0.6347
  186DOPC   C1322835   7.651   1.502   2.629 -0.6833  0.7949  0.1442
  186DOPC  H13A22836   7.659   1.496   2.521 -0.1834  0.3132  0.2036
  186DOPC  H13B22837   7.709   1.586   2.665 -0.0774  0.0703  0.8904
  186DOPC  H13C22838   7.689   1.410   2.671 -1.3280  0.5668  0.2329
  186DOPC   C1422839   7.464   1.661   2.625  0.2955 -0.4141 -0.2941
  186DOPC  H14A22840   7.357   1.663   2.638  0.0258 -1.5062 -2.0795
  186DOPC  H14B22841   7.509   1.726   2.700  1.7809 -0.4014 -1.1486
  186DOPC  H14C22842   7.503   1.690   2.529  2.2565 -0.9074  0.2956
  186DOPC   C1522843   7.428   1.430   2.565 -0.4641 -0.1556  0.5777
  186DOPC  H15A22844   7.432   1.331   2.608 -1.1068 -0.3390  0.2263
  186DOPC  H15B22845   7.485   1.421   2.474  0.2781  2.3056  0.7378
  186DOPC  H15C22846   7.327   1.466   2.554 -0.2800  0.7723  1.7314
  186DOPC   C1122847   7.553   1.545   2.912  0.6953 -0.0820 -0.2137
  186DOPC  H11A22848   7.539   1.486   3.005  0.3012 -1.8331 -1.3347
  186DOPC  H11B22849   7.660   1.543   2.885  0.3071  0.5843 -1.9785
  186DOPC     P22850   7.381   1.708   2.998 -0.0429 -0.0469 -0.2805
  186DOPC   O1322851   7.280   1.623   2.933  0.4467  0.1426 -0.3195
  186DOPC   O1422852   7.348   1.853   2.988 -0.3890  0.5075 -0.3921
  186DOPC   O1222853   7.514   1.685   2.926  0.3677  0.2930  0.5730
  186DOPC   O1122854   7.402   1.671   3.150 -0.0954 -0.2600 -0.2519
  186DOPC    C122855   7.524   1.664   3.231 -0.1555  0.0205  0.2811
  186DOPC    HA22856   7.571   1.764   3.218 -0.5603  0.3725  1.3773
  186DOPC    HB22857   7.596   1.592   3.188  0.4372  0.6660  0.1836
  186DOPC    C222858   7.489   1.619   3.372 -0.3473  0.3782  0.5379
  186DOPC    HS22859   7.423   1.531   3.354 -0.8805  0.8160  0.3318
  186DOPC   O2122860   7.407   1.713   3.446 -0.0407  0.0926 -0.3049
  186DOPC   C2122861   7.463   1.817   3.497 -0.6356  0.0958 -0.2639
  186DOPC   O2222862   7.584   1.835   3.506  0.2005 -0.0876  0.0265
  186DOPC   C2222863   7.348   1.921   3.558  0.6882 -0.2722 -0.0161
  186DOPC   H2R22864   7.252   1.865   3.548  0.0296  1.0408 -1.6707
  186DOPC   H2S22865   7.343   2.008   3.489  0.6464  1.2399  1.8092
  186DOPC    C322866   7.612   1.566   3.449 -0.0413 -0.3668  0.3615
  186DOPC    HX22867   7.701   1.632   3.440 -0.0160 -0.6190 -2.0625
  186DOPC    HY22868   7.649   1.476   3.396  1.8716  0.6088 -0.0726
  186DOPC   O3122869   7.587   1.541   3.586 -0.9142  0.3815 -0.1690
  186DOPC   C3122870   7.545   1.419   3.613 -0.3037 -0.2576  0.1122
  186DOPC   O3222871   7.509   1.332   3.534 -0.0923  0.6056  0.8875
  186DOPC   C3222872   7.532   1.400   3.763  0.3275  0.0966 -0.0708
  186DOPC   H2X22873   7.633   1.416   3.805  0.5440  0.8210 -0.8482
  186DOPC   H2Y22874   7.470   1.483   3.803  2.8324  1.2440  1.6618
  186DOPC   C2322875   7.386   1.984   3.693  0.6684 -0.2352 -0.5697
  186DOPC   H3R22876   7.476   2.049   3.690 -0.0240  0.7123 -2.2492
  186DOPC   H3S22877   7.393   1.900   3.766  0.6099 -0.5392 -0.9109
  186DOPC   C2422878   7.277   2.074   3.749 -0.1907 -0.2831 -0.4911
  186DOPC   H4R22879   7.182   2.017   3.763  0.0427 -0.1049  2.3278
  186DOPC   H4S22880   7.261   2.149   3.668  0.4018  1.9208  1.3313
  186DOPC   C2522881   7.318   2.145   3.876 -0.2910 -0.4275 -0.3710
  186DOPC   H5R22882   7.423   2.179   3.860  0.1798 -1.1581  0.9747
  186DOPC   H5S22883   7.324   2.071   3.960 -1.8412 -0.4734 -0.2718
  186DOPC   C2622884   7.221   2.254   3.923 -0.1491 -0.2390 -0.2798
  186DOPC   H6R22885   7.119   2.213   3.934 -0.3965 -0.1200 -1.8948
  186DOPC   H6S22886   7.205   2.336   3.849  0.1942  1.3455  1.3239
  186DOPC   C2722887   7.273   2.311   4.057  0.8093 -0.4986 -0.2947
  186DOPC   H7R22888   7.358   2.377   4.032  0.5655  0.1619  0.5590
  186DOPC   H7S22889   7.310   2.223   4.114  0.4596  0.1242  0.9257
  186DOPC   C2822890   7.164   2.391   4.126 -0.2936 -0.0271 -0.0576
  186DOPC   H8R22891   7.075   2.325   4.131  1.3735 -2.5832 -1.2742
  186DOPC   H8S22892   7.132   2.477   4.063 -0.3479  1.6441  2.1567
  186DOPC   C2922893   7.213   2.454   4.249 -0.1613  0.5485  0.7520
  186DOPC   H9R22894   7.321   2.476   4.246  0.1268  0.0144  3.7757
  186DOPC  C21022895   7.146   2.464   4.362  0.0328 -0.2940  0.1686
  186DOPC  H10R22896   7.200   2.500   4.451 -0.7452 -0.0569  0.5528
  186DOPC  C21122897   7.005   2.427   4.392  0.7818  0.3092  0.3101
  186DOPC  H11R22898   6.949   2.422   4.297  3.2886 -2.3255 -1.1870
  186DOPC  H11S22899   6.959   2.513   4.446  1.4960  0.1385  1.2303
  186DOPC  C21222900   6.971   2.294   4.467  0.1982 -0.7145  0.2741
  186DOPC  H12R22901   7.000   2.197   4.420 -2.2248 -1.1077 -0.5379
  186DOPC  H12S22902   6.862   2.272   4.469  0.1939 -0.7287 -0.1307
  186DOPC  C21322903   7.013   2.300   4.617 -0.3743 -0.3259 -0.5199
  186DOPC  H13R22904   6.954   2.381   4.666 -0.9948 -1.4185  0.6139
  186DOPC  H13S22905   7.121   2.326   4.612 -0.7826  1.2609 -1.8376
  186DOPC  C21422906   6.985   2.172   4.701  0.5374 -0.3757 -0.2360
  186DOPC  H14R22907   6.879   2.140   4.686  0.5809 -1.4092  1.4012
  186DOPC  H14S22908   7.006   2.195   4.808  0.4148 -1.0545 -0.0584
  186DOPC  C21522909   7.081   2.052   4.679  0.6764 -0.2278 -0.4040
  186DOPC  H15R22910   7.172   2.079   4.736 -0.7882  0.4541  1.7365
  186DOPC  H15S22911   7.093   2.024   4.572  0.2140  0.7590 -0.7228
  186DOPC  C21622912   7.019   1.928   4.745  0.0739 -0.1139 -0.2719
  186DOPC  H16R22913   6.912   1.924   4.717 -0.2247  3.9924 -0.1762
  186DOPC  H16S22914   7.031   1.940   4.854  3.7197 -0.2161 -0.5261
  186DOPC  C21722915   7.104   1.805   4.705 -0.1057  0.3423  0.7363
  186DOPC  H17R22916   7.083   1.785   4.597 -0.7681  0.2764  0.8754
  186DOPC  H17S22917   7.071   1.717   4.764  2.3454 -0.4733  1.0012
  186DOPC  C21822918   7.252   1.818   4.736 -0.2478  0.0558  0.4063
  186DOPC  H18R22919   7.299   1.880   4.657 -1.1045 -0.3940 -0.4723
  186DOPC  H18S22920   7.306   1.721   4.743 -1.0259 -0.8471 -3.6084
  186DOPC  H18T22921   7.266   1.868   4.834 -1.1990  1.4193 -0.1208
  186DOPC   C3322922   7.488   1.254   3.798 -0.4887 -0.3554 -0.1493
  186DOPC   H3X22923   7.570   1.181   3.779 -0.8915 -0.1515 -3.1312
  186DOPC   H3Y22924   7.407   1.213   3.735 -1.3883  2.4782 -0.9743
  186DOPC   C3422925   7.447   1.242   3.948  0.5761  0.0831 -0.5033
  186DOPC   H4X22926   7.496   1.323   4.007 -0.7524  0.8341 -0.3908
  186DOPC   H4Y22927   7.470   1.144   3.995 -0.0147  0.2685  0.1915
  186DOPC   C3522928   7.295   1.273   3.964  0.2029 -0.4863 -0.0789
  186DOPC   H5X22929   7.225   1.201   3.918 -1.0010 -0.5375  1.7308
  186DOPC   H5Y22930   7.260   1.371   3.924 -1.2695 -1.3619 -1.0692
  186DOPC   C3622931   7.247   1.282   4.110 -0.2638  0.5038  0.4259
  186DOPC   H6X22932   7.241   1.177   4.146  1.4119 -0.1186 -0.9662
  186DOPC   H6Y22933   7.321   1.340   4.169  0.3689 -2.0631  2.3584
  186DOPC   C3722934   7.108   1.351   4.118  0.0898 -0.1535  0.3290
  186DOPC   H7X22935   7.109   1.452   4.072 -0.2653 -0.4410 -0.3241
  186DOPC   H7Y22936   7.047   1.292   4.046  0.0887 -1.2325  1.1946
  186DOPC   C3822937   7.047   1.366   4.262  0.3823 -0.4714  0.7144
  186DOPC   H8X22938   7.032   1.265   4.306 -0.8741 -1.3227 -1.4703
  186DOPC   H8Y22939   6.951   1.418   4.241  0.7627 -0.4629 -1.2275
  186DOPC   C3922940   7.132   1.443   4.364 -0.0740 -0.0479  0.2018
  186DOPC   H9X22941   7.186   1.526   4.315  0.8680 -0.2953  0.8058
  186DOPC  C31022942   7.145   1.428   4.499  0.5926  0.7127 -0.2105
  186DOPC  H10X22943   7.210   1.483   4.568  2.6913 -2.4855  0.5846
  186DOPC  C31122944   7.057   1.318   4.575 -0.1806 -0.8965 -0.1911
  186DOPC  H11X22945   6.990   1.246   4.523 -2.0896 -0.4231  1.4650
  186DOPC  H11Y22946   6.979   1.374   4.631  0.4069  0.1848 -0.4115
  186DOPC  C31222947   7.135   1.245   4.676  0.5455 -0.0508 -0.3062
  186DOPC  H12X22948   7.208   1.303   4.735 -1.6834  1.6025  0.9720
  186DOPC  H12Y22949   7.192   1.168   4.619 -0.8460 -0.8172 -0.7323
  186DOPC  C31322950   7.041   1.153   4.757  0.2539 -0.8088 -0.0209
  186DOPC  H13X22951   6.966   1.102   4.693  1.2165  0.1153 -1.9432
  186DOPC  H13Y22952   7.102   1.069   4.797 -0.3903 -0.9959  0.6037
  186DOPC  C31422953   6.969   1.228   4.866  0.1144 -0.0959 -0.3217
  186DOPC  H14X22954   7.039   1.285   4.930  1.8326 -1.7889 -0.6051
  186DOPC  H14Y22955   6.881   1.282   4.824 -0.3165 -1.0940 -0.7497
  186DOPC  C31522956   6.904   1.121   4.966 -0.5307 -0.2458 -0.3438
  186DOPC  H15X22957   6.989   1.056   4.995 -0.5872 -0.6080 -0.9858
  186DOPC  H15Y22958   6.823   1.067   4.913 -0.4660 -1.1243  0.4226
  186DOPC  C31622959   6.850   1.192   5.088  0.3021  0.0453 -0.2415
  186DOPC  H16X22960   6.930   1.243   5.147 -0.1703 -0.8550  1.2294
  186DOPC  H16Y22961   6.784   1.273   5.051  1.8638  1.4556 -0.1131
  186DOPC  C31722962   6.774   1.107   5.189 -0.3793  0.4471  0.0497
  186DOPC  H17X22963   6.714   1.176   5.252 -1.5647  0.4478 -1.0390
  186DOPC  H17Y22964   6.704   1.038   5.138 -0.9725  0.5152  0.7543
  186DOPC  C31822965   6.867   1.016   5.283  0.4357  0.2989 -0.5517
  186DOPC  H18X22966   6.924   1.075   5.358  0.6263 -0.4045 -0.1370
  186DOPC  H18Y22967   6.811   0.936   5.336  1.6216  0.2865  0.7206
  186DOPC  H18Z22968   6.948   0.977   5.218  0.0036 -0.8377 -0.4221
  187DOPC     N22969   5.636   0.340   2.688 -0.3997  0.0905  0.4820
  187DOPC   C1222970   5.600   0.363   2.828  0.3796 -0.8453 -0.2368
  187DOPC  H12A22971   5.492   0.368   2.831  0.4372  0.4914 -0.0926
  187DOPC  H12B22972   5.629   0.459   2.868 -0.6221 -0.3215 -0.7328
  187DOPC   C1322973   5.586   0.456   2.611  1.6774  0.5186  0.7705
  187DOPC  H13A22974   5.478   0.446   2.614  1.5483  0.5360 -1.8841
  187DOPC  H13B22975   5.616   0.549   2.657  1.3516  1.4132 -0.7722
  187DOPC  H13C22976   5.615   0.448   2.507 -1.5925 -2.2542 -0.1123
  187DOPC   C1422977   5.569   0.218   2.630  0.6107  0.4619 -0.0402
  187DOPC  H14A22978   5.617   0.134   2.677 -0.6036 -0.4585 -0.4093
  187DOPC  H14B22979   5.462   0.215   2.642  0.4814  0.8752 -0.9823
  187DOPC  H14C22980   5.588   0.209   2.524 -0.3957 -1.8280 -0.0675
  187DOPC   C1522981   5.781   0.341   2.663 -0.0316 -0.1094 -0.3279
  187DOPC  H15A22982   5.831   0.250   2.693 -1.0758 -0.2623  1.0303
  187DOPC  H15B22983   5.823   0.426   2.714 -0.5056 -0.8328  1.3152
  187DOPC  H15C22984   5.804   0.364   2.560 -1.4308  2.2048 -0.1920
  187DOPC   C1122985   5.642   0.250   2.932  0.5077  0.0345  0.0956
  187DOPC  H11A22986   5.579   0.266   3.022 -1.0833 -1.0206 -0.7849
  187DOPC  H11B22987   5.630   0.152   2.882 -1.3874  1.1338 -1.8027
  187DOPC     P22988   5.833   0.392   3.035 -0.1033 -0.4707 -0.2562
  187DOPC   O1322989   5.723   0.479   3.080  0.1238 -0.3289 -0.6072
  187DOPC   O1422990   5.939   0.459   2.954  0.6942 -0.1152 -0.2744
  187DOPC   O1222991   5.777   0.258   2.970  0.8669 -0.3699  0.3618
  187DOPC   O1122992   5.899   0.339   3.167  0.3656  0.6547 -0.0844
  187DOPC    C122993   5.855   0.227   3.241 -0.0627 -0.3215 -0.1215
  187DOPC    HA22994   5.937   0.190   3.306  0.1188  3.3719  2.0079
  187DOPC    HB22995   5.832   0.140   3.177  1.2219 -2.6920  2.4350
  187DOPC    C222996   5.733   0.266   3.334 -0.4579  0.1481 -0.4508
  187DOPC    HS22997   5.649   0.310   3.277 -2.4804 -0.3101  1.9850
  187DOPC   O2122998   5.785   0.365   3.431 -0.1234  0.5561 -0.1787
  187DOPC   C2122999   5.686   0.431   3.493  0.5253  0.1196  0.2958
  187DOPC   O2223000   5.567   0.406   3.472  0.5109 -0.4319 -0.4308
  187DOPC   C2223001   5.736   0.537   3.587  0.1927  0.5265 -0.1705
  187DOPC   H2R23002   5.784   0.614   3.523  2.0660 -1.1094 -0.8511
  187DOPC   H2S23003   5.813   0.494   3.655 -1.2013 -2.0882 -0.1340
  187DOPC    C323004   5.677   0.144   3.402 -0.2647 -0.4436 -0.2883
  187DOPC    HX23005   5.640   0.077   3.321 -0.9897 -0.2620 -0.1134
  187DOPC    HY23006   5.595   0.168   3.473  0.6328  1.9187  0.0351
  187DOPC   O3123007   5.776   0.079   3.478  0.0826 -0.7838 -0.1100
  187DOPC   C3123008   5.809  -0.047   3.450  0.1721 -0.2450 -0.4898
  187DOPC   O3223009   5.765  -0.116   3.364 -0.2611  0.4875 -0.1247
  187DOPC   C3223010   5.923  -0.089   3.541 -0.1550  0.0908  0.6394
  187DOPC   H2X23011   6.001  -0.126   3.472  0.6816  2.9972 -0.1242
  187DOPC   H2Y23012   5.955   0.002   3.596 -2.5782  2.0733 -0.9818
  187DOPC   C2323013   5.623   0.616   3.668 -1.3760  0.2015  1.0462
  187DOPC   H3R23014   5.554   0.663   3.595 -2.9110 -1.4107  1.4164
  187DOPC   H3S23015   5.672   0.706   3.712  0.9781 -0.0052 -0.8987
  187DOPC   C2423016   5.568   0.538   3.782  0.0989 -0.4016  0.0051
  187DOPC   H4R23017   5.652   0.496   3.842  0.6964  0.6527 -0.0552
  187DOPC   H4S23018   5.511   0.448   3.753 -1.4313 -0.2499  2.2824
  187DOPC   C2523019   5.495   0.630   3.870  0.3406 -0.3522 -0.0720
  187DOPC   H5R23020   5.411   0.660   3.802  0.7309  0.8623 -0.0426
  187DOPC   H5S23021   5.554   0.720   3.898 -0.1154 -1.0368  3.5564
  187DOPC   C2623022   5.451   0.571   3.994  0.1525  0.3846  0.0663
  187DOPC   H6R23023   5.526   0.546   4.073 -1.2009 -1.6681  0.8005
  187DOPC   H6S23024   5.393   0.478   3.975  2.5823 -0.9270 -1.5597
  187DOPC   C2723025   5.350   0.667   4.065 -0.2365  0.3083  0.5521
  187DOPC   H7R23026   5.284   0.690   3.978  0.4491 -0.1640 -0.1071
  187DOPC   H7S23027   5.409   0.752   4.104  0.7180 -0.9298  1.9565
  187DOPC   C2823028   5.261   0.596   4.170  0.2060 -0.2489 -0.4859
  187DOPC   H8R23029   5.216   0.504   4.127  0.4055 -0.2446 -0.7073
  187DOPC   H8S23030   5.171   0.656   4.195 -0.8163 -2.4282  1.3632
  187DOPC   C2923031   5.324   0.560   4.302  0.4472  0.3130  0.6627
  187DOPC   H9R23032   5.425   0.517   4.291 -0.2971 -1.6028  1.0777
  187DOPC  C21023033   5.265   0.571   4.420 -0.9897  0.5393 -0.4089
  187DOPC  H10R23034   5.326   0.558   4.510  1.0933  0.0159 -1.8131
  187DOPC  C21123035   5.123   0.621   4.449 -0.2513 -0.2571  0.1054
  187DOPC  H11R23036   5.090   0.571   4.542 -0.6226 -1.6912 -0.7631
  187DOPC  H11S23037   5.056   0.573   4.375  0.0639 -1.2877  0.4745
  187DOPC  C21223038   5.106   0.769   4.454 -0.0465  0.4321  0.8405
  187DOPC  H12R23039   4.997   0.784   4.442 -0.4769 -3.4718 -1.5739
  187DOPC  H12S23040   5.151   0.815   4.363  1.3950 -2.8720 -0.2581
  187DOPC  C21323041   5.153   0.842   4.580  0.1150  0.1409 -1.1550
  187DOPC  H13R23042   5.261   0.819   4.597 -0.1357 -0.4566 -0.2673
  187DOPC  H13S23043   5.105   0.790   4.666  1.4822 -0.1835 -0.5480
  187DOPC  C21423044   5.124   0.991   4.569  0.8024 -0.1015  0.0236
  187DOPC  H14R23045   5.015   0.999   4.549  0.8759 -0.2712 -0.4508
  187DOPC  H14S23046   5.186   1.047   4.496 -0.8141 -0.1088 -1.4212
  187DOPC  C21523047   5.130   1.065   4.706 -0.6565 -0.2046 -0.2007
  187DOPC  H15R23048   5.232   1.080   4.746 -0.7711 -1.6657  0.7072
  187DOPC  H15S23049   5.073   1.002   4.778 -2.7413 -0.0865 -1.6344
  187DOPC  C21623050   5.050   1.196   4.703  0.2822 -0.5461 -0.4035
  187DOPC  H16R23051   4.954   1.193   4.647 -1.5611  2.1531  2.3070
  187DOPC  H16S23052   5.101   1.267   4.635  1.4308  1.2563  2.2041
  187DOPC  C21723053   5.035   1.251   4.850  0.7756  0.0403 -0.0334
  187DOPC  H17R23054   5.054   1.168   4.920 -1.8328 -0.2695  0.3685
  187DOPC  H17S23055   4.931   1.288   4.859  0.2421 -1.2252 -0.8711
  187DOPC  C21823056   5.129   1.360   4.887  0.5340 -0.4487  0.7433
  187DOPC  H18R23057   5.227   1.332   4.843  0.6948  0.7521  0.3239
  187DOPC  H18S23058   5.140   1.379   4.996  2.8129  1.0423  0.3166
  187DOPC  H18T23059   5.103   1.454   4.833  0.8018 -0.1670  1.1038
  187DOPC   C3323060   5.875  -0.206   3.637 -0.1657 -0.0403  0.0090
  187DOPC   H3X23061   5.971  -0.245   3.676 -0.7932 -0.6472  0.9939
  187DOPC   H3Y23062   5.812  -0.291   3.604 -2.5734  0.1936  3.4411
  187DOPC   C3423063   5.800  -0.144   3.759 -0.3766 -0.2781  0.1660
  187DOPC   H4X23064   5.701  -0.107   3.726  0.1172  1.2882  0.3892
  187DOPC   H4Y23065   5.865  -0.059   3.790 -0.9964 -0.0502  0.8566
  187DOPC   C3523066   5.769  -0.248   3.870  0.0376 -0.7664  0.0768
  187DOPC   H5X23067   5.859  -0.308   3.895 -0.2088 -1.3809 -0.4820
  187DOPC   H5Y23068   5.691  -0.315   3.827 -2.9541  1.0183  2.3225
  187DOPC   C3623069   5.724  -0.186   4.007  0.4594 -0.1779 -0.2135
  187DOPC   H6X23070   5.793  -0.103   4.033  0.5494 -0.4284  0.3718
  187DOPC   H6Y23071   5.616  -0.162   3.999  0.3229 -0.4827  0.5829
  187DOPC   C3723072   5.741  -0.282   4.125  0.0003  0.3038 -0.4644
  187DOPC   H7X23073   5.659  -0.357   4.118  0.4434 -0.2639  0.2156
  187DOPC   H7Y23074   5.838  -0.336   4.132 -0.9435 -1.3381  0.6313
  187DOPC   C3823075   5.714  -0.211   4.262  0.0544  0.2685 -0.0244
  187DOPC   H8X23076   5.616  -0.162   4.249 -0.1001  0.4180  1.4895
  187DOPC   H8Y23077   5.785  -0.129   4.282  1.5452 -1.1606  0.8230
  187DOPC   C3923078   5.702  -0.305   4.381 -0.5521 -0.8375 -0.3307
  187DOPC   H9X23079   5.613  -0.370   4.381 -0.4343 -1.0261  1.0243
  187DOPC  C31023080   5.800  -0.325   4.477  0.5342  0.6022  0.0266
  187DOPC  H10X23081   5.778  -0.398   4.556 -2.9353  2.4571  1.0056
  187DOPC  C31123082   5.936  -0.267   4.474 -0.2477  0.2658  1.0228
  187DOPC  H11X23083   5.934  -0.169   4.527 -1.2383  1.5725 -1.2778
  187DOPC  H11Y23084   5.956  -0.250   4.366  1.0583 -4.5154  0.2632
  187DOPC  C31223085   6.056  -0.356   4.519 -0.0978  0.4526 -0.8303
  187DOPC  H12X23086   6.149  -0.324   4.469 -0.2372  0.2497 -1.2237
  187DOPC  H12Y23087   6.047  -0.459   4.479  0.1091  0.6672 -1.4388
  187DOPC  C31323088   6.073  -0.366   4.669 -0.1475 -1.0678 -0.1185
  187DOPC  H13X23089   5.975  -0.389   4.715 -0.9953  1.7815 -0.3139
  187DOPC  H13Y23090   6.147  -0.443   4.700  0.7206 -1.0203 -1.9546
  187DOPC  C31423091   6.139  -0.233   4.723  0.1487 -0.5479  0.3165
  187DOPC  H14X23092   6.232  -0.212   4.666 -0.9167  0.9456 -0.9743
  187DOPC  H14Y23093   6.076  -0.143   4.708 -0.2548 -0.4491  2.3773
  187DOPC  C31523094   6.191  -0.234   4.864 -0.4481 -0.2796 -0.3902
  187DOPC  H15X23095   6.253  -0.325   4.875 -1.7952 -1.1461  0.4219
  187DOPC  H15Y23096   6.106  -0.242   4.935  0.8915 -0.1577  1.3045
  187DOPC  C31623097   6.267  -0.106   4.899 -1.0017  0.7818 -0.4563
  187DOPC  H16X23098   6.349  -0.082   4.828  1.1920  1.9101  2.2705
  187DOPC  H16Y23099   6.203  -0.015   4.899 -0.8981  0.8780  1.0081
  187DOPC  C31723100   6.330  -0.117   5.037 -0.9951 -0.3371  0.7148
  187DOPC  H17X23101   6.242  -0.134   5.102 -1.1924 -3.4039 -0.2252
  187DOPC  H17Y23102   6.383  -0.214   5.044 -0.8680 -0.7181 -3.1571
  187DOPC  C31823103   6.410   0.008   5.080  0.6890 -0.2514  0.0627
  187DOPC  H18X23104   6.450   0.060   4.990 -0.1538  0.8341  0.2950
  187DOPC  H18Y23105   6.344   0.083   5.128 -0.4837  0.8036 -2.9579
  187DOPC  H18Z23106   6.491  -0.020   5.152  0.3055  0.8859  0.9664
  188DOPC     N23107   1.469   0.252   2.937  0.4325 -0.0633  0.0969
  188DOPC   C1223108   1.435   0.326   3.069 -0.4887  0.6160 -0.2161
  188DOPC  H12A23109   1.380   0.411   3.032  1.2768  2.0342  0.3049
  188DOPC  H12B23110   1.524   0.364   3.117 -0.5758  2.7756 -1.6031
  188DOPC   C1323111   1.519   0.114   2.975  1.0465  0.0036 -0.0965
  188DOPC  H13A23112   1.530   0.054   2.886  0.1153 -0.4893  0.0990
  188DOPC  H13B23113   1.612   0.119   3.029  1.5916  2.2225 -1.1287
  188DOPC  H13C23114   1.436   0.063   3.022  0.2734 -0.5085 -1.8957
  188DOPC   C1423115   1.595   0.317   2.878 -0.0330  0.3967 -0.7291
  188DOPC  H14A23116   1.678   0.297   2.944 -0.4279 -1.5290 -0.7605
  188DOPC  H14B23117   1.624   0.267   2.787 -2.5328 -1.2568 -0.7161
  188DOPC  H14C23118   1.596   0.421   2.849 -0.2186  0.1908 -1.5138
  188DOPC   C1523119   1.367   0.250   2.832  0.0623 -0.0350  0.6874
  188DOPC  H15A23120   1.276   0.193   2.849  1.2320 -2.0666  0.3955
  188DOPC  H15B23121   1.411   0.212   2.741 -0.2298 -2.3015  1.4291
  188DOPC  H15C23122   1.339   0.350   2.803 -1.6624 -1.3908 -3.0345
  188DOPC   C1123123   1.348   0.253   3.170 -0.4232  0.1155 -1.2425
  188DOPC  H11A23124   1.413   0.170   3.203 -0.9963  0.1099 -0.0899
  188DOPC  H11B23125   1.338   0.327   3.252  1.6973  1.6724 -2.3002
  188DOPC     P23126   1.091   0.290   3.127  0.0907 -0.0728  0.0476
  188DOPC   O1323127   0.989   0.254   3.026  0.1379  0.0336 -0.0054
  188DOPC   O1423128   1.112   0.436   3.139 -0.3048  0.4374  0.5164
  188DOPC   O1223129   1.228   0.213   3.108  0.1985 -0.0746 -0.4183
  188DOPC   O1123130   1.056   0.237   3.274  1.4686 -0.1190  0.2210
  188DOPC    C123131   0.918   0.271   3.310  0.1999  1.0568 -0.6035
  188DOPC    HA23132   0.845   0.248   3.230 -1.6867 -0.3523  1.3904
  188DOPC    HB23133   0.909   0.380   3.332  0.5571  1.4525 -2.3196
  188DOPC    C223134   0.864   0.190   3.424  0.3108  0.1322 -0.5837
  188DOPC    HS23135   0.763   0.230   3.449 -0.5352 -1.5093 -1.1676
  188DOPC   O2123136   0.955   0.194   3.535  0.0043  0.7502  0.0743
  188DOPC   C2123137   0.972   0.315   3.589  0.3596  0.2900  0.2544
  188DOPC   O2223138   0.903   0.415   3.565  0.1246  0.4568 -0.2221
  188DOPC   C2223139   1.092   0.307   3.689  0.4028 -0.4567  0.4067
  188DOPC   H2R23140   1.121   0.200   3.700 -0.3790 -0.5405  1.8619
  188DOPC   H2S23141   1.050   0.334   3.788 -1.8069  0.9904 -0.8442
  188DOPC    C323142   0.841   0.038   3.378 -0.7703  0.6114 -1.2716
  188DOPC    HX23143   0.925  -0.005   3.319 -0.9421 -0.6908 -0.5983
  188DOPC    HY23144   0.749   0.046   3.316 -1.6665  1.7340  0.1496
  188DOPC   O3123145   0.805  -0.052   3.482 -0.2225 -0.4120 -0.1146
  188DOPC   C3123146   0.905  -0.111   3.555  1.1633 -0.3490  0.0421
  188DOPC   O3223147   1.025  -0.098   3.540  0.1448  0.0271  0.6784
  188DOPC   C3223148   0.832  -0.199   3.664 -0.7276 -0.7500  0.3624
  188DOPC   H2X23149   0.773  -0.129   3.727 -1.3597 -1.6123  0.7564
  188DOPC   H2Y23150   0.754  -0.258   3.611 -1.4653  1.0445 -0.6623
  188DOPC   C2323151   1.217   0.387   3.656 -0.2693 -1.0090  0.4966
  188DOPC   H3R23152   1.281   0.417   3.741  2.9114 -0.3013 -1.9714
  188DOPC   H3S23153   1.193   0.487   3.614  1.4382 -1.1873 -0.9950
  188DOPC   C2423154   1.310   0.327   3.557 -0.6269  1.0831 -0.2229
  188DOPC   H4R23155   1.254   0.323   3.462 -1.4433  2.3479  0.1791
  188DOPC   H4S23156   1.339   0.225   3.591 -0.3107  1.2388 -0.0165
  188DOPC   C2523157   1.452   0.387   3.545  0.2278 -0.3830 -0.6853
  188DOPC   H5R23158   1.440   0.490   3.505  0.5110 -0.9489 -2.3225
  188DOPC   H5S23159   1.513   0.337   3.467  1.0635 -1.0763  0.3789
  188DOPC   C2623160   1.533   0.369   3.666 -0.6923 -0.2444  0.1169
  188DOPC   H6R23161   1.510   0.271   3.714 -2.3540 -1.0342 -2.1000
  188DOPC   H6S23162   1.515   0.451   3.738  1.6656  0.3525  0.1043
  188DOPC   C2723163   1.685   0.367   3.636 -0.2348  0.5463 -0.4546
  188DOPC   H7R23164   1.711   0.450   3.568  0.8557 -1.3470 -2.4708
  188DOPC   H7S23165   1.717   0.278   3.578 -1.7361  0.6758 -1.5556
  188DOPC   C2823166   1.774   0.399   3.762 -0.6001  0.0601 -0.3908
  188DOPC   H8R23167   1.734   0.488   3.814 -1.1226 -0.0885 -0.5329
  188DOPC   H8S23168   1.880   0.419   3.735 -0.9024  2.7519  0.1488
  188DOPC   C2923169   1.757   0.280   3.858 -0.1230 -0.2876  0.5567
  188DOPC   H9R23170   1.811   0.192   3.820  0.0147  0.2010 -0.4098
  188DOPC  C21023171   1.718   0.273   3.983 -1.2871 -0.7202 -0.2986
  188DOPC  H10R23172   1.732   0.183   4.043 -0.1159  1.1611  2.4257
  188DOPC  C21123173   1.652   0.386   4.054 -0.2269 -0.1171 -0.0412
  188DOPC  H11R23174   1.610   0.467   3.991  0.4514 -0.5230 -1.0222
  188DOPC  H11S23175   1.728   0.416   4.129  0.1832 -1.4685  0.1192
  188DOPC  C21223176   1.533   0.337   4.142  0.6042 -0.3333 -0.3392
  188DOPC  H12R23177   1.457   0.305   4.067  1.5228 -1.0361 -0.9967
  188DOPC  H12S23178   1.492   0.429   4.188  0.5002 -0.3659 -0.3666
  188DOPC  C21323179   1.554   0.233   4.256  0.4066  0.4669  0.1734
  188DOPC  H13R23180   1.597   0.148   4.199  0.2309  0.4874  0.0079
  188DOPC  H13S23181   1.456   0.203   4.299 -0.6115 -0.5703 -2.6340
  188DOPC  C21423182   1.651   0.279   4.369  0.0251 -0.0748  0.3983
  188DOPC  H14R23183   1.602   0.358   4.429 -1.4467  2.1010 -3.3697
  188DOPC  H14S23184   1.743   0.319   4.322  2.4902 -4.9799  0.3341
  188DOPC  C21523185   1.697   0.171   4.460  0.3651 -0.0304 -0.6557
  188DOPC  H15R23186   1.734   0.076   4.417 -0.4922 -0.3610 -0.6837
  188DOPC  H15S23187   1.611   0.143   4.526  1.4015  2.7401  2.1721
  188DOPC  C21623188   1.797   0.231   4.566 -0.9600  0.2159  0.5634
  188DOPC  H16R23189   1.759   0.328   4.602 -1.8760 -0.5918  1.8480
  188DOPC  H16S23190   1.896   0.237   4.516 -1.4835 -1.4701 -0.8063
  188DOPC  C21723191   1.823   0.154   4.700  0.4122  0.6201 -0.5756
  188DOPC  H17R23192   1.730   0.158   4.760 -0.8745  1.8283 -2.5224
  188DOPC  H17S23193   1.899   0.214   4.754  1.9577 -0.6637 -1.2339
  188DOPC  C21823194   1.875   0.013   4.689 -0.3875 -0.2126 -0.5331
  188DOPC  H18R23195   1.860  -0.044   4.783 -1.4070  1.8747  0.6483
  188DOPC  H18S23196   1.985   0.022   4.681 -0.5951  1.7844 -2.0246
  188DOPC  H18T23197   1.834  -0.053   4.609  0.1435 -2.5741  1.0350
  188DOPC   C3323198   0.926  -0.297   3.726  0.6040 -0.2098  0.5302
  188DOPC   H3X23199   1.004  -0.248   3.789  0.7036  1.5611 -0.9306
  188DOPC   H3Y23200   0.977  -0.361   3.651 -0.1311  0.1821 -0.3077
  188DOPC   C3423201   0.853  -0.410   3.809 -0.0274  0.0498 -0.1803
  188DOPC   H4X23202   0.942  -0.440   3.868 -0.1048 -1.3612 -0.7638
  188DOPC   H4Y23203   0.823  -0.494   3.743 -1.6076  0.1061  0.4247
  188DOPC   C3523204   0.742  -0.362   3.901  0.5575  0.4351  0.2133
  188DOPC   H5X23205   0.650  -0.319   3.856 -0.9623  0.5448  3.1600
  188DOPC   H5Y23206   0.789  -0.290   3.971 -0.0020  1.9611 -0.9296
  188DOPC   C3623207   0.681  -0.472   3.980  0.7044  0.9968 -0.3599
  188DOPC   H6X23208   0.635  -0.542   3.907  1.2602  0.4679 -0.2121
  188DOPC   H6Y23209   0.763  -0.534   4.021 -0.4391 -0.1186  0.3121
  188DOPC   C3723210   0.592  -0.435   4.101 -0.1171 -0.7273 -0.2146
  188DOPC   H7X23211   0.505  -0.376   4.064 -0.5640  1.4880  3.7124
  188DOPC   H7Y23212   0.544  -0.528   4.139 -2.0859  0.3983  0.1653
  188DOPC   C3823213   0.653  -0.354   4.217 -0.4941  0.0234 -0.2180
  188DOPC   H8X23214   0.584  -0.322   4.298 -1.7036 -1.3453 -0.6600
  188DOPC   H8Y23215   0.704  -0.272   4.163 -1.2361 -0.5983 -1.9210
  188DOPC   C3923216   0.753  -0.439   4.289 -0.8907 -0.0559  0.0199
  188DOPC   H9X23217   0.842  -0.462   4.229 -0.9590  1.7868 -0.8667
  188DOPC  C31023218   0.748  -0.505   4.405 -0.3433  0.2222  0.2439
  188DOPC  H10X23219   0.839  -0.547   4.450 -0.0613  1.8575  1.2664
  188DOPC  C31123220   0.639  -0.500   4.506 -0.7950  0.0475 -0.0712
  188DOPC  H11X23221   0.587  -0.598   4.512  0.2818 -0.4749  1.0880
  188DOPC  H11Y23222   0.557  -0.429   4.482 -0.9655 -0.0654  0.1758
  188DOPC  C31223223   0.697  -0.475   4.651  0.0589  0.4196  0.5108
  188DOPC  H12X23224   0.782  -0.546   4.657 -1.0659 -0.9674  0.4517
  188DOPC  H12Y23225   0.626  -0.516   4.725 -0.5016 -0.8457 -0.6829
  188DOPC  C31323226   0.760  -0.336   4.690 -0.1211  0.8571 -0.2511
  188DOPC  H13X23227   0.844  -0.317   4.620  2.8657 -0.4082  2.7264
  188DOPC  H13Y23228   0.685  -0.257   4.669 -0.9168  0.3225  0.5123
  188DOPC  C31423229   0.789  -0.325   4.839  0.5340 -0.0374 -0.8604
  188DOPC  H14X23230   0.851  -0.411   4.873  2.0254  0.6325 -1.7679
  188DOPC  H14Y23231   0.848  -0.232   4.850  0.2940 -0.0337  0.4788
  188DOPC  C31523232   0.654  -0.304   4.921  0.0589  0.2981  0.2013
  188DOPC  H15X23233   0.592  -0.395   4.908 -0.6082  0.7108  0.4068
  188DOPC  H15Y23234   0.599  -0.217   4.879  0.0152 -0.0005 -0.3754
  188DOPC  C31623235   0.688  -0.290   5.068  0.2305 -1.2351  0.5714
  188DOPC  H16X23236   0.743  -0.382   5.100 -1.2997 -1.7086  1.9958
  188DOPC  H16Y23237   0.752  -0.199   5.073 -3.4763  1.5595  1.6821
  188DOPC  C31723238   0.573  -0.278   5.164 -0.3602  0.2958  0.3516
  188DOPC  H17X23239   0.501  -0.207   5.118 -0.7707 -0.8239 -0.8115
  188DOPC  H17Y23240   0.516  -0.373   5.149 -0.6988  0.9484 -3.8006
  188DOPC  C31823241   0.605  -0.247   5.309 -0.2643 -0.0382 -0.2565
  188DOPC  H18X23242   0.648  -0.145   5.315 -0.5649  0.1531 -1.2864
  188DOPC  H18Y23243   0.514  -0.252   5.373 -1.1848  1.2874 -1.3897
  188DOPC  H18Z23244   0.677  -0.319   5.353  0.8928 -0.1604 -2.2246
  189DOPC     N23245   4.371   6.378   2.741  0.4883  0.8774 -0.1260
  189DOPC   C1223246   4.269   6.392   2.850  0.7468 -0.1911  0.0561
  189DOPC  H12A23247   4.211   6.482   2.835  2.1342  0.5401 -1.1709
  189DOPC  H12B23248   4.325   6.417   2.939  0.3113  2.4844 -0.3416
  189DOPC   C1323249   4.470   6.271   2.779 -0.0256 -0.6211 -0.2773
  189DOPC  H13A23250   4.528   6.245   2.691  4.2856  3.9801  0.7404
  189DOPC  H13B23251   4.540   6.312   2.850  1.2128  0.2002 -1.9071
  189DOPC  H13C23252   4.413   6.189   2.819  0.2250 -1.2900 -1.2529
  189DOPC   C1423253   4.453   6.501   2.720  0.4011 -0.6480  0.5058
  189DOPC  H14A23254   4.512   6.524   2.808 -1.7217 -0.9769  2.1077
  189DOPC  H14B23255   4.520   6.485   2.637 -0.9204  1.0904 -0.9411
  189DOPC  H14C23256   4.396   6.589   2.695 -0.3836 -1.2676  0.0733
  189DOPC   C1523257   4.310   6.345   2.615  0.2003  0.3292 -0.4284
  189DOPC  H15A23258   4.251   6.425   2.573  1.4772  1.9279  0.6674
  189DOPC  H15B23259   4.234   6.270   2.628 -0.5709  0.8844 -1.5495
  189DOPC  H15C23260   4.383   6.324   2.538  1.4226 -1.6266  1.1630
  189DOPC   C1123261   4.173   6.275   2.870 -0.1686  0.9048 -0.5300
  189DOPC  H11A23262   4.234   6.183   2.883 -1.6111 -0.3540 -2.2821
  189DOPC  H11B23263   4.119   6.294   2.965  1.1351  2.1996 -0.0020
  189DOPC     P23264   3.957   6.366   2.747 -0.3655 -0.0609  0.2114
  189DOPC   O1323265   3.882   6.339   2.618 -0.1458  0.3994 -0.0559
  189DOPC   O1423266   4.003   6.505   2.763  0.0898 -0.1348  0.0714
  189DOPC   O1223267   4.081   6.264   2.759  0.3518 -0.4116  0.1484
  189DOPC   O1123268   3.865   6.334   2.868 -0.3626 -0.5938  0.3948
  189DOPC    C123269   3.792   6.216   2.890  0.4741 -0.3479  0.4637
  189DOPC    HA23270   3.866   6.133   2.887  1.0308  0.0704  1.8230
  189DOPC    HB23271   3.719   6.201   2.807  1.5539  0.7340 -0.7406
  189DOPC    C223272   3.732   6.212   3.024 -0.1541  0.3387  0.2535
  189DOPC    HS23273   3.686   6.306   3.060 -1.5918 -0.6942  1.2563
  189DOPC   O2123274   3.825   6.157   3.119 -0.0738  0.1294  0.4291
  189DOPC   C2123275   3.888   6.246   3.196  0.2886 -0.1452 -0.0065
  189DOPC   O2223276   3.866   6.368   3.187 -0.2010  0.3596 -0.6240
  189DOPC   C2223277   3.999   6.179   3.285  0.1132 -0.0760  0.5933
  189DOPC   H2R23278   4.092   6.183   3.225 -0.0074  0.3277  0.4373
  189DOPC   H2S23279   3.974   6.072   3.304  1.3912 -0.0883  2.5069
  189DOPC    C323280   3.604   6.119   3.028 -0.8172  0.1143 -0.2444
  189DOPC    HX23281   3.630   6.027   2.971 -1.9526  1.1114 -2.4982
  189DOPC    HY23282   3.526   6.177   2.975  0.9265 -0.2121 -3.4367
  189DOPC   O3123283   3.559   6.112   3.163 -0.2798 -0.5327 -0.1209
  189DOPC   C3123284   3.552   5.997   3.220  0.0746  0.3125 -0.5990
  189DOPC   O3223285   3.580   5.891   3.161  0.0158 -0.2280 -0.0090
  189DOPC   C3223286   3.496   6.005   3.362  0.0727 -0.0244 -0.3560
  189DOPC   H2X23287   3.423   6.088   3.368 -0.9845 -0.9283 -0.4412
  189DOPC   H2Y23288   3.449   5.910   3.394  2.8699 -0.5057  3.0051
  189DOPC   C2323289   4.022   6.250   3.422 -0.0039  0.0070  0.0271
  189DOPC   H3R23290   4.042   6.359   3.411 -0.3815  0.2961  1.9554
  189DOPC   H3S23291   4.100   6.197   3.480 -1.0067 -1.5461  0.0076
  189DOPC   C2423292   3.902   6.239   3.521 -0.0405  0.0329 -0.0190
  189DOPC   H4R23293   3.858   6.137   3.530 -3.6770  1.4554 -0.0896
  189DOPC   H4S23294   3.819   6.301   3.482  0.3624  0.2353 -0.5677
  189DOPC   C2523295   3.934   6.283   3.661  0.4667  0.3546 -0.5241
  189DOPC   H5R23296   3.939   6.394   3.661 -1.8542  0.5117  0.1378
  189DOPC   H5S23297   4.034   6.238   3.682  1.9601  0.6187 -5.7066
  189DOPC   C2623298   3.835   6.244   3.766  0.0719 -0.3725 -0.9793
  189DOPC   H6R23299   3.823   6.134   3.774 -1.0131 -0.2820 -1.1988
  189DOPC   H6S23300   3.744   6.302   3.740  0.5954  0.2724 -1.4011
  189DOPC   C2723301   3.883   6.284   3.907  0.6624  0.7949 -0.2738
  189DOPC   H7R23302   3.892   6.394   3.894  0.3069  1.2611  2.6656
  189DOPC   H7S23303   3.987   6.252   3.930  0.6130 -0.0175 -1.1176
  189DOPC   C2823304   3.789   6.239   4.019 -0.1261 -0.5363 -0.8767
  189DOPC   H8R23305   3.811   6.136   4.054 -1.0093  0.0700  1.6483
  189DOPC   H8S23306   3.683   6.258   3.990  0.0826  2.6161  0.0362
  189DOPC   C2923307   3.814   6.336   4.141 -0.0286  0.4537 -0.2133
  189DOPC   H9R23308   3.912   6.312   4.184 -0.0517 -1.6785 -1.2423
  189DOPC  C21023309   3.749   6.449   4.179 -1.1537  0.1099 -0.2160
  189DOPC  H10R23310   3.787   6.489   4.274  1.6718 -0.4709 -1.0145
  189DOPC  C21123311   3.612   6.500   4.141  0.3292  0.1386  0.0802
  189DOPC  H11R23312   3.601   6.468   4.035  2.2007  0.2968 -0.2056
  189DOPC  H11S23313   3.595   6.610   4.133  1.0699  0.2057 -0.7789
  189DOPC  C21223314   3.481   6.439   4.205  0.0322  0.0599 -0.1823
  189DOPC  H12R23315   3.470   6.329   4.196 -1.1615  0.1002  0.6366
  189DOPC  H12S23316   3.400   6.491   4.149  1.2767  0.1914 -1.9759
  189DOPC  C21323317   3.466   6.475   4.360 -0.1039 -0.6824  0.4558
  189DOPC  H13R23318   3.477   6.583   4.383  0.2365 -0.5965 -0.0837
  189DOPC  H13S23319   3.560   6.436   4.404  0.2419 -0.9912 -0.5103
  189DOPC  C21423320   3.347   6.405   4.429  0.8461 -0.3064 -0.7015
  189DOPC  H14R23321   3.356   6.294   4.430 -1.9823 -0.6045 -0.4455
  189DOPC  H14S23322   3.257   6.423   4.366 -0.5970 -0.4697  1.2289
  189DOPC  C21523323   3.326   6.449   4.571 -0.2626  0.2759 -0.6924
  189DOPC  H15R23324   3.317   6.560   4.573 -0.9527  0.2555  2.4926
  189DOPC  H15S23325   3.418   6.423   4.628 -0.9285 -1.1255 -0.2047
  189DOPC  C21623326   3.208   6.398   4.652  0.0980 -0.4075 -0.2970
  189DOPC  H16R23327   3.212   6.291   4.622  2.0415 -0.1034 -1.2310
  189DOPC  H16S23328   3.121   6.451   4.606  1.1085  1.5670 -0.0251
  189DOPC  C21723329   3.224   6.405   4.807  0.2064 -0.0778 -0.1031
  189DOPC  H17R23330   3.220   6.512   4.837  2.3524 -0.6644  2.6665
  189DOPC  H17S23331   3.319   6.351   4.825  0.7705  0.1311 -2.1625
  189DOPC  C21823332   3.110   6.328   4.880  0.1089  0.1741 -0.6351
  189DOPC  H18R23333   3.130   6.320   4.989  0.9218 -2.6265 -0.9061
  189DOPC  H18S23334   3.102   6.223   4.843 -0.5027  1.2806 -3.8806
  189DOPC  H18T23335   3.018   6.387   4.861 -2.3459 -2.5400  1.8057
  189DOPC   C3323336   3.596   6.028   3.481  0.0778  0.5909  0.0464
  189DOPC   H3X23337   3.647   6.120   3.447  3.7152 -1.5516 -0.9195
  189DOPC   H3Y23338   3.670   5.946   3.495 -1.6733 -1.2965 -1.0360
  189DOPC   C3423339   3.523   6.055   3.616  0.2940 -0.7003  0.9131
  189DOPC   H4X23340   3.600   6.040   3.695  1.7432 -0.7553 -0.4615
  189DOPC   H4Y23341   3.451   5.973   3.636 -0.6498 -0.5730 -1.6125
  189DOPC   C3523342   3.460   6.189   3.630 -0.0489  0.0667  0.0952
  189DOPC   H5X23343   3.366   6.197   3.572 -0.1811  0.8642  0.4012
  189DOPC   H5Y23344   3.536   6.255   3.584  0.2599 -0.5202 -0.2534
  189DOPC   C3623345   3.440   6.222   3.778  0.9556 -0.2778  0.3557
  189DOPC   H6X23346   3.386   6.138   3.826  1.8190 -0.6829  0.6458
  189DOPC   H6Y23347   3.541   6.239   3.822  3.1640 -0.8964 -3.9794
  189DOPC   C3723348   3.361   6.348   3.784  0.6464  0.2422 -0.0426
  189DOPC   H7X23349   3.394   6.414   3.867 -0.2856  1.1612 -0.3775
  189DOPC   H7Y23350   3.371   6.406   3.690 -0.4179 -0.9179 -0.9053
  189DOPC   C3823351   3.201   6.349   3.795 -0.5866 -0.0346  0.3777
  189DOPC   H8X23352   3.178   6.291   3.887  1.3723  1.1695  1.7041
  189DOPC   H8Y23353   3.173   6.293   3.703 -0.4366  0.1818  0.2007
  189DOPC   C3923354   3.138   6.486   3.786 -1.1897  0.9210  0.1326
  189DOPC   H9X23355   3.121   6.528   3.686 -0.0685  3.3068  0.8576
  189DOPC  C31023356   3.092   6.557   3.885  0.4208 -0.1648 -0.1964
  189DOPC  H10X23357   3.053   6.658   3.868 -0.2370  0.0162  2.0679
  189DOPC  C31123358   3.086   6.512   4.036  0.3549  0.0258 -0.0359
  189DOPC  H11X23359   3.148   6.589   4.087  1.4262  0.2551 -1.5925
  189DOPC  H11Y23360   3.135   6.415   4.055  1.2684  0.7783  1.5930
  189DOPC  C31223361   2.944   6.498   4.096  1.0373  0.1309  0.0502
  189DOPC  H12X23362   2.893   6.420   4.036 -0.7109  0.0510  1.5565
  189DOPC  H12Y23363   2.884   6.588   4.072 -0.6621 -0.7031  0.9942
  189DOPC  C31323364   2.960   6.450   4.243 -0.2712 -0.1822  0.9993
  189DOPC  H13X23365   2.991   6.343   4.245 -1.8706 -0.6943  0.6913
  189DOPC  H13Y23366   3.040   6.509   4.292  1.1680 -2.5425  1.6259
  189DOPC  C31423367   2.824   6.459   4.309 -0.1171  0.4650  0.3492
  189DOPC  H14X23368   2.809   6.567   4.329 -0.8037 -0.0534  3.1499
  189DOPC  H14Y23369   2.750   6.421   4.235  2.2770 -1.0624 -1.3788
  189DOPC  C31523370   2.798   6.381   4.436 -0.2560  0.1427 -0.2294
  189DOPC  H15X23371   2.870   6.410   4.516  0.4736  1.2616 -1.2622
  189DOPC  H15Y23372   2.834   6.279   4.411  0.1222  0.1610  0.2202
  189DOPC  C31623373   2.658   6.377   4.482  0.3700 -0.9606  0.2766
  189DOPC  H16X23374   2.587   6.326   4.413 -1.4345  2.0202 -0.2414
  189DOPC  H16Y23375   2.643   6.339   4.585 -1.0987  1.0810  0.8916
  189DOPC  C31723376   2.594   6.516   4.490  0.1315 -0.0928  0.6934
  189DOPC  H17X23377   2.668   6.583   4.539  1.7530  0.5728 -2.4064
  189DOPC  H17Y23378   2.592   6.563   4.389 -0.1645  0.7363  1.0718
  189DOPC  C31823379   2.456   6.522   4.545  0.1456  0.2689  0.7433
  189DOPC  H18X23380   2.444   6.455   4.633  1.3739  1.8662  2.2067
  189DOPC  H18Y23381   2.421   6.627   4.560 -0.3322  0.2686 -0.3131
  189DOPC  H18Z23382   2.392   6.488   4.461  0.2575  1.8962 -0.0538
  190DOPC     N23383   2.523   7.508   2.461  0.7202  0.1627 -0.5845
  190DOPC   C1223384   2.653   7.532   2.532  0.3907  0.6581 -0.0500
  190DOPC  H12A23385   2.687   7.625   2.489  1.8159 -0.4088 -1.3243
  190DOPC  H12B23386   2.722   7.458   2.494 -0.1603  0.6191 -0.9960
  190DOPC   C1323387   2.416   7.598   2.519 -0.8898  0.1977  0.4387
  190DOPC  H13A23388   2.321   7.587   2.469 -2.3290  1.1635  2.7720
  190DOPC  H13B23389   2.415   7.590   2.627  1.7609 -1.7552  0.4100
  190DOPC  H13C23390   2.446   7.700   2.504  2.2183 -0.8539 -1.3511
  190DOPC   C1423391   2.481   7.363   2.491 -0.5972 -0.3490  0.4327
  190DOPC  H14A23392   2.509   7.353   2.595 -1.0758  1.7930  0.8128
  190DOPC  H14B23393   2.377   7.342   2.468  0.1148 -2.1086 -1.4860
  190DOPC  H14C23394   2.542   7.298   2.430  0.8365  2.3105 -1.1443
  190DOPC   C1523395   2.538   7.523   2.317 -0.8849 -0.0458 -0.1131
  190DOPC  H15A23396   2.619   7.482   2.259  0.5119  2.2379  0.1217
  190DOPC  H15B23397   2.545   7.629   2.299 -3.3795  0.7016  2.6052
  190DOPC  H15C23398   2.448   7.495   2.264 -0.8314 -2.1076  0.8039
  190DOPC   C1123399   2.656   7.518   2.688 -0.0578  0.0421 -0.1034
  190DOPC  H11A23400   2.761   7.539   2.717 -0.1829 -1.2709  1.3574
  190DOPC  H11B23401   2.604   7.605   2.733 -0.1690  1.6361 -3.0173
  190DOPC     P23402   2.541   7.389   2.870 -0.3059  0.0410  0.0423
  190DOPC   O1323403   2.517   7.251   2.902 -1.4532  0.1754 -0.4985
  190DOPC   O1423404   2.422   7.472   2.834  0.1906  0.7029 -0.5223
  190DOPC   O1223405   2.629   7.389   2.739 -0.7365 -0.6505  0.2724
  190DOPC   O1123406   2.626   7.469   2.984 -0.1272 -0.5348 -0.0986
  190DOPC    C123407   2.757   7.428   3.022 -0.0448  0.4073 -0.3627
  190DOPC    HA23408   2.820   7.513   3.058 -0.2089 -0.2422  1.5742
  190DOPC    HB23409   2.807   7.367   2.944  3.1927  0.3447  1.5341
  190DOPC    C223410   2.753   7.318   3.132  1.0112  0.6440 -0.5207
  190DOPC    HS23411   2.706   7.228   3.088  0.9906 -0.3103  1.3393
  190DOPC   O2123412   2.670   7.364   3.243 -0.3322 -0.8083  0.6456
  190DOPC   C2123413   2.577   7.278   3.292 -0.0499  0.3262 -0.1081
  190DOPC   O2223414   2.558   7.164   3.249  0.1555 -0.2933  0.4260
  190DOPC   C2223415   2.503   7.330   3.413  0.1953  0.5027 -0.5532
  190DOPC   H2R23416   2.397   7.332   3.380 -0.6094 -0.3849  1.8294
  190DOPC   H2S23417   2.546   7.429   3.439  0.1036  0.3666  0.1421
  190DOPC    C323418   2.894   7.277   3.183 -0.3950  0.8469  0.0089
  190DOPC    HX23419   2.943   7.371   3.216 -0.5989  2.0708 -2.8623
  190DOPC    HY23420   2.957   7.234   3.102  0.5672  2.3133 -0.0434
  190DOPC   O3123421   2.879   7.189   3.298  0.3098 -0.2763 -0.1541
  190DOPC   C3123422   2.861   7.062   3.263  0.1066 -0.3289 -0.1039
  190DOPC   O3223423   2.864   7.018   3.146 -0.2553 -0.4361  0.3514
  190DOPC   C3223424   2.843   6.973   3.379  0.5669  0.4136 -0.3612
  190DOPC   H2X23425   2.925   7.010   3.444 -0.5938  0.4056  1.1776
  190DOPC   H2Y23426   2.756   6.998   3.444  1.9935  0.3679  1.6723
  190DOPC   C2323427   2.514   7.229   3.531  0.2598  0.2361  0.3159
  190DOPC   H3R23428   2.497   7.125   3.497 -0.2862  0.1249  0.8965
  190DOPC   H3S23429   2.437   7.247   3.609 -2.6202 -0.5684 -2.2088
  190DOPC   C2423430   2.645   7.239   3.607 -0.5156  0.3723 -0.3864
  190DOPC   H4R23431   2.729   7.251   3.535  1.5083 -2.6831  1.2256
  190DOPC   H4S23432   2.658   7.135   3.646 -4.7476 -0.8050 -1.6077
  190DOPC   C2523433   2.652   7.338   3.720  0.0366 -0.4733 -0.6068
  190DOPC   H5R23434   2.588   7.290   3.797 -0.3151 -0.1754 -0.7132
  190DOPC   H5S23435   2.611   7.439   3.701 -0.4077 -0.3347  0.9340
  190DOPC   C2623436   2.792   7.351   3.776  0.6001  0.6096  0.0129
  190DOPC   H6R23437   2.848   7.414   3.703 -0.2548  0.3819 -0.8628
  190DOPC   H6S23438   2.838   7.251   3.786  0.4116  0.0273 -3.6534
  190DOPC   C2723439   2.789   7.420   3.910  0.0326  0.1514  0.5156
  190DOPC   H7R23440   2.734   7.358   3.983 -2.7925  0.6279 -1.0893
  190DOPC   H7S23441   2.731   7.514   3.918 -1.6439 -0.7746 -0.2831
  190DOPC   C2823442   2.930   7.464   3.948 -0.6157 -0.1224 -0.4254
  190DOPC   H8R23443   2.930   7.526   4.040 -0.5751  0.3658 -0.7447
  190DOPC   H8S23444   2.980   7.514   3.862 -1.1177  2.4442  0.6801
  190DOPC   C2923445   3.021   7.341   3.968 -0.2686 -0.1824  0.5376
  190DOPC   H9R23446   3.070   7.310   3.875 -1.1725 -1.7491  0.5425
  190DOPC  C21023447   3.045   7.283   4.085  0.2137  0.1304 -0.2697
  190DOPC  H10R23448   3.118   7.200   4.093 -0.4531 -0.4453  0.0265
  190DOPC  C21123449   2.977   7.309   4.219  0.3323 -0.1981  0.4548
  190DOPC  H11R23450   2.968   7.213   4.274  1.5133 -1.0515 -0.7553
  190DOPC  H11S23451   2.879   7.355   4.197 -0.2125 -0.9631  1.2269
  190DOPC  C21223452   3.071   7.400   4.308  0.6166 -0.2506  0.3732
  190DOPC  H12R23453   3.093   7.496   4.257  1.4532 -0.6908 -0.1065
  190DOPC  H12S23454   3.168   7.348   4.319  1.5530  1.1696 -0.7504
  190DOPC  C21323455   3.013   7.429   4.444 -0.6725  0.5786 -0.1935
  190DOPC  H13R23456   3.091   7.484   4.501 -1.4859  2.2512 -0.6438
  190DOPC  H13S23457   2.986   7.326   4.477 -2.3997  1.1915  0.4022
  190DOPC  C21423458   2.887   7.515   4.452 -0.6233 -0.0194  0.2777
  190DOPC  H14R23459   2.804   7.455   4.408  0.3410 -0.4917 -0.9517
  190DOPC  H14S23460   2.913   7.606   4.394  0.9172 -1.1975 -0.9527
  190DOPC  C21523461   2.851   7.557   4.597  0.0275 -0.0772  0.1434
  190DOPC  H15R23462   2.925   7.627   4.642  0.4423  1.1120 -2.2763
  190DOPC  H15S23463   2.845   7.466   4.662 -0.4751 -1.0051 -1.1681
  190DOPC  C21623464   2.715   7.626   4.614  0.0246 -0.0163  0.0016
  190DOPC  H16R23465   2.644   7.541   4.605  0.0969 -0.2351  1.2394
  190DOPC  H16S23466   2.702   7.709   4.541  0.3444 -0.0466 -0.0937
  190DOPC  C21723467   2.697   7.672   4.759 -0.3600  0.1229  0.1963
  190DOPC  H17R23468   2.761   7.762   4.775  0.1588  0.0268 -1.2607
  190DOPC  H17S23469   2.732   7.592   4.827 -0.9408 -2.0204 -1.9084
  190DOPC  C21823470   2.556   7.730   4.794  0.0946 -0.1850  0.2358
  190DOPC  H18R23471   2.543   7.757   4.901  1.4239  1.2527  0.0666
  190DOPC  H18S23472   2.489   7.648   4.759  0.7299 -1.2214  1.3765
  190DOPC  H18T23473   2.540   7.831   4.750  0.0413  0.7223  2.2252
  190DOPC   C3323474   2.859   6.826   3.335  0.2620 -0.3238  0.9058
  190DOPC   H3X23475   2.943   6.818   3.263  1.6622 -1.4695  2.6080
  190DOPC   H3Y23476   2.762   6.791   3.294 -0.0332 -0.3977  1.6539
  190DOPC   C3423477   2.900   6.733   3.449  0.1098 -0.8881  1.2907
  190DOPC   H4X23478   2.992   6.776   3.494 -0.7437 -0.5985  2.8113
  190DOPC   H4Y23479   2.936   6.639   3.404 -0.4556 -0.5251  0.0325
  190DOPC   C3523480   2.795   6.727   3.555  0.0508 -0.2103  0.1309
  190DOPC   H5X23481   2.791   6.822   3.611  1.0482 -0.9924  1.5913
  190DOPC   H5Y23482   2.832   6.641   3.615  1.5990 -0.6631 -1.3844
  190DOPC   C3623483   2.651   6.687   3.507 -0.3432  0.0665 -0.1901
  190DOPC   H6X23484   2.608   6.736   3.417 -0.8114  3.0453  1.5354
  190DOPC   H6Y23485   2.650   6.577   3.489 -3.2621  0.0531 -0.4102
  190DOPC   C3723486   2.541   6.709   3.617  0.7151  1.0387 -0.6298
  190DOPC   H7X23487   2.454   6.642   3.600  0.7582  0.3895  1.4106
  190DOPC   H7Y23488   2.594   6.673   3.707  0.1596  2.4858  0.3202
  190DOPC   C3823489   2.487   6.852   3.636  0.4225  0.5311 -0.5814
  190DOPC   H8X23490   2.564   6.918   3.591  2.2341 -0.3316  1.1018
  190DOPC   H8Y23491   2.480   6.874   3.745  0.1202 -1.5915 -0.1378
  190DOPC   C3923492   2.353   6.869   3.566  0.6385  0.1288  0.6732
  190DOPC   H9X23493   2.363   6.886   3.458  2.8577 -0.1355  0.8065
  190DOPC  C31023494   2.229   6.875   3.624  0.1136 -0.9086  0.3653
  190DOPC  H10X23495   2.138   6.871   3.562 -0.7136 -0.8402  1.5587
  190DOPC  C31123496   2.208   6.873   3.776 -0.0364  0.4600 -0.3823
  190DOPC  H11X23497   2.148   6.963   3.802 -1.4042  0.1595 -2.2561
  190DOPC  H11Y23498   2.296   6.876   3.842  1.3938 -0.7897 -2.1288
  190DOPC  C31223499   2.123   6.753   3.827 -0.6942  0.1394 -0.0138
  190DOPC  H12X23500   2.185   6.661   3.833 -0.9521  0.0202  1.0008
  190DOPC  H12Y23501   2.038   6.733   3.758  1.3154 -0.7497 -2.3531
  190DOPC  C31323502   2.063   6.773   3.961 -0.2979 -0.0489 -0.5095
  190DOPC  H13X23503   2.142   6.788   4.038 -1.0484  1.2345  0.0348
  190DOPC  H13Y23504   2.004   6.866   3.957 -0.7873 -0.3350  0.0518
  190DOPC  C31423505   1.970   6.660   4.003  0.5251 -0.8675  0.0251
  190DOPC  H14X23506   1.884   6.649   3.934 -0.1627  1.7293  0.3717
  190DOPC  H14Y23507   2.024   6.563   3.998 -1.8723 -2.2161 -1.2805
  190DOPC  C31523508   1.925   6.672   4.154  0.0539 -1.1103 -0.1740
  190DOPC  H15X23509   1.878   6.771   4.174  1.1383 -0.4156 -0.9405
  190DOPC  H15Y23510   2.023   6.662   4.205 -0.0243  0.3820  0.2987
  190DOPC  C31623511   1.843   6.551   4.203 -0.0447  0.8742 -0.0176
  190DOPC  H16X23512   1.744   6.553   4.152  0.0200 -0.4999 -0.2177
  190DOPC  H16Y23513   1.898   6.459   4.175  0.8335  1.6891 -1.0719
  190DOPC  C31723514   1.813   6.553   4.358 -0.4291 -0.1990  0.5709
  190DOPC  H17X23515   1.890   6.505   4.422 -0.3656  0.5451  1.0648
  190DOPC  H17Y23516   1.808   6.661   4.384 -2.4872 -0.1599  0.1599
  190DOPC  C31823517   1.688   6.475   4.386 -0.3409  0.3616  0.8897
  190DOPC  H18X23518   1.656   6.482   4.492 -0.9769  1.0689  0.6599
  190DOPC  H18Y23519   1.602   6.504   4.321 -1.4318  1.4359  2.7416
  190DOPC  H18Z23520   1.707   6.366   4.377 -0.8395  0.2537  1.1055
  191DOPC     N23521   5.639   7.056   2.637 -0.4041  0.5207 -0.4434
  191DOPC   C1223522   5.490   7.084   2.670 -0.2404  0.1693  0.0132
  191DOPC  H12A23523   5.427   7.010   2.624  0.9995 -0.7916 -0.1960
  191DOPC  H12B23524   5.457   7.186   2.654 -0.2009  0.0482 -0.9132
  191DOPC   C1323525   5.661   7.106   2.496 -0.3411 -0.5118  0.0502
  191DOPC  H13A23526   5.756   7.081   2.450  0.3867  1.7573  0.1968
  191DOPC  H13B23527   5.588   7.061   2.429  0.5000 -0.7910 -0.7104
  191DOPC  H13C23528   5.642   7.212   2.489  0.5247 -0.3489 -0.0482
  191DOPC   C1423529   5.655   6.909   2.634  0.0191  0.2282 -0.2277
  191DOPC  H14A23530   5.583   6.851   2.578 -0.0053 -1.6132  1.6137
  191DOPC  H14B23531   5.752   6.879   2.599  0.4330 -0.4539  1.3995
  191DOPC  H14C23532   5.644   6.867   2.733  1.9538  1.1713  0.4357
  191DOPC   C1523533   5.736   7.132   2.726 -0.0569  0.1452 -0.0220
  191DOPC  H15A23534   5.706   7.235   2.741  0.9105  0.6651 -1.5072
  191DOPC  H15B23535   5.835   7.128   2.684  0.8722 -0.8917  2.1138
  191DOPC  H15C23536   5.755   7.084   2.821  1.6115 -1.0525 -0.9072
  191DOPC   C1123537   5.452   7.058   2.824  0.0172  0.1953  0.2613
  191DOPC  H11A23538   5.482   6.954   2.848  1.1086  0.3355 -0.4436
  191DOPC  H11B23539   5.526   7.117   2.881 -0.5300  2.5990 -1.3305
  191DOPC     P23540   5.273   7.218   2.924  0.0814  0.4231 -0.0098
  191DOPC   O1323541   5.128   7.225   2.914 -0.1430  0.0504  0.0130
  191DOPC   O1423542   5.333   7.329   2.850  0.1911  0.3577  0.4011
  191DOPC   O1223543   5.314   7.085   2.851  0.0104 -0.2243 -0.4607
  191DOPC   O1123544   5.323   7.204   3.073  0.2212 -0.0942 -0.4132
  191DOPC    C123545   5.275   7.099   3.159 -0.8028  0.0494  0.4106
  191DOPC    HA23546   5.326   7.101   3.258 -2.0251  0.3308  1.0564
  191DOPC    HB23547   5.303   6.999   3.120  2.0795  0.4077  1.3167
  191DOPC    C223548   5.125   7.102   3.200  0.2247 -0.8706  0.3189
  191DOPC    HS23549   5.066   7.078   3.109 -1.1610  0.6696  0.7695
  191DOPC   O2123550   5.085   7.229   3.254 -0.0812  0.0498 -0.0455
  191DOPC   C2123551   4.957   7.253   3.256  0.2854 -0.3874  0.5577
  191DOPC   O2223552   4.872   7.178   3.206  0.5638  0.3047 -0.0947
  191DOPC   C2223553   4.923   7.380   3.340 -0.0321 -0.2841  0.4167
  191DOPC   H2R23554   4.864   7.444   3.271  0.4274  0.3409  0.5914
  191DOPC   H2S23555   5.020   7.426   3.369  0.5097 -0.2911 -1.2708
  191DOPC    C323556   5.101   6.982   3.300  1.0044 -0.1527  0.0320
  191DOPC    HX23557   5.098   6.886   3.245 -1.4805  0.0957 -0.3765
  191DOPC    HY23558   4.996   6.978   3.337  1.0983  1.3796  0.5392
  191DOPC   O3123559   5.193   6.974   3.413  0.6253 -0.1509 -0.5978
  191DOPC   C3123560   5.145   6.927   3.532 -0.1688  0.8629  0.1224
  191DOPC   O3223561   5.042   6.862   3.544 -0.7061 -0.3778  0.0251
  191DOPC   C3223562   5.233   6.978   3.642  0.4711  0.0663  0.1714
  191DOPC   H2X23563   5.339   6.986   3.610  0.0089 -0.4258 -1.6020
  191DOPC   H2Y23564   5.203   7.084   3.659  0.1850 -0.1317  0.9231
  191DOPC   C2323565   4.848   7.337   3.467 -0.5687 -0.0718  0.2682
  191DOPC   H3R23566   4.757   7.278   3.441 -1.9538  1.1115  2.2143
  191DOPC   H3S23567   4.820   7.433   3.514 -0.6287 -0.1855  0.4642
  191DOPC   C2423568   4.929   7.253   3.561 -0.2433  0.3435  0.2754
  191DOPC   H4R23569   5.030   7.293   3.583  1.4320 -3.5407  0.3322
  191DOPC   H4S23570   4.942   7.153   3.514 -1.5052  0.1100  0.3697
  191DOPC   C2523571   4.852   7.224   3.691 -0.2472 -0.6386  0.2560
  191DOPC   H5R23572   4.748   7.200   3.660  0.3780 -1.2780 -1.4564
  191DOPC   H5S23573   4.853   7.308   3.764 -0.5139 -1.0825  0.7830
  191DOPC   C2623574   4.907   7.104   3.768 -0.0893  0.5520 -0.3839
  191DOPC   H6R23575   5.015   7.122   3.786 -0.5480  0.8031  2.6225
  191DOPC   H6S23576   4.875   7.009   3.719 -2.5766  0.2923  1.5548
  191DOPC   C2723577   4.844   7.088   3.910 -0.1513 -0.3150  0.3938
  191DOPC   H7R23578   4.735   7.107   3.904 -0.0839  0.2693  0.8934
  191DOPC   H7S23579   4.886   7.169   3.974 -2.1584  1.7887 -0.8237
  191DOPC   C2823580   4.881   6.954   3.968  0.1084 -0.4401  0.2229
  191DOPC   H8R23581   4.885   6.960   4.079  0.6263 -1.3941  0.2636
  191DOPC   H8S23582   4.989   6.945   3.944 -0.2451  1.3434 -2.4969
  191DOPC   C2923583   4.802   6.841   3.897  0.1057  0.1175  0.0041
  191DOPC   H9R23584   4.709   6.866   3.843  0.1978 -0.8203 -0.6056
  191DOPC  C21023585   4.840   6.712   3.900  0.7761  0.3132 -0.4971
  191DOPC  H10R23586   4.790   6.640   3.834  1.7540  2.2032 -3.5104
  191DOPC  C21123587   4.957   6.650   3.965  0.1617  0.2032 -0.7340
  191DOPC  H11R23588   5.037   6.724   3.988 -1.3114  1.7285 -0.2831
  191DOPC  H11S23589   5.017   6.594   3.890  2.5778  0.9217  0.5466
  191DOPC  C21223590   4.923   6.558   4.084 -0.3667  0.6237  0.5897
  191DOPC  H12R23591   5.004   6.483   4.099 -2.4701 -1.9894 -0.3142
  191DOPC  H12S23592   4.838   6.490   4.061 -0.4262  0.3011  1.6991
  191DOPC  C21323593   4.904   6.630   4.220 -1.0885 -0.1804 -0.3389
  191DOPC  H13R23594   4.895   6.556   4.303 -0.5875  1.1165  0.9033
  191DOPC  H13S23595   4.805   6.678   4.209  0.5557  3.6656  0.2148
  191DOPC  C21423596   5.008   6.737   4.271  0.0197  0.6936  0.7703
  191DOPC  H14R23597   5.026   6.818   4.197  1.6430 -0.7411 -0.5011
  191DOPC  H14S23598   5.111   6.693   4.275  0.1680  1.0817  1.2484
  191DOPC  C21523599   4.968   6.782   4.416 -0.3966  0.0232 -0.3528
  191DOPC  H15R23600   4.947   6.707   4.495 -2.1409  1.1756  0.3611
  191DOPC  H15S23601   4.871   6.838   4.412 -0.8083 -0.6027  0.6074
  191DOPC  C21623602   5.076   6.879   4.462 -0.4936 -0.7982  0.1265
  191DOPC  H16R23603   5.102   6.962   4.393  2.6966 -0.7507  1.1994
  191DOPC  H16S23604   5.164   6.811   4.462 -0.1748 -0.4821 -2.1591
  191DOPC  C21723605   5.048   6.937   4.599  0.0901  0.1910 -0.0687
  191DOPC  H17R23606   5.065   6.864   4.681 -1.0081 -0.2246 -0.2012
  191DOPC  H17S23607   4.941   6.962   4.615  0.5607  0.9522  2.2761
  191DOPC  C21823608   5.136   7.059   4.632 -0.5898  0.2279 -0.6270
  191DOPC  H18R23609   5.112   7.147   4.568 -1.1935 -0.4501 -1.3597
  191DOPC  H18S23610   5.245   7.042   4.619 -0.5167  2.3900 -4.1311
  191DOPC  H18T23611   5.121   7.081   4.740  3.4173 -0.0473  0.1388
  191DOPC   C3323612   5.223   6.895   3.771  0.0088 -0.3488 -0.0769
  191DOPC   H3X23613   5.273   6.798   3.751 -0.1189 -0.2445 -0.9315
  191DOPC   H3Y23614   5.118   6.869   3.799 -1.0412  1.5806 -1.9020
  191DOPC   C3423615   5.295   6.973   3.878  0.4510 -0.0363  0.0653
  191DOPC   H4X23616   5.242   7.071   3.883  1.6272  0.7093 -1.4228
  191DOPC   H4Y23617   5.399   7.002   3.857  0.4708  0.6929  1.0741
  191DOPC   C3523618   5.301   6.880   4.003  0.2053 -0.0405  0.1126
  191DOPC   H5X23619   5.363   6.796   3.966 -1.4116 -0.3921 -1.9871
  191DOPC   H5Y23620   5.203   6.834   4.031  1.7557 -1.9703  2.9789
  191DOPC   C3623621   5.360   6.941   4.126 -0.2653  0.5640  0.0251
  191DOPC   H6X23622   5.280   7.007   4.166  0.1082  0.0492  1.6939
  191DOPC   H6Y23623   5.373   6.858   4.198 -0.9831 -0.7491 -1.3075
  191DOPC   C3723624   5.493   7.018   4.102 -0.9113  0.0131  0.0952
  191DOPC   H7X23625   5.553   6.971   4.021  0.0754  2.2194 -0.5202
  191DOPC   H7Y23626   5.464   7.116   4.058 -1.8586  0.1225  0.9245
  191DOPC   C3823627   5.567   7.041   4.235  0.3124 -0.2517 -0.8575
  191DOPC   H8X23628   5.492   7.091   4.299 -0.3783 -1.2864 -0.8405
  191DOPC   H8Y23629   5.657   7.106   4.224  1.4169 -0.3132  4.7770
  191DOPC   C3923630   5.606   6.909   4.299 -0.5959  0.1759  0.3357
  191DOPC   H9X23631   5.637   6.830   4.229  2.4756  0.2545  1.4630
  191DOPC  C31023632   5.613   6.877   4.428 -0.0116  0.2541 -0.1278
  191DOPC  H10X23633   5.648   6.779   4.465 -0.2586 -0.0045 -0.5656
  191DOPC  C31123634   5.588   6.972   4.545  0.0493 -0.1683  0.0859
  191DOPC  H11X23635   5.489   6.952   4.591 -0.5364 -0.1848 -1.1411
  191DOPC  H11Y23636   5.579   7.080   4.520  1.3395  0.3150  1.6048
  191DOPC  C31223637   5.698   6.964   4.646 -0.4243  0.4074  0.1412
  191DOPC  H12X23638   5.794   6.971   4.592  0.4768 -2.2240  1.2207
  191DOPC  H12Y23639   5.716   6.866   4.694  1.6436  1.9518  2.7701
  191DOPC  C31323640   5.682   7.070   4.762 -0.0185 -0.2220 -0.1543
  191DOPC  H13X23641   5.673   7.178   4.736  0.8545  0.0917  0.7931
  191DOPC  H13Y23642   5.586   7.051   4.815  1.6500 -1.2351  2.7167
  191DOPC  C31423643   5.799   7.053   4.860 -0.6753  0.2340 -0.2294
  191DOPC  H14X23644   5.819   6.944   4.868  0.3901  0.3749 -0.8019
  191DOPC  H14Y23645   5.891   7.104   4.824 -0.3259 -1.8622 -2.5884
  191DOPC  C31523646   5.770   7.115   4.995 -0.3224  0.6494 -0.0504
  191DOPC  H15X23647   5.685   7.055   5.035  1.8705 -1.2264  2.0835
  191DOPC  H15Y23648   5.745   7.223   4.993  0.4627  0.8936  1.8294
  191DOPC  C31623649   5.885   7.091   5.097 -0.3479 -0.1816  0.1513
  191DOPC  H16X23650   5.844   7.081   5.200  1.5683  0.4882  1.0507
  191DOPC  H16Y23651   5.922   6.990   5.071  1.6332  0.7737 -1.0151
  191DOPC  C31723652   6.007   7.179   5.086  0.0133 -0.3403  0.8425
  191DOPC  H17X23653   6.041   7.187   4.981 -0.3581 -1.4076  0.6242
  191DOPC  H17Y23654   5.975   7.279   5.120 -2.0339 -0.7105  0.1235
  191DOPC  C31823655   6.129   7.126   5.161 -0.1617 -0.1347 -0.0423
  191DOPC  H18X23656   6.208   7.204   5.166  0.7263 -0.7865 -2.3578
  191DOPC  H18Y23657   6.090   7.103   5.262  1.5041 -0.5430  0.5387
  191DOPC  H18Z23658   6.168   7.030   5.120 -0.8425 -0.9771  1.1968
  192DOPC     N23659   6.890   4.739   2.761 -0.1281  0.7064  0.4145
  192DOPC   C1223660   7.006   4.705   2.860  0.1362 -0.2079 -0.5078
  192DOPC  H12A23661   7.076   4.645   2.804  0.9918  0.7590 -0.5009
  192DOPC  H12B23662   6.960   4.637   2.931  1.5826 -1.0854 -0.3591
  192DOPC   C1323663   6.833   4.598   2.735 -0.0672  0.0497 -0.4248
  192DOPC  H13A23664   6.752   4.594   2.664 -0.3456  0.2796 -0.1250
  192DOPC  H13B23665   6.908   4.532   2.695  1.3822  1.3924 -0.0124
  192DOPC  H13C23666   6.810   4.555   2.831  1.5774  1.0377  0.4609
  192DOPC   C1423667   6.940   4.792   2.631 -0.2910  0.5432 -1.1992
  192DOPC  H14A23668   6.862   4.831   2.567 -0.4780  1.3600 -0.4942
  192DOPC  H14B23669   7.008   4.872   2.655  1.7204 -1.5973  0.6431
  192DOPC  H14C23670   6.993   4.717   2.574 -2.2331 -0.9282 -1.1625
  192DOPC   C1523671   6.782   4.829   2.813 -0.1098  0.0668  0.2028
  192DOPC  H15A23672   6.826   4.909   2.871  1.4296 -0.3135 -0.4062
  192DOPC  H15B23673   6.715   4.772   2.876 -1.3786  0.2569 -0.9233
  192DOPC  H15C23674   6.718   4.871   2.737 -2.2162  3.3649  3.4290
  192DOPC   C1123675   7.074   4.826   2.934 -0.1104  0.3805 -0.7568
  192DOPC  H11A23676   7.005   4.884   2.998  0.3579 -1.0167  1.1267
  192DOPC  H11B23677   7.153   4.787   3.002 -0.3134  2.0073  0.4771
  192DOPC     P23678   7.277   4.898   2.798  0.2265 -0.1139 -0.1702
  192DOPC   O1323679   7.306   4.982   2.683 -0.3512  0.5651  0.1245
  192DOPC   O1423680   7.306   4.758   2.786  0.1890  0.1914 -0.1082
  192DOPC   O1223681   7.125   4.914   2.837 -0.3266  0.2613 -0.0318
  192DOPC   O1123682   7.348   4.963   2.919  0.6785 -0.1523  0.1725
  192DOPC    C123683   7.279   5.061   3.009  0.6487  0.3752  0.3970
  192DOPC    HA23684   7.195   5.009   3.060  0.7877  0.4159  0.6676
  192DOPC    HB23685   7.249   5.151   2.951 -2.8342  0.6471  2.3366
  192DOPC    C223686   7.379   5.101   3.123  0.2516  0.9677 -0.3301
  192DOPC    HS23687   7.461   5.147   3.065 -0.4177 -0.5083 -2.5750
  192DOPC   O2123688   7.415   4.981   3.193 -0.6543  0.5523 -0.2562
  192DOPC   C2123689   7.543   4.990   3.243 -0.0650  0.6519 -0.2772
  192DOPC   O2223690   7.621   5.075   3.205 -0.6160  0.6464  0.0398
  192DOPC   C2223691   7.588   4.863   3.328  0.6591  0.1958 -0.6197
  192DOPC   H2R23692   7.629   4.791   3.254  0.2591 -1.3122  0.5669
  192DOPC   H2S23693   7.495   4.815   3.366 -0.2988  3.1211  1.0674
  192DOPC    C323694   7.314   5.205   3.223  0.0059  0.0563 -0.2463
  192DOPC    HX23695   7.231   5.154   3.277  0.7011 -0.6019  0.2182
  192DOPC    HY23696   7.276   5.296   3.172 -0.7605  0.8881  1.6925
  192DOPC   O3123697   7.395   5.240   3.336 -0.7592  0.3609  0.4430
  192DOPC   C3123698   7.475   5.350   3.307 -0.1039  0.1532 -0.7404
  192DOPC   O3223699   7.478   5.420   3.209 -0.2597  0.0564  0.2132
  192DOPC   C3223700   7.558   5.383   3.425  0.4342 -0.0434 -0.8086
  192DOPC   H2X23701   7.501   5.369   3.520  3.0896  2.2780  1.2893
  192DOPC   H2Y23702   7.634   5.304   3.441 -0.5385 -0.6893  1.0127
  192DOPC   C2323703   7.674   4.887   3.459  0.5916 -0.4464  0.0108
  192DOPC   H3R23704   7.772   4.925   3.426  0.1488 -0.3726 -1.2731
  192DOPC   H3S23705   7.685   4.793   3.518  2.0146 -0.7505 -0.6949
  192DOPC   C2423706   7.605   4.975   3.566  0.0614 -0.0311  0.3975
  192DOPC   H4R23707   7.514   4.921   3.600 -0.9836  1.3267 -0.1992
  192DOPC   H4S23708   7.573   5.072   3.523 -2.7254  0.5780  3.4176
  192DOPC   C2523709   7.687   5.005   3.697  0.4190  0.2079  0.8420
  192DOPC   H5R23710   7.784   5.048   3.664  1.6942 -2.7722  0.3640
  192DOPC   H5S23711   7.719   4.910   3.747  2.7175  0.0115 -0.8203
  192DOPC   C2623712   7.608   5.091   3.799 -0.1048  0.1173 -0.5345
  192DOPC   H6R23713   7.519   5.032   3.829 -1.1086  1.7527 -0.1745
  192DOPC   H6S23714   7.556   5.177   3.752 -3.7769 -1.0016  1.1398
  192DOPC   C2723715   7.684   5.104   3.931  0.5869 -0.6394  0.8156
  192DOPC   H7R23716   7.699   5.003   3.974 -2.0183 -2.0878 -1.3902
  192DOPC   H7S23717   7.612   5.157   3.996 -0.7547 -0.8960 -0.4188
  192DOPC   C2823718   7.819   5.175   3.923 -0.4264  0.4631 -0.5548
  192DOPC   H8R23719   7.792   5.277   3.888 -1.0419  0.1944 -0.8751
  192DOPC   H8S23720   7.899   5.133   3.859  1.5101  2.9553  0.0375
  192DOPC   C2923721   7.895   5.189   4.048  0.1694  0.6165 -0.3551
  192DOPC   H9R23722   7.944   5.100   4.089  0.1910  1.3367  1.2489
  192DOPC  C21023723   7.888   5.295   4.134 -0.0865 -0.0058  0.5120
  192DOPC  H10R23724   7.932   5.284   4.234  0.3691 -2.3005  0.1280
  192DOPC  C21123725   7.836   5.435   4.110 -0.4586  0.3140  0.4293
  192DOPC  H11R23726   7.820   5.463   4.004 -0.3387 -2.6030 -0.4502
  192DOPC  H11S23727   7.912   5.504   4.153  1.2335 -0.5024 -1.1318
  192DOPC  C21223728   7.712   5.472   4.192  0.3530 -0.0545  0.1101
  192DOPC  H12R23729   7.624   5.409   4.165 -0.9427  1.6611  0.1493
  192DOPC  H12S23730   7.682   5.574   4.160 -1.4351 -1.0877 -1.7838
  192DOPC  C21323731   7.738   5.472   4.344  0.9258 -0.3148 -0.4347
  192DOPC  H13R23732   7.830   5.526   4.373 -0.3055  0.0940  3.1285
  192DOPC  H13S23733   7.751   5.365   4.371  1.5608 -0.5704 -1.6432
  192DOPC  C21423734   7.616   5.529   4.415 -0.2077  0.2489  0.4173
  192DOPC  H14R23735   7.532   5.463   4.384 -0.1917 -0.5125  1.9100
  192DOPC  H14S23736   7.586   5.631   4.381  2.0852  0.5011 -1.0799
  192DOPC  C21523737   7.630   5.505   4.566  0.4537  0.8696  0.3787
  192DOPC  H15R23738   7.707   5.578   4.602 -0.6801  1.7921  0.9912
  192DOPC  H15S23739   7.654   5.401   4.595  0.3642  0.1691 -1.8909
  192DOPC  C21623740   7.511   5.546   4.646  0.2681 -0.4068 -0.1061
  192DOPC  H16R23741   7.493   5.650   4.613  0.1125 -0.4916 -0.2921
  192DOPC  H16S23742   7.542   5.544   4.753  0.5486 -0.4521 -0.1888
  192DOPC  C21723743   7.385   5.468   4.619  0.2209  0.1574  0.0894
  192DOPC  H17R23744   7.399   5.366   4.661  0.3104  0.2893  0.3818
  192DOPC  H17S23745   7.372   5.450   4.510 -0.9615 -0.4544  0.3161
  192DOPC  C21823746   7.257   5.525   4.666  0.2882 -0.0647 -0.9273
  192DOPC  H18R23747   7.236   5.615   4.605  1.2269 -0.3355 -1.6720
  192DOPC  H18S23748   7.263   5.557   4.773  1.7122 -0.2184 -0.9421
  192DOPC  H18T23749   7.181   5.444   4.657  0.0290 -0.1335  1.3099
  192DOPC   C3323750   7.607   5.521   3.434 -0.6372  0.1030 -0.1915
  192DOPC   H3X23751   7.531   5.600   3.450 -0.2926  0.6330 -1.1257
  192DOPC   H3Y23752   7.641   5.545   3.331 -2.1530 -2.1038 -1.2770
  192DOPC   C3423753   7.722   5.544   3.533 -0.3597  0.1963  0.5542
  192DOPC   H4X23754   7.751   5.650   3.550 -0.3071  0.3804 -0.6025
  192DOPC   H4Y23755   7.811   5.489   3.497 -0.6655 -0.6662  1.1054
  192DOPC   C3523756   7.688   5.493   3.678 -0.4489 -0.4004 -0.0716
  192DOPC   H5X23757   7.774   5.521   3.743 -1.2729 -0.3407  1.0122
  192DOPC   H5Y23758   7.690   5.384   3.656  0.5242 -0.0403 -2.0209
  192DOPC   C3623759   7.559   5.542   3.749  0.6794 -0.2821 -0.4480
  192DOPC   H6X23760   7.490   5.533   3.662  1.6426  0.4948 -1.3240
  192DOPC   H6Y23761   7.524   5.455   3.808 -2.9455 -1.9472 -4.4864
  192DOPC   C3723762   7.566   5.681   3.814  0.3313 -0.2448 -0.8790
  192DOPC   H7X23763   7.637   5.680   3.900 -0.0088  3.8361 -0.3828
  192DOPC   H7Y23764   7.602   5.755   3.739  0.3850  0.0815 -0.5347
  192DOPC   C3823765   7.429   5.726   3.857 -0.4143 -0.8537  0.0462
  192DOPC   H8X23766   7.380   5.749   3.761 -0.5920  1.5459  0.6457
  192DOPC   H8Y23767   7.434   5.832   3.892 -2.0486 -0.6794 -0.1736
  192DOPC   C3923768   7.356   5.636   3.942 -0.5773 -0.1282  0.4333
  192DOPC   H9X23769   7.333   5.546   3.883  1.2208  1.0881 -2.3368
  192DOPC  C31023770   7.329   5.633   4.074 -0.0348  0.3987 -1.1318
  192DOPC  H10X23771   7.272   5.554   4.125  0.8070  0.3651 -0.2188
  192DOPC  C31123772   7.370   5.749   4.173  0.0545  0.0199  0.2562
  192DOPC  H11X23773   7.406   5.842   4.123 -2.4671  0.5719 -0.6951
  192DOPC  H11Y23774   7.448   5.708   4.241  0.9358  1.0186 -0.1163
  192DOPC  C31223775   7.246   5.798   4.258 -0.1258 -0.0021 -0.6181
  192DOPC  H12X23776   7.203   5.705   4.300 -0.6344 -0.4016 -1.9650
  192DOPC  H12Y23777   7.167   5.858   4.208 -0.2759 -1.3761 -2.1059
  192DOPC  C31323778   7.296   5.872   4.384 -0.1946 -0.2971 -0.1726
  192DOPC  H13X23779   7.366   5.813   4.447  1.0037  2.4455  1.2673
  192DOPC  H13Y23780   7.363   5.950   4.342  2.9250 -1.8558  1.5269
  192DOPC  C31423781   7.180   5.925   4.474  0.1895  0.3212  0.4719
  192DOPC  H14X23782   7.110   5.989   4.417  0.6455  2.5962  2.3311
  192DOPC  H14Y23783   7.136   5.835   4.522  0.5689  0.2872  0.7593
  192DOPC  C31523784   7.237   6.017   4.584 -0.0937 -0.0639  1.1430
  192DOPC  H15X23785   7.159   6.081   4.628  2.4030  0.4387  5.3752
  192DOPC  H15Y23786   7.321   6.072   4.537 -0.5923 -0.8085 -0.7073
  192DOPC  C31623787   7.287   5.941   4.709 -0.7471 -0.2267 -0.0187
  192DOPC  H16X23788   7.207   5.886   4.763 -1.4826  0.3650 -0.4847
  192DOPC  H16Y23789   7.350   5.860   4.665  0.1857 -0.2054  1.2099
  192DOPC  C31723790   7.373   6.035   4.798  0.2590  0.4567  0.2560
  192DOPC  H17X23791   7.455   6.058   4.726  0.1113  0.2879  0.0317
  192DOPC  H17Y23792   7.318   6.129   4.820  0.4816  0.5552  0.3933
  192DOPC  C31823793   7.423   5.986   4.934  0.1034  0.8955 -0.2201
  192DOPC  H18X23794   7.456   5.880   4.922  2.5108  1.8421 -3.2595
  192DOPC  H18Y23795   7.509   6.046   4.968  0.0729  1.2496 -0.7439
  192DOPC  H18Z23796   7.344   5.982   5.012 -1.7299 -0.3478 -2.0217
  193DOPC     N23797   6.098   1.627   2.770 -0.2881  0.1300 -0.1613
  193DOPC   C1223798   6.244   1.587   2.793  0.1787  1.0007 -0.1029
  193DOPC  H12A23799   6.314   1.660   2.754  0.7537  0.9663  0.8225
  193DOPC  H12B23800   6.278   1.507   2.728  4.1362  2.0882  0.3296
  193DOPC   C1323801   6.056   1.724   2.870  0.0351 -0.1940 -0.1631
  193DOPC  H13A23802   6.112   1.815   2.851  2.3074 -1.0974  1.7858
  193DOPC  H13B23803   5.950   1.741   2.861 -0.1707 -0.7962  0.9447
  193DOPC  H13C23804   6.061   1.688   2.971 -0.9573 -1.5915 -0.5764
  193DOPC   C1423805   6.010   1.506   2.782 -0.7639 -0.0289 -0.4919
  193DOPC  H14A23806   5.925   1.526   2.719 -0.5118  0.1193 -0.7866
  193DOPC  H14B23807   6.065   1.418   2.752  0.3852  0.0257  1.3030
  193DOPC  H14C23808   5.967   1.497   2.881  1.5742 -0.6350  0.5613
  193DOPC   C1523809   6.086   1.685   2.629 -0.5219  0.3718 -0.1896
  193DOPC  H15A23810   5.988   1.723   2.605  0.1261  0.7838 -2.4647
  193DOPC  H15B23811   6.118   1.616   2.553  1.9810  1.7006 -0.4618
  193DOPC  H15C23812   6.147   1.774   2.621 -0.1416  0.0645 -0.7770
  193DOPC   C1123813   6.268   1.534   2.936 -0.6550 -0.1851 -0.4055
  193DOPC  H11A23814   6.258   1.616   3.010  0.4834 -0.5861  0.2278
  193DOPC  H11B23815   6.189   1.460   2.960 -0.6901  0.1259  0.4611
  193DOPC     P23816   6.530   1.526   2.973 -0.4229  0.0345  0.1726
  193DOPC   O1323817   6.528   1.675   2.959 -0.3120 -0.3618  0.2694
  193DOPC   O1423818   6.624   1.460   2.885  0.4983  0.3242  0.2897
  193DOPC   O1223819   6.393   1.464   2.941 -0.7307 -0.2190  0.4592
  193DOPC   O1123820   6.550   1.491   3.124 -0.0050 -0.1007  0.1302
  193DOPC    C123821   6.653   1.537   3.207 -0.6214 -0.0191 -0.3196
  193DOPC    HA23822   6.613   1.605   3.285 -0.3381  0.8688 -0.9193
  193DOPC    HB23823   6.727   1.601   3.153  0.2728 -1.4472 -0.8638
  193DOPC    C223824   6.729   1.412   3.258  0.0633  0.1232 -0.6763
  193DOPC    HS23825   6.747   1.343   3.173  0.9036  0.2641 -0.6173
  193DOPC   O2123826   6.650   1.350   3.365  0.3628  0.4710  0.4724
  193DOPC   C2123827   6.588   1.236   3.330 -0.1489 -0.4051  0.5047
  193DOPC   O2223828   6.624   1.175   3.231  0.0703 -0.7393 -0.1390
  193DOPC   C2223829   6.478   1.198   3.429  0.7249 -0.1290  0.0481
  193DOPC   H2R23830   6.408   1.122   3.389 -1.9833  1.3312  1.6997
  193DOPC   H2S23831   6.421   1.293   3.438  0.3862 -0.2964 -0.2778
  193DOPC    C323832   6.873   1.456   3.312 -0.2140  0.0136  0.1225
  193DOPC    HX23833   6.937   1.491   3.229  1.0156  0.8256  1.3620
  193DOPC    HY23834   6.913   1.362   3.357 -1.2974 -1.5392 -1.9528
  193DOPC   O3123835   6.865   1.556   3.410 -0.0702 -0.2410  0.1388
  193DOPC   C3123836   6.991   1.590   3.456  0.0325  0.3089 -0.1382
  193DOPC   O3223837   7.093   1.546   3.409  0.2519 -0.4774  0.0031
  193DOPC   C3223838   6.979   1.674   3.586  0.2445  0.6798 -0.0132
  193DOPC   H2X23839   6.985   1.779   3.551  1.8484  0.2437 -1.1623
  193DOPC   H2Y23840   6.881   1.652   3.634  0.3327  3.4100  1.6066
  193DOPC   C2323841   6.531   1.159   3.565  0.2935  0.2840  0.2480
  193DOPC   H3R23842   6.568   1.246   3.623  1.3378 -1.6430  2.6333
  193DOPC   H3S23843   6.621   1.094   3.554 -0.9025 -2.0582  3.0382
  193DOPC   C2423844   6.435   1.061   3.636 -0.0614 -0.3751 -0.5222
  193DOPC   H4R23845   6.333   1.091   3.604  0.5228  1.0407 -1.1320
  193DOPC   H4S23846   6.437   1.063   3.747 -0.3715 -0.1697 -0.5197
  193DOPC   C2523847   6.468   0.912   3.593  0.1421  0.2323 -0.2883
  193DOPC   H5R23848   6.573   0.888   3.623 -0.8399 -0.4474  3.0284
  193DOPC   H5S23849   6.472   0.902   3.482  1.5992 -1.3345 -0.1397
  193DOPC   C2623850   6.363   0.818   3.653  0.1105  0.1148  0.3865
  193DOPC   H6R23851   6.368   0.820   3.764 -3.8762  0.1899  0.6949
  193DOPC   H6S23852   6.391   0.717   3.615 -0.0829 -0.2979  1.2936
  193DOPC   C2723853   6.219   0.840   3.606  0.3528  0.0873 -0.7415
  193DOPC   H7R23854   6.230   0.838   3.495 -1.7349 -1.7103 -0.9850
  193DOPC   H7S23855   6.182   0.939   3.640 -0.9846 -0.6739  0.1112
  193DOPC   C2823856   6.113   0.734   3.649  0.2593  0.1847  0.1097
  193DOPC   H8R23857   6.010   0.770   3.624  0.6008  0.7256 -0.5530
  193DOPC   H8S23858   6.125   0.727   3.759  0.0550 -0.1769  0.1110
  193DOPC   C2923859   6.140   0.596   3.597 -0.3314 -0.2278 -0.0616
  193DOPC   H9R23860   6.148   0.583   3.488 -0.1852  0.5267 -0.1503
  193DOPC  C21023861   6.164   0.491   3.670  0.3529 -0.0493 -0.9971
  193DOPC  H10R23862   6.200   0.399   3.623  2.0370  0.3929 -0.6430
  193DOPC  C21123863   6.169   0.493   3.828 -0.4988  0.0786  0.1122
  193DOPC  H11R23864   6.225   0.580   3.869 -0.5797  0.5303 -0.7113
  193DOPC  H11S23865   6.219   0.402   3.868  1.2061  1.3745  1.1092
  193DOPC  C21223866   6.025   0.488   3.875 -0.5854  0.1069 -0.0435
  193DOPC  H12R23867   5.971   0.399   3.837  2.4376 -1.3073 -1.3128
  193DOPC  H12S23868   5.972   0.581   3.846 -0.0789 -0.6147 -3.7819
  193DOPC  C21323869   6.009   0.490   4.029 -0.5997 -0.0076  0.1184
  193DOPC  H13R23870   6.037   0.594   4.059 -0.6464 -0.1670  0.7145
  193DOPC  H13S23871   6.067   0.418   4.089  1.1229  1.7825  0.7275
  193DOPC  C21423872   5.864   0.454   4.072 -0.1734  0.4384 -0.1206
  193DOPC  H14R23873   5.837   0.351   4.039  1.5981 -0.6334  1.5619
  193DOPC  H14S23874   5.792   0.527   4.030 -0.2170 -0.3444 -1.4515
  193DOPC  C21523875   5.849   0.473   4.227  0.3744  0.4505 -0.5295
  193DOPC  H15R23876   5.893   0.564   4.272 -1.6594  0.1361  2.3963
  193DOPC  H15S23877   5.911   0.388   4.264  0.0541  0.2101 -0.5366
  193DOPC  C21623878   5.703   0.458   4.287 -0.3000 -0.0824  0.9103
  193DOPC  H16R23879   5.666   0.357   4.261 -0.5917  0.6776 -1.8792
  193DOPC  H16S23880   5.642   0.533   4.233  0.1369 -0.8205 -0.6499
  193DOPC  C21723881   5.693   0.484   4.434  0.1002  0.6321 -0.1336
  193DOPC  H17R23882   5.787   0.449   4.482  0.8030  0.1783 -1.7585
  193DOPC  H17S23883   5.621   0.419   4.487  0.3646 -0.1467 -0.7028
  193DOPC  C21823884   5.662   0.621   4.477  0.3375 -0.4350  0.8841
  193DOPC  H18R23885   5.599   0.672   4.402 -1.4784 -3.3275  0.2527
  193DOPC  H18S23886   5.755   0.681   4.482 -0.9695  1.6712  1.2932
  193DOPC  H18T23887   5.616   0.620   4.578  0.8021 -2.8750  1.1375
  193DOPC   C3323888   7.106   1.644   3.674 -0.1854 -0.3595  0.2795
  193DOPC   H3X23889   7.190   1.683   3.613 -0.8958 -0.3687 -0.7461
  193DOPC   H3Y23890   7.120   1.534   3.680  1.4342 -0.1774  0.1406
  193DOPC   C3423891   7.100   1.705   3.811 -0.4206 -0.3568 -0.0551
  193DOPC   H4X23892   7.011   1.663   3.862  0.3823 -1.0527  0.7858
  193DOPC   H4Y23893   7.090   1.816   3.804 -0.8957 -0.4632 -1.4137
  193DOPC   C3523894   7.224   1.680   3.889 -0.3340  0.5647 -0.4658
  193DOPC   H5X23895   7.321   1.678   3.834 -0.1143 -0.7238 -0.0632
  193DOPC   H5Y23896   7.224   1.574   3.924 -1.0414  1.3270  2.0115
  193DOPC   C3623897   7.262   1.771   4.004 -0.7777 -0.8693 -0.4073
  193DOPC   H6X23898   7.371   1.772   4.023 -1.1942  1.7896  2.6074
  193DOPC   H6Y23899   7.242   1.878   3.984  3.7762  0.3222  0.3088
  193DOPC   C3723900   7.227   1.715   4.150  0.1780  0.7283  0.4158
  193DOPC   H7X23901   7.118   1.697   4.163  0.1712 -1.6034 -1.9786
  193DOPC   H7Y23902   7.271   1.613   4.149 -1.5764 -0.0982 -1.5241
  193DOPC   C3823903   7.286   1.796   4.270  0.0743  0.8490  0.1286
  193DOPC   H8X23904   7.396   1.785   4.285 -0.2462 -1.6300  1.0735
  193DOPC   H8Y23905   7.269   1.731   4.359  2.9474 -0.3669 -0.0907
  193DOPC   C3923906   7.232   1.932   4.300 -0.1391 -0.5862 -0.6970
  193DOPC   H9X23907   7.128   1.948   4.266 -0.2490 -1.2974 -0.7257
  193DOPC  C31023908   7.309   2.034   4.347  0.1495 -0.0790  0.5867
  193DOPC  H10X23909   7.256   2.130   4.362  0.7459  0.0290  2.2154
  193DOPC  C31123910   7.460   2.039   4.377 -0.4856  0.7502  1.0475
  193DOPC  H11X23911   7.517   2.083   4.292 -0.2106  0.7748  1.2419
  193DOPC  H11Y23912   7.491   1.932   4.380 -1.4911  0.3448 -0.9964
  193DOPC  C31223913   7.501   2.125   4.493 -0.1005 -0.2690 -0.7124
  193DOPC  H12X23914   7.455   2.081   4.584 -0.9108  0.8871 -0.5432
  193DOPC  H12Y23915   7.467   2.230   4.491  1.7451  0.5058  2.5400
  193DOPC  C31323916   7.657   2.124   4.514 -0.0659  0.2750 -0.8634
  193DOPC  H13X23917   7.662   2.161   4.619  0.9535 -3.1184  0.4146
  193DOPC  H13Y23918   7.706   2.025   4.511 -0.2287  0.2207 -2.2126
  193DOPC  C31423919   7.733   2.230   4.439 -0.6924 -0.3215  0.4147
  193DOPC  H14X23920   7.721   2.210   4.330  0.6748  0.8785  0.0247
  193DOPC  H14Y23921   7.690   2.332   4.456 -1.3052 -0.2532 -1.3681
  193DOPC  C31523922   7.875   2.237   4.493  0.1546  0.0505  0.4548
  193DOPC  H15X23923   7.928   2.140   4.476  1.3161  1.0126 -1.9426
  193DOPC  H15Y23924   7.877   2.253   4.603  1.4163  0.5917  0.3672
  193DOPC  C31623925   7.971   2.340   4.423  0.4779  0.1189 -0.3290
  193DOPC  H16X23926   8.058   2.343   4.492 -0.0479 -1.6472  0.4923
  193DOPC  H16Y23927   8.001   2.302   4.323  0.7385  1.7286 -0.8892
  193DOPC  C31723928   7.917   2.482   4.410  0.3471  0.0312  0.1417
  193DOPC  H17X23929   7.985   2.541   4.346 -0.4140  0.6488 -0.1109
  193DOPC  H17Y23930   7.822   2.477   4.353 -0.0465 -0.0515  0.7906
  193DOPC  C31823931   7.888   2.549   4.542  0.0683 -0.2221 -0.3409
  193DOPC  H18X23932   7.798   2.513   4.596  1.2412 -1.2798  0.9825
  193DOPC  H18Y23933   7.970   2.529   4.614 -0.6953  0.3965  0.7146
  193DOPC  H18Z23934   7.887   2.660   4.539 -2.7474 -0.1953 -0.2809
  194DOPC     N23935   0.685   7.174   2.365 -0.0749 -0.9704 -0.0916
  194DOPC   C1223936   0.747   7.251   2.479 -0.3984  0.0972  0.3908
  194DOPC  H12A23937   0.693   7.344   2.476 -1.3080 -0.4319 -0.4906
  194DOPC  H12B23938   0.851   7.265   2.454 -0.3851  1.1409  0.9923
  194DOPC   C1323939   0.720   7.238   2.227  0.2773 -0.1477 -0.5446
  194DOPC  H13A23940   0.662   7.191   2.150  1.6449 -1.0525 -1.0613
  194DOPC  H13B23941   0.704   7.345   2.232  1.6611  0.0714 -0.2497
  194DOPC  H13C23942   0.822   7.218   2.197  0.5329  0.9433 -0.4775
  194DOPC   C1423943   0.531   7.189   2.387 -0.1769 -0.1200  0.0601
  194DOPC  H14A23944   0.471   7.115   2.335  0.4354 -0.9337  0.4787
  194DOPC  H14B23945   0.511   7.156   2.488  0.4203 -0.5300  0.0514
  194DOPC  H14C23946   0.490   7.287   2.365 -1.2074 -1.0277 -2.5167
  194DOPC   C1523947   0.730   7.030   2.361  0.4001  0.3294  0.3696
  194DOPC  H15A23948   0.695   6.968   2.442 -0.8065  0.2156 -0.2186
  194DOPC  H15B23949   0.836   7.023   2.343 -0.0382 -0.6923 -2.1849
  194DOPC  H15C23950   0.675   6.990   2.277  1.6520 -0.6604 -0.0030
  194DOPC   C1123951   0.750   7.186   2.611 -0.7463  0.8704  0.3680
  194DOPC  H11A23952   0.788   7.081   2.621 -0.3074  1.0108  0.2138
  194DOPC  H11B23953   0.815   7.248   2.677 -0.3139 -0.5996  1.4029
  194DOPC     P23954   0.553   7.329   2.721 -0.0346  0.2199  0.3059
  194DOPC   O1323955   0.407   7.319   2.700  0.1029  0.1659  0.6851
  194DOPC   O1423956   0.625   7.450   2.670  0.3955  0.2638 -0.3439
  194DOPC   O1223957   0.621   7.195   2.674 -0.3011  0.1919  1.0477
  194DOPC   O1123958   0.578   7.322   2.877 -0.2989 -0.3779  0.1073
  194DOPC    C123959   0.539   7.209   2.950  1.1771 -0.0055 -0.4656
  194DOPC    HA23960   0.629   7.176   3.007  0.2813 -0.5214  0.6979
  194DOPC    HB23961   0.514   7.122   2.885 -0.2720  0.3535 -0.4269
  194DOPC    C223962   0.421   7.250   3.041  0.4272 -0.3973 -0.2242
  194DOPC    HS23963   0.336   7.275   2.975  0.7019  3.3526  0.6032
  194DOPC   O2123964   0.458   7.361   3.127 -0.0080  0.9027 -0.4494
  194DOPC   C2123965   0.362   7.417   3.190 -0.1096 -0.5095  0.2513
  194DOPC   O2223966   0.247   7.422   3.156 -0.0877 -0.1130  0.5007
  194DOPC   C2223967   0.422   7.505   3.305  0.2649 -0.2327  0.0987
  194DOPC   H2R23968   0.332   7.556   3.345  0.6483 -0.1470  0.8704
  194DOPC   H2S23969   0.494   7.577   3.260 -0.3493  0.2581 -0.1156
  194DOPC    C323970   0.376   7.127   3.131  0.4061 -0.5348 -0.3487
  194DOPC    HX23971   0.348   7.049   3.057  1.7017 -0.8249 -0.5545
  194DOPC    HY23972   0.282   7.152   3.186  1.2887 -2.7703  2.4314
  194DOPC   O3123973   0.462   7.091   3.236 -0.6470 -0.4430 -0.3771
  194DOPC   C3123974   0.537   6.983   3.221  0.0122 -0.0363 -0.5100
  194DOPC   O3223975   0.530   6.898   3.136  0.0012  0.4492  0.0154
  194DOPC   C3223976   0.632   6.983   3.335 -0.7233  0.4431 -0.6665
  194DOPC   H2X23977   0.689   7.079   3.327 -1.8745  1.2614  0.4194
  194DOPC   H2Y23978   0.588   6.992   3.437  0.3050 -1.5106 -0.0027
  194DOPC   C2323979   0.506   7.413   3.400  0.9563  0.0887 -0.5004
  194DOPC   H3R23980   0.573   7.486   3.451 -0.6002  1.2228  0.0059
  194DOPC   H3S23981   0.573   7.350   3.338 -2.0883 -1.6264 -2.3126
  194DOPC   C2423982   0.408   7.328   3.484  0.2226  0.9736 -0.7509
  194DOPC   H4R23983   0.365   7.252   3.415 -2.1611  2.5571 -1.1564
  194DOPC   H4S23984   0.337   7.400   3.531  0.1853  0.1688  0.4581
  194DOPC   C2523985   0.480   7.275   3.611 -0.0963 -0.7157  0.6490
  194DOPC   H5R23986   0.515   7.367   3.663 -2.6244  0.1608  0.9870
  194DOPC   H5S23987   0.569   7.228   3.565  1.4362  2.4034  0.1855
  194DOPC   C2623988   0.387   7.191   3.698 -0.3227  0.1805  0.3226
  194DOPC   H6R23989   0.447   7.133   3.771  2.4861  4.6204  1.9155
  194DOPC   H6S23990   0.342   7.126   3.620  1.8303 -0.7727 -0.1927
  194DOPC   C2723991   0.281   7.267   3.777  0.0544 -0.1860 -0.0117
  194DOPC   H7R23992   0.210   7.317   3.707  1.6995 -0.4662 -1.9724
  194DOPC   H7S23993   0.329   7.347   3.838 -0.1986  0.3734 -0.5303
  194DOPC   C2823994   0.197   7.181   3.876  0.3248 -0.3084  1.1106
  194DOPC   H8R23995   0.275   7.136   3.941  0.1336 -1.1359  0.7919
  194DOPC   H8S23996   0.148   7.096   3.823  0.3052  0.4689 -0.1586
  194DOPC   C2923997   0.095   7.267   3.954  0.1196  0.1597  1.3246
  194DOPC   H9R23998   0.014   7.318   3.899  0.3422  0.3882  1.2074
  194DOPC  C21023999   0.087   7.284   4.087  0.1212 -0.4889  0.4050
  194DOPC  H10R24000   0.009   7.343   4.137  1.1224  0.7008  0.5825
  194DOPC  C21124001   0.188   7.226   4.185  0.2585  0.4501 -0.5725
  194DOPC  H11R24002   0.269   7.165   4.141 -1.3061 -0.9427 -1.6457
  194DOPC  H11S24003   0.142   7.152   4.254  0.2093  0.1524 -0.9248
  194DOPC  C21224004   0.250   7.335   4.271 -0.2703 -0.2665  0.2327
  194DOPC  H12R24005   0.287   7.409   4.197  0.3748 -0.8741 -0.0607
  194DOPC  H12S24006   0.345   7.294   4.311 -0.6098 -0.7989  0.5002
  194DOPC  C21324007   0.172   7.397   4.383 -0.9764  0.4664  0.2996
  194DOPC  H13R24008   0.144   7.317   4.455  1.6059 -0.3319  0.5019
  194DOPC  H13S24009   0.078   7.442   4.343 -1.5884 -0.3537  0.7755
  194DOPC  C21424010   0.245   7.514   4.448 -0.7015 -0.2478 -0.7132
  194DOPC  H14R24011   0.262   7.595   4.374  2.6763  0.3890  0.5649
  194DOPC  H14S24012   0.341   7.468   4.480 -0.7421 -0.1318 -0.4226
  194DOPC  C21524013   0.174   7.576   4.568  0.8897  0.3566 -0.6112
  194DOPC  H15R24014   0.063   7.573   4.553  0.6409  0.3690  1.1076
  194DOPC  H15S24015   0.208   7.679   4.592  0.1602 -0.1727  3.4214
  194DOPC  C21624016   0.183   7.488   4.694 -0.3747 -0.8710 -0.7094
  194DOPC  H16R24017   0.287   7.461   4.722 -0.7394 -0.7239  0.8876
  194DOPC  H16S24018   0.142   7.388   4.669 -0.6108 -0.7398 -0.8450
  194DOPC  C21724019   0.115   7.543   4.826  0.1759  0.3564  0.3260
  194DOPC  H17R24020   0.007   7.539   4.799  0.2003 -3.0763  0.2712
  194DOPC  H17S24021   0.148   7.643   4.860  0.0266  0.8569 -0.9565
  194DOPC  C21824022   0.130   7.445   4.945 -0.7830 -0.2694 -0.3602
  194DOPC  H18R24023   0.096   7.342   4.920  1.2874 -1.0118 -0.3822
  194DOPC  H18S24024   0.098   7.488   5.042  1.2295 -1.6087  0.9818
  194DOPC  H18T24025   0.239   7.432   4.962 -1.1251 -1.7190  0.9910
  194DOPC   C3324026   0.726   6.859   3.324  0.3926  0.5771  0.2802
  194DOPC   H3X24027   0.765   6.841   3.222  0.0368 -3.5921  0.7201
  194DOPC   H3Y24028   0.665   6.769   3.346 -0.1538  0.2540 -2.2509
  194DOPC   C3424029   0.839   6.861   3.428 -0.2028 -0.6162 -0.2702
  194DOPC   H4X24030   0.915   6.937   3.399 -0.7644 -0.0501 -0.3038
  194DOPC   H4Y24031   0.878   6.758   3.425  0.4053 -0.3727 -1.0873
  194DOPC   C3524032   0.804   6.885   3.579 -0.4665 -0.3124  0.2022
  194DOPC   H5X24033   0.723   6.810   3.594  1.1155 -2.5354 -1.6787
  194DOPC   H5Y24034   0.768   6.989   3.589  0.7170  0.4903 -2.8464
  194DOPC   C3624035   0.907   6.862   3.686 -0.2695 -0.4777 -0.3479
  194DOPC   H6X24036   0.876   6.897   3.787  1.6931  1.4362 -0.3367
  194DOPC   H6Y24037   0.932   6.754   3.678  1.7406 -0.1350  0.6314
  194DOPC   C3724038   1.031   6.942   3.654 -0.2548 -0.1181  0.5507
  194DOPC   H7X24039   1.075   6.912   3.557  3.6034  1.8270  1.4999
  194DOPC   H7Y24040   1.005   7.047   3.630 -0.3939 -0.7326 -2.3379
  194DOPC   C3824041   1.141   6.940   3.751  0.4556 -0.5598 -0.5528
  194DOPC   H8X24042   1.192   6.842   3.750 -0.8973 -1.3657  1.7272
  194DOPC   H8Y24043   1.104   6.963   3.853 -0.9711 -0.2309 -1.1175
  194DOPC   C3924044   1.254   7.037   3.714  0.5991  0.0436  0.2935
  194DOPC   H9X24045   1.277   7.036   3.606 -1.9647 -0.4009 -0.3129
  194DOPC  C31024046   1.292   7.148   3.781  0.4087 -0.1633  0.2313
  194DOPC  H10X24047   1.375   7.205   3.736 -0.5647  0.7073 -0.5276
  194DOPC  C31124048   1.236   7.205   3.905 -0.2997  0.4260 -0.4847
  194DOPC  H11X24049   1.189   7.127   3.969 -2.7110  0.8284 -1.6572
  194DOPC  H11Y24050   1.166   7.288   3.882  0.2718  0.5845 -1.7150
  194DOPC  C31224051   1.343   7.254   4.006  0.5184 -0.0652 -0.0443
  194DOPC  H12X24052   1.375   7.350   3.960 -2.4572  0.7795 -0.6061
  194DOPC  H12Y24053   1.420   7.174   4.004  1.6327  0.9317  1.0548
  194DOPC  C31324054   1.289   7.263   4.142 -0.0763 -0.8762 -0.3581
  194DOPC  H13X24055   1.209   7.340   4.152  1.2793  0.5129  0.2473
  194DOPC  H13Y24056   1.252   7.161   4.165  2.0996 -1.3774  1.2968
  194DOPC  C31424057   1.384   7.301   4.257  0.5074 -0.1977 -0.1007
  194DOPC  H14X24058   1.458   7.219   4.259  1.2015  0.4076 -0.3449
  194DOPC  H14Y24059   1.439   7.394   4.227  2.6609 -1.0109  1.0956
  194DOPC  C31524060   1.298   7.315   4.381  0.3282 -0.3862 -0.0990
  194DOPC  H15X24061   1.278   7.214   4.422 -0.9642 -0.3032 -0.5061
  194DOPC  H15Y24062   1.195   7.350   4.362 -0.0420 -0.4522  1.6067
  194DOPC  C31624063   1.355   7.395   4.501 -0.8591  0.9257 -0.1652
  194DOPC  H16X24064   1.291   7.367   4.587 -1.1951  0.3900 -0.5807
  194DOPC  H16Y24065   1.456   7.354   4.523  0.0714  2.6301 -1.0901
  194DOPC  C31724066   1.376   7.544   4.481 -0.1490  0.0801  0.2228
  194DOPC  H17X24067   1.421   7.570   4.383 -0.1683 -3.3485 -0.7999
  194DOPC  H17Y24068   1.284   7.605   4.466  1.3663  2.0787 -1.7895
  194DOPC  C31824069   1.451   7.603   4.601 -0.1899 -0.2877 -0.1310
  194DOPC  H18X24070   1.558   7.578   4.587 -1.0315 -3.3493 -2.3250
  194DOPC  H18Y24071   1.451   7.713   4.615 -0.6063 -0.5780  3.0302
  194DOPC  H18Z24072   1.417   7.563   4.700  0.1248 -1.3343 -0.4293
  195DOPC     N24073   6.078   5.845   2.648 -0.3021  0.5215 -0.4608
  195DOPC   C1224074   6.054   5.930   2.773 -0.3420 -0.3505  0.6461
  195DOPC  H12A24075   6.145   5.984   2.797 -1.3065  1.9002 -0.4853
  195DOPC  H12B24076   6.036   5.873   2.863  2.2967  2.0250  2.8668
  195DOPC   C1324077   6.107   5.935   2.526  0.0797  0.0697  0.3153
  195DOPC  H13A24078   6.094   5.886   2.431 -0.2303  3.2340 -1.4078
  195DOPC  H13B24079   6.028   6.008   2.514  1.6910  1.8033 -0.2002
  195DOPC  H13C24080   6.198   5.992   2.527  0.7579 -0.9604 -0.4314
  195DOPC   C1424081   5.968   5.745   2.626 -0.0153  0.2882  0.0152
  195DOPC  H14A24082   5.985   5.683   2.539 -0.6248  0.3304 -0.1381
  195DOPC  H14B24083   5.937   5.682   2.708 -0.5357  0.0002 -0.3927
  195DOPC  H14C24084   5.875   5.798   2.611  0.5139  0.3606 -4.2568
  195DOPC   C1524085   6.203   5.770   2.660  0.2397 -0.2199 -0.3694
  195DOPC  H15A24086   6.289   5.834   2.642 -1.8294  2.4690 -1.4785
  195DOPC  H15B24087   6.209   5.702   2.576 -2.0029  0.8041 -1.4377
  195DOPC  H15C24088   6.206   5.710   2.750 -0.8315  1.7489  1.0386
  195DOPC   C1124089   5.937   6.022   2.767  0.1266  0.6370  0.3514
  195DOPC  H11A24090   5.857   5.963   2.717 -0.8692  1.2352  1.1995
  195DOPC  H11B24091   5.920   6.055   2.871  0.3786  2.5162 -0.1771
  195DOPC     P24092   5.902   6.264   2.704 -0.1891 -0.3164 -0.4136
  195DOPC   O1324093   5.752   6.244   2.693  0.4498  0.0312  1.1272
  195DOPC   O1424094   5.956   6.366   2.611 -0.5578 -0.3597  0.1681
  195DOPC   O1224095   5.974   6.131   2.682 -0.4723 -0.4607 -0.2492
  195DOPC   O1124096   5.939   6.301   2.850  0.3051 -0.0041  0.5407
  195DOPC    C124097   5.858   6.386   2.928  0.5000  0.0506  0.5565
  195DOPC    HA24098   5.759   6.335   2.931  0.6180 -0.1970  0.2567
  195DOPC    HB24099   5.842   6.484   2.877  1.9469  1.1354  2.0832
  195DOPC    C224100   5.910   6.395   3.077  0.2593  0.1141  0.5083
  195DOPC    HS24101   6.016   6.428   3.067  1.0576 -2.4013  0.0499
  195DOPC   O2124102   5.899   6.265   3.135 -0.4361  0.3225  0.1101
  195DOPC   C2124103   6.015   6.202   3.164  0.1525 -0.4321 -0.8805
  195DOPC   O2224104   6.125   6.248   3.153 -0.0957  0.4919 -0.1454
  195DOPC   C2224105   5.976   6.066   3.205  0.4690  0.0923  0.4295
  195DOPC   H2R24106   6.058   6.000   3.170  1.1321  0.9648  0.3015
  195DOPC   H2S24107   5.885   6.036   3.148  0.4891  1.7761 -0.5728
  195DOPC    C324108   5.832   6.510   3.147 -0.0717  0.2282  0.4809
  195DOPC    HX24109   5.727   6.521   3.111  0.4373 -0.7905 -1.3930
  195DOPC    HY24110   5.888   6.599   3.112  1.9097 -1.2146 -0.1737
  195DOPC   O3124111   5.840   6.492   3.288  0.3872  0.4028 -0.1929
  195DOPC   C3124112   5.749   6.404   3.344  0.6393  0.0091 -0.7157
  195DOPC   O3224113   5.642   6.371   3.300 -0.0539 -0.0194  0.6458
  195DOPC   C3224114   5.787   6.363   3.490 -0.7474  0.1355  0.3873
  195DOPC   H2X24115   5.717   6.408   3.564  0.4569 -0.5367  1.9912
  195DOPC   H2Y24116   5.774   6.253   3.496 -0.0757 -0.0872 -1.7080
  195DOPC   C2324117   5.969   6.044   3.354  0.4507  0.2068  0.1674
  195DOPC   H3R24118   5.878   6.097   3.387  0.0910 -0.9783  1.1891
  195DOPC   H3S24119   6.057   6.090   3.406  2.0198 -1.5950 -0.7699
  195DOPC   C2424120   5.942   5.894   3.388 -0.2280 -0.3722 -0.0589
  195DOPC   H4R24121   6.035   5.847   3.350  0.3687  0.1271  0.7716
  195DOPC   H4S24122   5.850   5.861   3.334 -1.1126  0.0381  1.1503
  195DOPC   C2524123   5.925   5.863   3.535  0.6385  0.4753 -0.0196
  195DOPC   H5R24124   5.832   5.918   3.565  0.5739  0.0539  0.5767
  195DOPC   H5S24125   6.005   5.903   3.600  0.8678 -0.6749  0.4223
  195DOPC   C2624126   5.899   5.715   3.573 -0.2628  0.6596 -0.5053
  195DOPC   H6R24127   5.830   5.682   3.493  0.2910 -0.4772 -0.5426
  195DOPC   H6S24128   5.861   5.692   3.675  0.0140 -2.4080 -0.9944
  195DOPC   C2724129   6.037   5.633   3.565 -0.0689 -0.3201  0.2228
  195DOPC   H7R24130   6.121   5.697   3.599 -0.3780  0.8930 -1.2101
  195DOPC   H7S24131   6.071   5.631   3.460 -0.9067  0.5371 -0.0823
  195DOPC   C2824132   6.028   5.497   3.627 -0.3843  0.9590  0.0426
  195DOPC   H8R24133   5.953   5.427   3.584  0.5913  0.1508 -0.4007
  195DOPC   H8S24134   5.991   5.508   3.731 -0.0207  0.1569  0.2687
  195DOPC   C2924135   6.161   5.431   3.597  0.2184  0.3858 -0.7442
  195DOPC   H9R24136   6.192   5.425   3.491  0.9932  0.7194 -0.5446
  195DOPC  C21024137   6.245   5.367   3.679  0.3558 -0.1859  0.0757
  195DOPC  H10R24138   6.336   5.316   3.643  1.1380  0.8152  0.5737
  195DOPC  C21124139   6.214   5.352   3.823 -0.6345 -0.9177  0.0198
  195DOPC  H11R24140   6.261   5.259   3.861 -0.7823 -1.4301 -0.9973
  195DOPC  H11S24141   6.105   5.331   3.837 -0.5442 -0.0771  2.4607
  195DOPC  C21224142   6.240   5.478   3.912 -0.5792  0.1923 -0.0041
  195DOPC  H12R24143   6.206   5.573   3.866 -1.0781 -0.9160 -2.0335
  195DOPC  H12S24144   6.351   5.484   3.914 -0.5540  1.0237 -2.0029
  195DOPC  C21324145   6.191   5.467   4.054  0.2634 -0.1598  0.0235
  195DOPC  H13R24146   6.080   5.455   4.050  0.2173 -0.0553  0.7963
  195DOPC  H13S24147   6.219   5.562   4.104  0.8598  0.6032 -1.6890
  195DOPC  C21424148   6.265   5.348   4.124  0.5495 -0.4997  0.1201
  195DOPC  H14R24149   6.368   5.372   4.088 -0.1705  0.1597 -1.6357
  195DOPC  H14S24150   6.239   5.252   4.076 -2.0719  0.6742 -0.9971
  195DOPC  C21524151   6.262   5.361   4.281 -0.2006  0.2333 -0.3001
  195DOPC  H15R24152   6.259   5.468   4.312  1.4848  0.3321 -0.3945
  195DOPC  H15S24153   6.361   5.326   4.317 -0.3415  0.9243  0.8428
  195DOPC  C21624154   6.158   5.284   4.352 -0.6981 -1.0503 -0.2698
  195DOPC  H16R24155   6.180   5.304   4.459  1.5937  3.4220 -1.3650
  195DOPC  H16S24156   6.169   5.177   4.325 -1.7802 -1.2085 -0.1381
  195DOPC  C21724157   6.011   5.326   4.328  0.0147  0.2743  0.6569
  195DOPC  H17R24158   5.986   5.362   4.227  0.7095  3.1962  1.4492
  195DOPC  H17S24159   5.983   5.425   4.371 -0.3236 -0.8204  3.1921
  195DOPC  C21824160   5.912   5.213   4.365  0.4414 -0.3662  0.7362
  195DOPC  H18R24161   5.866   5.161   4.279  0.1820 -1.8191  1.7013
  195DOPC  H18S24162   5.824   5.252   4.421 -0.5461 -1.1958 -0.2044
  195DOPC  H18T24163   5.958   5.136   4.432  0.1648  0.2686  1.6762
  195DOPC   C3324164   5.940   6.383   3.518 -1.2801 -0.2840 -0.0501
  195DOPC   H3X24165   5.978   6.487   3.506 -0.5182 -0.4618  0.8008
  195DOPC   H3Y24166   5.999   6.324   3.444 -0.6767 -1.1355  1.0877
  195DOPC   C3424167   5.970   6.331   3.663  0.5796  0.3668  0.5699
  195DOPC   H4X24168   5.944   6.225   3.679  1.0778  0.4410  2.0433
  195DOPC   H4Y24169   5.904   6.388   3.732  0.1932 -0.4931  0.9258
  195DOPC   C3524170   6.120   6.346   3.703  0.5415  1.0849 -0.0845
  195DOPC   H5X24171   6.153   6.450   3.722 -1.3156  2.1094 -2.0014
  195DOPC   H5Y24172   6.178   6.309   3.615  1.2248  2.8307 -0.4019
  195DOPC   C3624173   6.154   6.259   3.819 -0.9673 -0.3633 -0.1838
  195DOPC   H6X24174   6.075   6.251   3.897 -2.3869  0.1285 -1.5178
  195DOPC   H6Y24175   6.154   6.155   3.781 -2.8257 -0.6301  0.4490
  195DOPC   C3724176   6.286   6.289   3.891 -0.3001  0.1473 -0.0844
  195DOPC   H7X24177   6.369   6.306   3.820 -0.3005 -0.3020 -0.1912
  195DOPC   H7Y24178   6.277   6.388   3.941  0.9040 -0.2288  0.9258
  195DOPC   C3824179   6.326   6.178   3.999 -0.7917 -0.7676  0.4685
  195DOPC   H8X24180   6.250   6.167   4.080 -0.3807  0.9540  1.1283
  195DOPC   H8Y24181   6.416   6.208   4.057 -1.3875  1.6406  0.2674
  195DOPC   C3924182   6.356   6.045   3.937 -0.4106  0.3458  0.0702
  195DOPC   H9X24183   6.364   6.051   3.828 -0.5965 -2.3924 -0.1688
  195DOPC  C31024184   6.371   5.920   3.988  0.2641  0.5757 -0.2454
  195DOPC  H10X24185   6.401   5.841   3.918 -0.0458 -0.3551  0.6309
  195DOPC  C31124186   6.364   5.876   4.131 -0.9038 -0.4294 -0.4270
  195DOPC  H11X24187   6.301   5.785   4.124  0.0651 -1.1196 -0.4814
  195DOPC  H11Y24188   6.318   5.948   4.201 -0.9223 -0.3119 -0.5604
  195DOPC  C31224189   6.498   5.828   4.183 -0.1075 -0.1188 -0.5371
  195DOPC  H12X24190   6.579   5.902   4.162 -0.2171  0.1042 -0.1971
  195DOPC  H12Y24191   6.528   5.740   4.122  0.1171  0.0094 -0.6133
  195DOPC  C31324192   6.510   5.782   4.330  0.2767  0.2389 -1.0373
  195DOPC  H13X24193   6.439   5.698   4.345 -0.6057  1.5127  3.4132
  195DOPC  H13Y24194   6.617   5.753   4.340  0.3385  1.0830  1.4841
  195DOPC  C31424195   6.491   5.878   4.445 -0.2267 -0.0494 -0.2707
  195DOPC  H14X24196   6.572   5.953   4.433 -0.9769  0.9148  0.5070
  195DOPC  H14Y24197   6.396   5.935   4.438 -1.1992 -1.7308 -1.7024
  195DOPC  C31524198   6.480   5.815   4.588  0.3923 -0.2982  0.4540
  195DOPC  H15X24199   6.506   5.892   4.664  1.1585  0.3169 -0.4127
  195DOPC  H15Y24200   6.571   5.752   4.603 -0.4469 -1.1460  2.1922
  195DOPC  C31624201   6.352   5.737   4.615  0.2139  0.4501  0.0438
  195DOPC  H16X24202   6.270   5.811   4.622 -1.5395 -1.4628  0.8523
  195DOPC  H16Y24203   6.338   5.668   4.528  1.8399 -1.6668  1.3640
  195DOPC  C31724204   6.353   5.653   4.750 -0.0855  0.0233  0.0660
  195DOPC  H17X24205   6.457   5.613   4.752 -0.6698 -1.5039  1.0277
  195DOPC  H17Y24206   6.338   5.731   4.828 -1.8781  1.7066 -1.8097
  195DOPC  C31824207   6.247   5.542   4.768 -0.1384  0.2318  0.0279
  195DOPC  H18X24208   6.242   5.478   4.677  1.1926 -1.2876  0.9736
  195DOPC  H18Y24209   6.284   5.487   4.857 -2.0163 -0.4133  0.4539
  195DOPC  H18Z24210   6.143   5.578   4.787 -0.5934 -1.4152  0.8577
  196DOPC     N24211   7.436   0.786   2.728  0.3216 -0.3540  0.6750
  196DOPC   C1224212   7.484   0.883   2.837 -0.5746  0.0939 -0.1065
  196DOPC  H12A24213   7.449   0.839   2.929  1.4244 -2.0871 -0.2985
  196DOPC  H12B24214   7.442   0.982   2.823 -2.2302 -0.5642 -0.0165
  196DOPC   C1324215   7.285   0.784   2.729  0.3502  0.8117  0.6991
  196DOPC  H13A24216   7.249   0.745   2.822  0.5940  0.0010  0.4603
  196DOPC  H13B24217   7.238   0.878   2.706  0.0739  0.4606 -0.2126
  196DOPC  H13C24218   7.243   0.714   2.659  0.6240 -0.6072  1.9126
  196DOPC   C1424219   7.482   0.648   2.751  0.0376  0.1466 -0.2835
  196DOPC  H14A24220   7.455   0.594   2.662 -1.7467  2.0644 -0.9824
  196DOPC  H14B24221   7.589   0.641   2.761  0.0339  0.7903  0.3235
  196DOPC  H14C24222   7.445   0.598   2.839  0.3781 -0.1979 -0.3355
  196DOPC   C1524223   7.467   0.839   2.596  0.6686  0.0495  0.7818
  196DOPC  H15A24224   7.429   0.938   2.577 -0.5999 -0.3402  1.1889
  196DOPC  H15B24225   7.439   0.776   2.514 -0.3174  1.4447  0.0084
  196DOPC  H15C24226   7.573   0.860   2.592  0.2573  2.3744  0.1912
  196DOPC   C1124227   7.633   0.901   2.862 -0.8295 -0.2042  0.4994
  196DOPC  H11A24228   7.657   0.925   2.968 -3.0636  0.1949  0.9484
  196DOPC  H11B24229   7.683   0.803   2.848 -1.2655 -0.0038 -3.9517
  196DOPC     P24230   7.689   1.147   2.809 -0.1006 -0.1526 -0.2982
  196DOPC   O1324231   7.550   1.176   2.853  0.3260 -0.1944 -0.1270
  196DOPC   O1424232   7.752   1.229   2.702 -0.5561 -0.2239  0.7083
  196DOPC   O1224233   7.697   0.992   2.767  0.2311  0.1812 -0.2797
  196DOPC   O1124234   7.783   1.166   2.937  0.2445 -0.0238 -0.5643
  196DOPC    C124235   7.899   1.089   2.961  0.5778 -0.6360  0.3868
  196DOPC    HA24236   7.986   1.139   2.915 -0.3634  0.1106 -0.6086
  196DOPC    HB24237   7.898   0.986   2.919  2.0744 -0.7024  0.4503
  196DOPC    C224238   7.919   1.072   3.116 -0.2724  0.0720  0.2317
  196DOPC    HS24239   8.012   1.015   3.135  1.4984  1.9258 -2.1965
  196DOPC   O2124240   7.810   1.007   3.173  0.4589 -0.3918 -0.4358
  196DOPC   C2124241   7.807   0.872   3.171 -0.4403  0.9405 -0.7941
  196DOPC   O2224242   7.897   0.805   3.123  0.0414  0.3250  0.3552
  196DOPC   C2224243   7.684   0.820   3.257  0.2083 -0.0877 -0.3856
  196DOPC   H2R24244   7.690   0.710   3.263 -0.3468 -0.1148 -0.2992
  196DOPC   H2S24245   7.602   0.834   3.184  0.1753 -2.3503 -0.8446
  196DOPC    C324246   7.944   1.211   3.185  0.0404 -0.7038  0.5983
  196DOPC    HX24247   7.852   1.270   3.165  0.8959  0.2485 -0.6636
  196DOPC    HY24248   8.026   1.257   3.127 -1.0545 -0.0297 -0.4767
  196DOPC   O3124249   7.976   1.187   3.321  0.1681  0.1292 -1.4333
  196DOPC   C3124250   7.945   1.295   3.392  0.3524  0.1156 -1.0260
  196DOPC   O3224251   7.913   1.407   3.355 -0.3291  0.8493 -0.4466
  196DOPC   C3224252   7.970   1.267   3.542 -0.4316  0.3850  0.3737
  196DOPC   H2X24253   8.048   1.188   3.537 -0.8346  0.0630 -1.8453
  196DOPC   H2Y24254   8.016   1.356   3.590 -0.4962 -0.7830  2.7639
  196DOPC   C2324255   7.647   0.889   3.387  0.5154 -0.3117  0.0153
  196DOPC   H3R24256   7.626   0.998   3.380  0.1160 -0.2778  1.4618
  196DOPC   H3S24257   7.723   0.873   3.467  1.9631 -0.4887 -1.3289
  196DOPC   C2424258   7.523   0.825   3.439  0.4758 -0.2740  0.1940
  196DOPC   H4R24259   7.443   0.849   3.366  1.4540  0.3021 -0.7108
  196DOPC   H4S24260   7.492   0.887   3.526 -2.2861  0.7202 -1.3631
  196DOPC   C2524261   7.526   0.676   3.470 -0.1727 -0.0545  0.1001
  196DOPC   H5R24262   7.620   0.658   3.525 -0.2996  0.4270  0.4728
  196DOPC   H5S24263   7.531   0.614   3.377  0.0313 -0.0765  0.1249
  196DOPC   C2624264   7.410   0.623   3.558 -0.0527 -0.3101 -0.0657
  196DOPC   H6R24265   7.413   0.512   3.560 -0.1915 -0.3244 -0.5915
  196DOPC   H6S24266   7.313   0.661   3.521 -0.6441  0.0365  1.7467
  196DOPC   C2724267   7.415   0.676   3.706  0.4940 -0.1594  0.0371
  196DOPC   H7R24268   7.447   0.781   3.699  1.4990 -0.5773 -2.5445
  196DOPC   H7S24269   7.497   0.623   3.760 -0.5222 -2.3373 -0.4302
  196DOPC   C2824270   7.277   0.649   3.772 -0.0494  0.0981  0.1475
  196DOPC   H8R24271   7.239   0.545   3.775  0.1557 -0.0109 -0.7187
  196DOPC   H8S24272   7.201   0.718   3.728 -0.2820  1.1048  2.0329
  196DOPC   C2924273   7.290   0.705   3.913  0.5029  0.1920  0.1855
  196DOPC   H9R24274   7.377   0.677   3.974  1.2182  1.2180 -0.3268
  196DOPC  C21024275   7.190   0.770   3.979  0.7379 -0.6641 -0.7634
  196DOPC  H10R24276   7.208   0.802   4.083 -2.3982  3.0792 -1.1519
  196DOPC  C21124277   7.046   0.807   3.939  0.1890  0.4378 -0.2277
  196DOPC  H11R24278   6.985   0.724   3.982  1.7337 -1.6863 -1.9462
  196DOPC  H11S24279   7.035   0.797   3.829 -0.5066  0.8042 -0.1968
  196DOPC  C21224280   6.992   0.937   3.998 -0.2713  0.2325 -0.5808
  196DOPC  H12R24281   7.040   1.019   3.940  0.1363 -1.0369 -2.1033
  196DOPC  H12S24282   7.010   0.956   4.106  0.4465  2.5209 -1.0399
  196DOPC  C21324283   6.843   0.973   3.972  0.5824  0.7257 -0.3407
  196DOPC  H13R24284   6.821   1.006   3.868  0.3608  0.3778 -0.4070
  196DOPC  H13S24285   6.812   1.063   4.029 -3.4327 -1.2960  1.0554
  196DOPC  C21424286   6.747   0.862   4.016  0.4312  0.0910  0.0923
  196DOPC  H14R24287   6.782   0.805   4.104  0.7938  0.0041 -0.1037
  196DOPC  H14S24288   6.760   0.786   3.936  3.2281  0.5185  0.0327
  196DOPC  C21524289   6.603   0.913   4.025  0.7456 -0.3284 -0.0152
  196DOPC  H15R24290   6.533   0.827   4.022  0.9522 -0.4837 -0.6526
  196DOPC  H15S24291   6.598   0.984   3.940  1.5673 -0.7023 -0.3964
  196DOPC  C21624292   6.582   0.996   4.155  0.7697  0.1340 -0.4104
  196DOPC  H16R24293   6.477   1.032   4.157  0.9300  0.6264  2.0998
  196DOPC  H16S24294   6.650   1.082   4.144  0.2382  0.4696 -1.1953
  196DOPC  C21724295   6.614   0.934   4.288 -0.5844  0.7137  0.1713
  196DOPC  H17R24296   6.725   0.926   4.293 -0.6858  0.0849  2.5193
  196DOPC  H17S24297   6.580   0.829   4.295  2.4954 -0.3549  0.7563
  196DOPC  C21824298   6.576   1.019   4.410 -0.2656 -0.3233  0.1893
  196DOPC  H18R24299   6.620   0.980   4.504 -2.2751  0.5616  1.5687
  196DOPC  H18S24300   6.465   1.018   4.419 -0.1296 -0.6672  2.4301
  196DOPC  H18T24301   6.601   1.127   4.400 -2.5584  0.3253  0.7157
  196DOPC   C3324302   7.836   1.236   3.614 -0.2949  0.3232  0.2592
  196DOPC   H3X24303   7.762   1.187   3.546  0.2075 -0.4965  0.2883
  196DOPC   H3Y24304   7.782   1.321   3.661 -0.6627  0.3614 -0.2316
  196DOPC   C3424305   7.860   1.124   3.722  0.2473 -0.5418 -0.2182
  196DOPC   H4X24306   7.791   1.139   3.808 -0.2323 -0.4885 -0.6020
  196DOPC   H4Y24307   7.967   1.129   3.751  0.7347 -3.2395 -1.3332
  196DOPC   C3524308   7.826   0.977   3.688  0.3482 -0.7893  0.4561
  196DOPC   H5X24309   7.876   0.958   3.591 -0.8610 -1.9189  0.0292
  196DOPC   H5Y24310   7.717   0.963   3.672 -0.0383  1.5233  0.6332
  196DOPC   C3624311   7.878   0.866   3.790  0.1321 -0.1646 -0.0183
  196DOPC   H6X24312   7.941   0.791   3.738  2.6456  0.8476  1.4207
  196DOPC   H6Y24313   7.945   0.916   3.864 -2.2645 -0.3326  2.4513
  196DOPC   C3724314   7.760   0.794   3.861  0.3097  0.6530  0.0754
  196DOPC   H7X24315   7.696   0.736   3.791 -1.3717  1.8789  0.5124
  196DOPC   H7Y24316   7.796   0.720   3.936  0.6571 -1.4821 -2.0761
  196DOPC   C3824317   7.677   0.884   3.960 -0.9967  0.3446  0.2484
  196DOPC   H8X24318   7.582   0.832   3.985 -0.4057 -1.0452 -0.3498
  196DOPC   H8Y24319   7.656   0.980   3.907  1.9501  0.3204 -1.1577
  196DOPC   C3924320   7.750   0.919   4.087 -0.2156 -0.0850 -0.2927
  196DOPC   H9X24321   7.860   0.924   4.082 -0.2579  0.5153 -0.6866
  196DOPC  C31024322   7.691   0.921   4.211 -0.5292 -0.3069 -0.3585
  196DOPC  H10X24323   7.750   0.938   4.302 -1.2116 -0.7769  0.1754
  196DOPC  C31124324   7.547   0.885   4.232  0.0813  1.1803 -0.1067
  196DOPC  H11X24325   7.533   0.775   4.240  2.3397  0.8063 -0.6867
  196DOPC  H11Y24326   7.483   0.921   4.148 -0.2240  1.7643  0.3649
  196DOPC  C31224327   7.508   0.955   4.365  0.0359 -0.1107 -0.7734
  196DOPC  H12X24328   7.587   0.927   4.438 -1.1102 -0.0827  0.5224
  196DOPC  H12Y24329   7.405   0.919   4.387 -1.0464  2.0124 -2.0047
  196DOPC  C31324330   7.501   1.114   4.362 -0.1398 -0.4719 -0.1882
  196DOPC  H13X24331   7.585   1.146   4.296  0.6050 -1.5965  0.1718
  196DOPC  H13Y24332   7.411   1.149   4.308  0.2627  0.2985 -0.3790
  196DOPC  C31424333   7.501   1.176   4.501 -0.5477 -0.5562 -0.6653
  196DOPC  H14X24334   7.408   1.152   4.558 -1.2878  1.7965 -0.7822
  196DOPC  H14Y24335   7.591   1.147   4.559  0.0515 -0.0864 -1.3448
  196DOPC  C31524336   7.504   1.329   4.484  0.4076 -0.1795 -0.0911
  196DOPC  H15X24337   7.409   1.366   4.440  0.7122 -0.1395 -0.7326
  196DOPC  H15Y24338   7.583   1.363   4.413  1.0373  0.9218  1.0859
  196DOPC  C31624339   7.555   1.408   4.603  0.6231 -0.0752  0.1860
  196DOPC  H16X24340   7.468   1.408   4.671  0.5220  0.1286  0.0573
  196DOPC  H16Y24341   7.654   1.369   4.637  1.6424  0.6029 -1.8305
  196DOPC  C31724342   7.572   1.562   4.565 -0.0924  0.1110 -0.6831
  196DOPC  H17X24343   7.660   1.556   4.498 -0.1583 -0.9912 -0.6987
  196DOPC  H17Y24344   7.476   1.599   4.522  0.0396 -0.6022 -1.6291
  196DOPC  C31824345   7.613   1.653   4.688  0.5308  0.3152 -0.1073
  196DOPC  H18X24346   7.699   1.612   4.746 -1.0119  0.3227  2.2975
  196DOPC  H18Y24347   7.609   1.760   4.659 -1.6976  1.1207  2.6679
  196DOPC  H18Z24348   7.535   1.646   4.766  1.0534  0.4164  0.4372
  197DOPC     N24349   1.795   6.786   2.866 -0.4101  0.1172  0.1829
  197DOPC   C1224350   1.860   6.676   2.947 -0.2611 -0.3927 -0.4443
  197DOPC  H12A24351   1.816   6.578   2.931  0.7475 -0.7693 -0.9854
  197DOPC  H12B24352   1.837   6.689   3.052  0.2861  0.8135 -0.4609
  197DOPC   C1324353   1.804   6.761   2.717 -0.9847 -0.0684 -0.3693
  197DOPC  H13A24354   1.758   6.668   2.688  0.6530 -1.1645  0.3754
  197DOPC  H13B24355   1.753   6.844   2.670 -1.8358 -0.9146 -0.9796
  197DOPC  H13C24356   1.907   6.759   2.685 -0.8864 -0.7255 -0.0218
  197DOPC   C1424357   1.871   6.917   2.889 -0.4188 -0.5184  0.0481
  197DOPC  H14A24358   1.905   6.933   2.990  0.0203  0.8408 -0.2922
  197DOPC  H14B24359   1.959   6.909   2.826  0.3118 -0.9610  1.0948
  197DOPC  H14C24360   1.808   6.995   2.850  0.9854 -0.7273 -2.9466
  197DOPC   C1524361   1.651   6.818   2.920  0.5130 -0.2384 -0.1748
  197DOPC  H15A24362   1.655   6.887   3.003 -1.2275 -1.8390  1.3090
  197DOPC  H15B24363   1.595   6.732   2.953 -0.4083  0.5115  0.2765
  197DOPC  H15C24364   1.575   6.865   2.859 -0.3138  0.2835  1.2049
  197DOPC   C1124365   2.009   6.665   2.934 -0.3143 -0.6179 -0.6166
  197DOPC  H11A24366   2.032   6.566   2.980 -2.2840 -0.5143  0.7228
  197DOPC  H11B24367   2.039   6.671   2.827 -0.0731 -1.3403 -0.5981
  197DOPC     P24368   2.085   6.775   3.156 -0.1130 -0.0625  0.6411
  197DOPC   O1324369   1.958   6.841   3.199 -0.1878  0.0442 -0.0603
  197DOPC   O1424370   2.212   6.841   3.193  0.1316  0.4875 -0.3049
  197DOPC   O1224371   2.082   6.771   2.997  0.0323 -0.7158  0.1061
  197DOPC   O1124372   2.068   6.621   3.211 -0.0601 -0.1822  0.4134
  197DOPC    C124373   1.951   6.583   3.283 -0.0596  0.3534 -0.0880
  197DOPC    HA24374   1.922   6.478   3.260 -0.1260  0.3945 -0.1942
  197DOPC    HB24375   1.860   6.640   3.253  0.2373  0.7787 -0.1988
  197DOPC    C224376   1.968   6.587   3.435  0.1986  0.2888 -0.0427
  197DOPC    HS24377   1.895   6.516   3.480  3.7604 -2.9449  1.1669
  197DOPC   O2124378   1.969   6.724   3.485 -0.1670  0.1358  0.6229
  197DOPC   C2124379   1.842   6.768   3.490  0.9038 -0.0222  0.2810
  197DOPC   O2224380   1.747   6.701   3.463  0.4244  0.4238 -0.1851
  197DOPC   C2224381   1.850   6.914   3.544 -0.4357  0.7987  0.0396
  197DOPC   H2R24382   1.915   6.972   3.475 -0.3019  0.1304 -0.3999
  197DOPC   H2S24383   1.901   6.912   3.643 -0.2576 -0.2596 -0.0649
  197DOPC    C324384   2.107   6.520   3.475  0.1770 -0.1406  0.1543
  197DOPC    HX24385   2.177   6.602   3.447 -2.1636  1.6610 -0.7947
  197DOPC    HY24386   2.111   6.434   3.405 -1.9045 -1.1294  1.1679
  197DOPC   O3124387   2.113   6.483   3.615 -0.1928  0.3508  0.6160
  197DOPC   C3124388   2.062   6.361   3.646 -0.4045  0.3627 -0.2135
  197DOPC   O3224389   1.998   6.292   3.569  0.3284  0.6531 -0.1482
  197DOPC   C3224390   2.105   6.314   3.784  0.1484  0.7096 -0.6111
  197DOPC   H2X24391   2.178   6.230   3.777 -0.2371  0.2227  0.9305
  197DOPC   H2Y24392   2.151   6.402   3.833  0.3035 -0.2286  0.9714
  197DOPC   C2324393   1.700   6.966   3.577 -0.4893 -0.2216 -0.0788
  197DOPC   H3R24394   1.663   6.892   3.651  0.7175  1.7302  2.6637
  197DOPC   H3S24395   1.638   6.963   3.485  0.9968 -1.2063 -1.1066
  197DOPC   C2424396   1.695   7.107   3.651 -0.3515 -0.1553 -0.7449
  197DOPC   H4R24397   1.603   7.158   3.618 -0.3805  1.3312  1.4460
  197DOPC   H4S24398   1.781   7.171   3.623 -0.2005 -0.5547 -1.2172
  197DOPC   C2524399   1.701   7.085   3.802  0.0164 -0.2170  0.1183
  197DOPC   H5R24400   1.786   7.014   3.816 -0.8481 -1.8176 -2.1218
  197DOPC   H5S24401   1.614   7.027   3.839 -0.2507 -0.0210 -0.1949
  197DOPC   C2624402   1.718   7.213   3.884  0.0869  0.1942  0.3178
  197DOPC   H6R24403   1.636   7.286   3.866  0.7173  0.4097 -1.9218
  197DOPC   H6S24404   1.818   7.260   3.874  0.6452 -0.8344  0.9095
  197DOPC   C2724405   1.720   7.184   4.040 -0.5157 -0.7870  0.0410
  197DOPC   H7R24406   1.813   7.128   4.063  0.4066 -0.1090 -1.8472
  197DOPC   H7S24407   1.635   7.118   4.067 -0.4545 -0.9664 -0.2034
  197DOPC   C2824408   1.718   7.320   4.116  0.6187 -0.0744 -0.6658
  197DOPC   H8R24409   1.717   7.307   4.226  0.3606 -1.5467 -0.8268
  197DOPC   H8S24410   1.627   7.381   4.096  0.4224  1.0905  3.1331
  197DOPC   C2924411   1.840   7.405   4.091 -0.1426  0.2156  0.9451
  197DOPC   H9R24412   1.866   7.413   3.984 -1.7123 -1.3438  0.3897
  197DOPC  C21024413   1.923   7.466   4.175  0.5859 -0.2729 -0.4726
  197DOPC  H10R24414   1.994   7.532   4.124 -2.4183  1.4489 -2.7682
  197DOPC  C21124415   1.917   7.463   4.321 -0.3916  0.0513 -0.5804
  197DOPC  H11R24416   1.848   7.387   4.362  0.0003  0.8921  1.7626
  197DOPC  H11S24417   1.900   7.564   4.363  4.5483  0.2159  1.7166
  197DOPC  C21224418   2.046   7.424   4.384 -0.4972  0.0046  0.1162
  197DOPC  H12R24419   2.115   7.510   4.398 -0.8201  0.0169  1.8200
  197DOPC  H12S24420   2.087   7.347   4.315 -1.1795  1.0817 -1.5533
  197DOPC  C21324421   2.030   7.353   4.520 -0.1073  0.3170 -0.0122
  197DOPC  H13R24422   1.970   7.262   4.495  0.2989 -0.0591  0.3682
  197DOPC  H13S24423   1.967   7.413   4.589 -0.5857 -1.9112  1.6189
  197DOPC  C21424424   2.166   7.317   4.583 -0.1148  0.2489  0.2165
  197DOPC  H14R24425   2.243   7.289   4.508 -1.1293 -0.7657 -0.4897
  197DOPC  H14S24426   2.145   7.225   4.642 -2.5091  0.7180  0.1908
  197DOPC  C21524427   2.211   7.407   4.702  1.0518 -0.2304  0.5542
  197DOPC  H15R24428   2.127   7.443   4.766  0.7944  1.7486 -0.8329
  197DOPC  H15S24429   2.248   7.503   4.660 -0.3893 -0.2863 -0.9778
  197DOPC  C21624430   2.322   7.341   4.774 -0.2596 -0.3504 -0.7211
  197DOPC  H16R24431   2.414   7.359   4.714 -0.9085  1.0097 -1.3530
  197DOPC  H16S24432   2.311   7.230   4.778  1.5536 -0.5732 -0.8333
  197DOPC  C21724433   2.320   7.391   4.910 -0.0432 -0.1309 -0.0771
  197DOPC  H17R24434   2.222   7.357   4.950  0.2809 -1.7039 -0.5683
  197DOPC  H17S24435   2.319   7.502   4.908  2.7180 -0.0545 -1.4463
  197DOPC  C21824436   2.439   7.353   5.004 -0.2319 -0.1232 -0.1324
  197DOPC  H18R24437   2.434   7.382   5.111  1.1663  0.4384 -0.2003
  197DOPC  H18S24438   2.533   7.394   4.962 -0.2728  0.8828  0.7341
  197DOPC  H18T24439   2.448   7.242   4.999 -1.4840 -0.3128  1.2537
  197DOPC   C3324440   1.992   6.269   3.873 -0.5077  0.0906  0.3154
  197DOPC   H3X24441   1.916   6.350   3.871 -0.8588 -0.2578 -0.4661
  197DOPC   H3Y24442   2.008   6.263   3.983 -0.1652  1.7692  0.3933
  197DOPC   C3424443   1.919   6.139   3.833  0.1850  0.1442 -0.9814
  197DOPC   H4X24444   2.000   6.074   3.795 -0.0981  0.9455 -3.1250
  197DOPC   H4Y24445   1.847   6.163   3.752  0.8025  2.3621 -0.9375
  197DOPC   C3524446   1.845   6.062   3.952  0.1382  0.0175  0.9725
  197DOPC   H5X24447   1.925   6.006   4.004 -2.2738 -3.1459  1.5339
  197DOPC   H5Y24448   1.773   5.993   3.902 -1.1075  1.0114  1.3227
  197DOPC   C3624449   1.752   6.144   4.038  0.4351  0.4259 -0.3293
  197DOPC   H6X24450   1.797   6.233   4.087 -0.8888  1.4429 -0.9065
  197DOPC   H6Y24451   1.670   6.183   3.975  0.5921  0.3363 -0.5892
  197DOPC   C3724452   1.678   6.053   4.145 -0.4534 -0.3997  0.1091
  197DOPC   H7X24453   1.622   5.976   4.089  2.4533 -1.4488 -1.5744
  197DOPC   H7Y24454   1.747   6.006   4.220  1.1093  0.5762 -0.6601
  197DOPC   C3824455   1.589   6.141   4.225  0.2601 -0.2884  0.2384
  197DOPC   H8X24456   1.524   6.189   4.149  0.8990 -0.2674 -0.3103
  197DOPC   H8Y24457   1.654   6.210   4.283 -1.5548 -0.4182  2.5594
  197DOPC   C3924458   1.496   6.058   4.320  0.8832 -0.2658  0.1077
  197DOPC   H9X24459   1.418   6.000   4.269  0.2356  0.0596  0.7109
  197DOPC  C31024460   1.506   6.056   4.452 -0.1837 -0.5870  0.5967
  197DOPC  H10X24461   1.422   6.019   4.513 -2.3197  0.4939 -1.4951
  197DOPC  C31124462   1.605   6.140   4.531  0.4151 -0.7171 -0.4201
  197DOPC  H11X24463   1.698   6.167   4.477  0.6568  0.2287  0.4413
  197DOPC  H11Y24464   1.643   6.077   4.614  0.3372 -1.4867 -0.9619
  197DOPC  C31224465   1.525   6.258   4.594 -0.0205  0.6927  0.6549
  197DOPC  H12X24466   1.456   6.312   4.526  0.2087  1.2976  0.8953
  197DOPC  H12Y24467   1.602   6.327   4.634 -0.1125  1.2422 -0.0879
  197DOPC  C31324468   1.425   6.210   4.698  0.2505  0.2561 -1.0168
  197DOPC  H13X24469   1.378   6.298   4.747  0.6706 -0.8465  1.5913
  197DOPC  H13Y24470   1.344   6.149   4.654 -0.9024  1.5363 -0.7454
  197DOPC  C31424471   1.483   6.133   4.825  0.2205 -1.0087  0.5760
  197DOPC  H14X24472   1.526   6.036   4.793  2.4126 -0.4081  1.5504
  197DOPC  H14Y24473   1.569   6.190   4.865 -1.5039  2.7425 -0.6204
  197DOPC  C31524474   1.375   6.085   4.931 -0.0965  0.0690  0.3035
  197DOPC  H15X24475   1.302   6.014   4.887 -1.3888  0.8926  1.0488
  197DOPC  H15Y24476   1.305   6.168   4.952 -1.9372 -1.3632  0.1265
  197DOPC  C31624477   1.435   6.011   5.063  0.0512 -0.5158  0.1230
  197DOPC  H16X24478   1.344   6.009   5.126 -1.2467 -1.1408 -1.6991
  197DOPC  H16Y24479   1.467   5.908   5.039  0.1824 -0.1561 -1.3297
  197DOPC  C31724480   1.560   6.076   5.128 -0.0980  0.3652  0.2935
  197DOPC  H17X24481   1.644   6.077   5.055 -1.4245  0.2727 -1.2969
  197DOPC  H17Y24482   1.537   6.184   5.140 -2.5523 -0.2103  1.2730
  197DOPC  C31824483   1.614   6.024   5.263 -0.4814 -0.1314 -0.3976
  197DOPC  H18X24484   1.668   5.927   5.261  0.8962  0.6187 -1.9104
  197DOPC  H18Y24485   1.695   6.095   5.290  1.3599 -1.5036 -2.0085
  197DOPC  H18Z24486   1.531   6.009   5.334  1.1248  0.2336  1.6640
  198DOPC     N24487   7.609   5.388   2.336 -0.1989  0.5316  0.1797
  198DOPC   C1224488   7.466   5.426   2.368  0.6113  0.5106 -0.0131
  198DOPC  H12A24489   7.415   5.353   2.429  0.4704 -0.7248 -1.5309
  198DOPC  H12B24490   7.405   5.426   2.279 -1.3476  2.5765  1.2120
  198DOPC   C1324491   7.614   5.240   2.307 -0.6952 -0.7948  0.3970
  198DOPC  H13A24492   7.714   5.201   2.318 -0.9285 -1.7121 -0.5468
  198DOPC  H13B24493   7.551   5.192   2.380 -0.6759  0.6932  1.4437
  198DOPC  H13C24494   7.573   5.220   2.209  0.5346  1.7316 -0.7293
  198DOPC   C1424495   7.709   5.410   2.450  0.1534 -0.3515  0.5247
  198DOPC  H14A24496   7.677   5.372   2.546  0.0540  1.9372  1.4467
  198DOPC  H14B24497   7.802   5.363   2.421  0.3136  1.3834 -2.0639
  198DOPC  H14C24498   7.731   5.512   2.479 -1.9384  0.1777  0.4057
  198DOPC   C1524499   7.665   5.468   2.223 -0.1074  0.4256  0.3986
  198DOPC  H15A24500   7.602   5.443   2.139  0.8948 -0.2885 -0.1634
  198DOPC  H15B24501   7.760   5.431   2.187 -1.7295 -1.1995 -2.6018
  198DOPC  H15C24502   7.667   5.573   2.249  0.5841  0.3443  0.6810
  198DOPC   C1124503   7.442   5.566   2.425 -0.6907  0.5227 -0.2476
  198DOPC  H11A24504   7.472   5.569   2.531  2.8008 -1.0630 -1.0527
  198DOPC  H11B24505   7.507   5.640   2.373  0.0039  1.3546  1.7160
  198DOPC     P24506   7.176   5.565   2.478 -0.1432  0.0418  0.0201
  198DOPC   O1324507   7.156   5.417   2.485  0.5643 -0.2833 -0.3954
  198DOPC   O1424508   7.060   5.643   2.433  0.2268  0.1171 -0.3050
  198DOPC   O1224509   7.310   5.605   2.396  0.4372 -0.2640  0.0383
  198DOPC   O1124510   7.210   5.620   2.621 -0.0311  0.8467 -0.3794
  198DOPC    C124511   7.151   5.555   2.735  0.7522  0.1153 -0.6348
  198DOPC    HA24512   7.075   5.476   2.715 -1.1760  1.5557  0.6090
  198DOPC    HB24513   7.097   5.632   2.794 -1.7524 -1.7177 -0.3231
  198DOPC    C224514   7.258   5.490   2.833 -0.8188  0.8934 -1.0319
  198DOPC    HS24515   7.205   5.422   2.903  2.2910 -0.5933  0.1028
  198DOPC   O2124516   7.346   5.587   2.897 -0.2434 -0.3873  0.0676
  198DOPC   C2124517   7.311   5.632   3.014  0.4637 -0.3778  0.4466
  198DOPC   O2224518   7.202   5.613   3.068  0.4411 -0.0745 -0.0132
  198DOPC   C2224519   7.415   5.728   3.058 -0.0972 -0.6497  0.1230
  198DOPC   H2R24520   7.416   5.818   2.993  2.2087 -1.6781 -1.4025
  198DOPC   H2S24521   7.513   5.676   3.048  0.8882  0.5375  2.6675
  198DOPC    C324522   7.351   5.379   2.775 -0.6804  0.4717  0.1839
  198DOPC    HX24523   7.392   5.417   2.679  1.1630 -0.7135  0.4574
  198DOPC    HY24524   7.280   5.300   2.744 -0.9629  0.7005  0.2434
  198DOPC   O3124525   7.454   5.334   2.859 -0.5199  0.0005 -0.1577
  198DOPC   C3124526   7.586   5.372   2.830  0.1217 -0.0449  0.0273
  198DOPC   O3224527   7.612   5.456   2.744 -0.5819  0.5085  0.2724
  198DOPC   C3224528   7.688   5.300   2.920  0.2149 -0.5308 -0.5425
  198DOPC   H2X24529   7.662   5.304   3.028 -0.8325 -0.8192 -0.7714
  198DOPC   H2Y24530   7.699   5.193   2.895 -0.0365 -0.6484 -0.1396
  198DOPC   C2324531   7.379   5.787   3.205  0.1744  0.3388  0.1429
  198DOPC   H3R24532   7.370   5.696   3.268 -1.5556 -0.4249 -1.1235
  198DOPC   H3S24533   7.284   5.846   3.205 -0.0525  0.0258 -1.8743
  198DOPC   C2424534   7.488   5.876   3.265 -0.7480 -0.4017 -0.6586
  198DOPC   H4R24535   7.506   5.974   3.216  4.7882 -0.3404  0.8122
  198DOPC   H4S24536   7.588   5.826   3.264 -1.0738 -1.3102  2.3133
  198DOPC   C2524537   7.455   5.907   3.418 -0.0820 -0.3140 -0.6749
  198DOPC   H5R24538   7.424   5.811   3.464  0.4295 -0.8585 -1.4346
  198DOPC   H5S24539   7.364   5.970   3.414 -0.9346 -1.4793 -0.2980
  198DOPC   C2624540   7.578   5.962   3.501 -0.1003  1.3198 -0.5923
  198DOPC   H6R24541   7.667   5.899   3.481  0.6043  1.8451  0.7152
  198DOPC   H6S24542   7.563   5.951   3.611  2.4439  1.6669 -0.1540
  198DOPC   C2724543   7.626   6.101   3.458  0.0467  0.8096 -0.1187
  198DOPC   H7R24544   7.534   6.162   3.455 -0.9638 -0.6713 -1.8830
  198DOPC   H7S24545   7.668   6.091   3.355  2.6316 -1.9662  1.0264
  198DOPC   C2824546   7.724   6.143   3.569  0.1075 -0.2652 -0.4534
  198DOPC   H8R24547   7.784   6.058   3.605  0.3104  0.5607  1.2263
  198DOPC   H8S24548   7.662   6.181   3.653  0.9758  0.3538 -0.0865
  198DOPC   C2924549   7.807   6.248   3.510  0.3562  0.6240 -0.2181
  198DOPC   H9R24550   7.776   6.289   3.413 -0.4344  0.1973 -0.1541
  198DOPC  C21024551   7.901   6.306   3.585  0.0345 -0.3370  0.1837
  198DOPC  H10R24552   7.945   6.396   3.541  1.8377 -0.7427  1.0566
  198DOPC  C21124553   7.932   6.277   3.729 -0.4562  0.2836  0.1491
  198DOPC  H11R24554   8.043   6.287   3.722 -0.4938  0.6032 -0.0301
  198DOPC  H11S24555   7.910   6.173   3.759  2.0457 -0.4680 -0.3392
  198DOPC  C21224556   7.875   6.382   3.827 -0.0986 -0.1681  0.5375
  198DOPC  H12R24557   7.768   6.362   3.850 -0.8157  2.3593 -0.2544
  198DOPC  H12S24558   7.878   6.478   3.771  2.1131 -1.3278 -1.4779
  198DOPC  C21324559   7.935   6.387   3.973  0.0206 -0.7968 -0.6650
  198DOPC  H13R24560   8.012   6.467   3.978 -2.4436  1.6489  1.1019
  198DOPC  H13S24561   7.982   6.290   3.998 -0.2221 -0.7050  0.1714
  198DOPC  C21424562   7.817   6.417   4.071  0.5401  0.6490  0.5757
  198DOPC  H14R24563   7.755   6.325   4.071 -1.1526  1.7116 -1.1361
  198DOPC  H14S24564   7.754   6.503   4.040  0.1538 -0.1486 -0.9493
  198DOPC  C21524565   7.876   6.453   4.207 -0.8275  0.6836 -0.0714
  198DOPC  H15R24566   7.937   6.546   4.207  0.6671 -0.2683  0.3017
  198DOPC  H15S24567   7.931   6.362   4.237  0.0833  1.4647  0.7068
  198DOPC  C21624568   7.769   6.463   4.325 -0.6459 -0.3396  0.6998
  198DOPC  H16R24569   7.708   6.370   4.321  0.5408 -1.1161 -1.1460
  198DOPC  H16S24570   7.688   6.537   4.320 -0.3380 -0.0687 -0.8968
  198DOPC  C21724571   7.850   6.459   4.459  0.2767 -0.1934 -0.3909
  198DOPC  H17R24572   7.925   6.541   4.465 -0.0689  0.2623 -1.8702
  198DOPC  H17S24573   7.909   6.365   4.455  2.1208  0.9308 -1.0744
  198DOPC  C21824574   7.761   6.460   4.589 -0.0949  0.4719 -0.1177
  198DOPC  H18R24575   7.690   6.374   4.591 -1.7862  1.8173  0.1677
  198DOPC  H18S24576   7.695   6.549   4.591 -3.3748 -1.7901  0.2467
  198DOPC  H18T24577   7.833   6.461   4.673  0.2071  1.2729 -0.3832
  198DOPC   C3324578   7.823   5.374   2.923 -0.2135 -0.2057 -0.6010
  198DOPC   H3X24579   7.877   5.389   2.827 -2.0273  1.8850 -1.3709
  198DOPC   H3Y24580   7.892   5.312   2.985  1.7474  0.3393 -2.1417
  198DOPC   C3424581   7.800   5.514   2.987 -0.4694  0.2671  0.3900
  198DOPC   H4X24582   7.740   5.502   3.079 -0.3484 -1.7619  0.2547
  198DOPC   H4Y24583   7.743   5.577   2.915  0.4910 -1.1140 -1.6753
  198DOPC   C3524584   7.932   5.574   3.023 -0.2941  0.0715 -0.8153
  198DOPC   H5X24585   7.900   5.667   3.075 -1.1230 -1.3570  1.3905
  198DOPC   H5Y24586   7.979   5.613   2.930  1.6805 -1.4235 -0.5056
  198DOPC   C3624587   8.025   5.491   3.119  0.0402 -0.3174  0.8079
  198DOPC   H6X24588   8.056   5.407   3.053 -0.7660 -0.2420  0.3185
  198DOPC   H6Y24589   8.120   5.542   3.145 -0.3592  1.6157 -1.1974
  198DOPC   C3724590   7.972   5.430   3.244  0.1189  1.3854  0.3274
  198DOPC   H7X24591   7.938   5.507   3.317 -1.4540 -0.3614  1.5063
  198DOPC   H7Y24592   7.887   5.369   3.207  0.5015  0.0426  1.5673
  198DOPC   C3824593   8.067   5.332   3.325 -0.0055 -0.1592  0.3975
  198DOPC   H8X24594   8.118   5.392   3.404  0.0557 -1.8837  1.7441
  198DOPC   H8Y24595   8.145   5.287   3.260 -0.5889 -1.2204  0.3977
  198DOPC   C3924596   7.995   5.228   3.403  0.4290 -0.1935  0.0125
  198DOPC   H9X24597   7.940   5.175   3.324  0.5559  2.8497 -2.3043
  198DOPC  C31024598   7.989   5.200   3.533  0.1661 -0.8383  0.6054
  198DOPC  H10X24599   7.939   5.105   3.559 -0.0117 -0.8985  0.0547
  198DOPC  C31124600   8.054   5.282   3.646 -0.5414  0.7039  0.0950
  198DOPC  H11X24601   7.980   5.335   3.710 -0.4795  0.4458  0.3858
  198DOPC  H11Y24602   8.115   5.362   3.598 -1.8273  0.3797 -2.1707
  198DOPC  C31224603   8.148   5.192   3.735  0.0100 -0.6217  0.1028
  198DOPC  H12X24604   8.220   5.148   3.662  0.4462  0.0065  0.1513
  198DOPC  H12Y24605   8.084   5.114   3.782 -1.0540  1.8816  3.0868
  198DOPC  C31324606   8.222   5.266   3.843  0.2295 -0.1468 -0.3592
  198DOPC  H13X24607   8.294   5.343   3.809  0.4772 -0.1205  0.2082
  198DOPC  H13Y24608   8.140   5.312   3.902 -1.8941 -1.5556 -2.0543
  198DOPC  C31424609   8.306   5.168   3.923  0.0298  0.0533  0.8991
  198DOPC  H14X24610   8.261   5.067   3.913  1.0364 -0.4485  1.2828
  198DOPC  H14Y24611   8.406   5.152   3.878  0.4421  0.0710  1.7728
  198DOPC  C31524612   8.290   5.191   4.071  0.6514  0.2827  0.0395
  198DOPC  H15X24613   8.182   5.198   4.098  1.0404  0.3948  1.6628
  198DOPC  H15Y24614   8.343   5.286   4.090  2.3213 -0.5703 -0.1716
  198DOPC  C31624615   8.350   5.077   4.151 -0.4621  0.2352 -0.3877
  198DOPC  H16X24616   8.314   4.977   4.119  1.1440 -0.4202 -0.2086
  198DOPC  H16Y24617   8.460   5.076   4.142 -0.5370 -1.6553 -1.7175
  198DOPC  C31724618   8.328   5.094   4.301  1.3960  1.2473 -0.1829
  198DOPC  H17X24619   8.377   5.189   4.333  1.3129  1.8487 -1.7249
  198DOPC  H17Y24620   8.217   5.093   4.311  0.9886  2.9756 -3.3342
  198DOPC  C31824621   8.395   4.980   4.371 -0.1842 -0.0686  0.0070
  198DOPC  H18X24622   8.504   4.987   4.353 -0.0161  0.0650  1.0108
  198DOPC  H18Y24623   8.373   4.990   4.480  0.0204 -0.6379  0.1102
  198DOPC  H18Z24624   8.361   4.881   4.334  1.5568 -1.0803  0.9580
  199DOPC     N24625   6.354   7.607   2.648  0.0629  0.2153  0.8559
  199DOPC   C1224626   6.422   7.517   2.750 -0.1270 -0.2398  0.0792
  199DOPC  H12A24627   6.527   7.542   2.749  0.4252 -2.3301 -1.6697
  199DOPC  H12B24628   6.418   7.415   2.715 -1.3310  0.5886 -2.3977
  199DOPC   C1324629   6.207   7.590   2.661  0.2242 -0.5433  0.9386
  199DOPC  H13A24630   6.171   7.619   2.759  1.4989 -0.4562  1.4043
  199DOPC  H13B24631   6.153   7.653   2.592 -0.0680 -0.0476  1.6113
  199DOPC  H13C24632   6.179   7.486   2.655  0.4355 -0.5540 -0.0944
  199DOPC   C1424633   6.402   7.595   2.509  0.9816 -0.3253  0.3101
  199DOPC  H14A24634   6.509   7.598   2.496  0.9590  0.9467  0.3218
  199DOPC  H14B24635   6.359   7.513   2.454 -0.3688  0.2411  0.4844
  199DOPC  H14C24636   6.374   7.687   2.460 -1.7385 -2.0742 -1.7054
  199DOPC   C1524637   6.380   7.749   2.686  0.1569 -0.2707  0.2944
  199DOPC  H15A24638   6.327   7.824   2.628  1.8313  0.4055 -0.4242
  199DOPC  H15B24639   6.485   7.769   2.675 -0.0755  0.8790 -0.0541
  199DOPC  H15C24640   6.346   7.764   2.788  2.0802  0.5143  0.8497
  199DOPC   C1124641   6.375   7.511   2.901 -0.6981 -0.5193  0.4865
  199DOPC  H11A24642   6.448   7.441   2.946  1.9078  0.8458 -1.3604
  199DOPC  H11B24643   6.397   7.614   2.938 -1.3895  0.2245 -1.0748
  199DOPC     P24644   6.190   7.316   2.900 -0.2325 -0.2323 -0.1377
  199DOPC   O1324645   6.309   7.243   2.844 -0.1062 -0.6413  0.1122
  199DOPC   O1424646   6.067   7.326   2.823  0.2589  0.0089 -0.0557
  199DOPC   O1224647   6.242   7.466   2.925 -0.3461  0.1792 -0.2611
  199DOPC   O1124648   6.171   7.262   3.050 -0.2601 -0.5330  0.3119
  199DOPC    C124649   6.155   7.356   3.160 -0.1899  0.4936  0.4672
  199DOPC    HA24650   6.049   7.386   3.174 -0.7841 -0.7639 -1.0162
  199DOPC    HB24651   6.213   7.450   3.149  0.1258  0.1368 -1.3114
  199DOPC    C224652   6.228   7.291   3.287  0.1573 -0.2000 -0.6042
  199DOPC    HS24653   6.228   7.369   3.367  2.0752  1.1619 -1.8697
  199DOPC   O2124654   6.360   7.269   3.254 -0.2554  0.2584 -0.0701
  199DOPC   C2124655   6.453   7.361   3.227 -0.0502 -0.6752 -0.9030
  199DOPC   O2224656   6.432   7.481   3.240 -0.1289  0.2309  0.3253
  199DOPC   C2224657   6.592   7.300   3.203  0.3348  0.1144 -0.4635
  199DOPC   H2R24658   6.594   7.315   3.093 -0.6458 -0.8738 -0.6301
  199DOPC   H2S24659   6.591   7.189   3.208  1.6938  0.1286  1.2358
  199DOPC    C324660   6.149   7.161   3.329 -0.7863 -0.0474  0.1408
  199DOPC    HX24661   6.135   7.093   3.242 -0.5231 -0.7499  0.6405
  199DOPC    HY24662   6.053   7.181   3.381 -0.3700  3.9384 -0.3170
  199DOPC   O3124663   6.224   7.077   3.420 -0.0571  0.4541  0.1373
  199DOPC   C3124664   6.229   7.126   3.546  0.0422 -0.1323 -0.7868
  199DOPC   O3224665   6.167   7.221   3.592  0.4068  0.1822 -0.3727
  199DOPC   C3224666   6.366   7.074   3.591  0.5290  1.4788  0.3083
  199DOPC   H2X24667   6.353   6.980   3.650  1.0035  1.7922  0.9204
  199DOPC   H2Y24668   6.425   7.046   3.501  0.4841  0.7460  0.4993
  199DOPC   C2324669   6.701   7.360   3.294 -0.1067 -0.0449  0.5534
  199DOPC   H3R24670   6.689   7.470   3.305 -0.7902 -0.0413 -0.1595
  199DOPC   H3S24671   6.804   7.344   3.256 -0.8082  0.5955 -1.7961
  199DOPC   C2424672   6.697   7.296   3.435 -0.0260 -0.6127  0.3979
  199DOPC   H4R24673   6.707   7.189   3.406 -1.5173 -0.6693  0.0087
  199DOPC   H4S24674   6.596   7.305   3.481 -0.5547 -0.2631 -0.8080
  199DOPC   C2524675   6.809   7.351   3.527 -0.1708 -0.5449 -0.2408
  199DOPC   H5R24676   6.795   7.461   3.527 -3.5930 -0.8645 -0.8992
  199DOPC   H5S24677   6.900   7.324   3.468 -0.6836  1.5644 -2.1403
  199DOPC   C2624678   6.797   7.306   3.669  0.2422  0.0159  0.4622
  199DOPC   H6R24679   6.790   7.195   3.663 -1.2990  0.1278 -0.4769
  199DOPC   H6S24680   6.695   7.327   3.707  0.7880  0.0158  2.0174
  199DOPC   C2724681   6.903   7.338   3.776 -0.6499 -0.8343 -0.8406
  199DOPC   H7R24682   6.905   7.449   3.781  1.0018 -0.9097  1.3612
  199DOPC   H7S24683   7.000   7.296   3.741 -0.3268 -1.7019  0.9984
  199DOPC   C2824684   6.852   7.293   3.909  0.8443  0.1286  0.1695
  199DOPC   H8R24685   6.803   7.194   3.901  1.3335 -0.1855  0.9674
  199DOPC   H8S24686   6.766   7.359   3.933  0.5524 -0.3808  0.5585
  199DOPC   C2924687   6.954   7.283   4.020  0.0821 -0.1799  0.1183
  199DOPC   H9R24688   7.027   7.203   4.002  0.2289  0.1740 -0.8947
  199DOPC  C21024689   6.971   7.362   4.128  0.3502  0.0359  0.1566
  199DOPC  H10R24690   7.063   7.338   4.184 -0.4705 -2.5714  0.5396
  199DOPC  C21124691   6.892   7.490   4.158  0.0636 -0.2472  0.0634
  199DOPC  H11R24692   6.788   7.484   4.120 -0.6944 -0.5445  2.0568
  199DOPC  H11S24693   6.946   7.581   4.127  0.2325  0.2856  1.8158
  199DOPC  C21224694   6.877   7.515   4.312  0.0488  0.4051  0.0289
  199DOPC  H12R24695   6.846   7.420   4.360 -0.2175  0.6983  0.4431
  199DOPC  H12S24696   6.787   7.578   4.331 -0.2686  0.4431 -1.4435
  199DOPC  C21324697   6.998   7.575   4.379 -0.3885 -0.1867 -0.0071
  199DOPC  H13R24698   6.990   7.686   4.381 -0.8752 -0.2273  1.4208
  199DOPC  H13S24699   7.090   7.544   4.324 -1.1917 -1.0784 -0.8944
  199DOPC  C21424700   7.012   7.520   4.525 -0.2220  0.0019  0.7585
  199DOPC  H14R24701   7.105   7.542   4.582 -0.0848  1.1958  0.1168
  199DOPC  H14S24702   6.993   7.411   4.518 -0.1549 -0.1463  2.4043
  199DOPC  C21524703   6.894   7.579   4.612 -0.6800  0.5333 -0.1705
  199DOPC  H15R24704   6.798   7.542   4.571 -0.7619  0.9555 -0.3575
  199DOPC  H15S24705   6.893   7.690   4.613  0.5824  0.5804 -1.1413
  199DOPC  C21624706   6.898   7.524   4.757 -1.1374 -0.0764 -0.1051
  199DOPC  H16R24707   6.996   7.556   4.800 -1.2427  1.0564 -0.6912
  199DOPC  H16S24708   6.890   7.413   4.761  0.0559 -0.2392 -1.3023
  199DOPC  C21724709   6.786   7.592   4.837 -0.3062 -0.3667  0.3888
  199DOPC  H17R24710   6.803   7.700   4.820  0.7571 -0.6103 -0.2816
  199DOPC  H17S24711   6.823   7.570   4.939  1.4345 -1.5256 -0.4258
  199DOPC  C21824712   6.648   7.541   4.792  0.1859  0.3870  0.5692
  199DOPC  H18R24713   6.668   7.432   4.804  0.4677  0.2399 -1.0150
  199DOPC  H18S24714   6.621   7.558   4.686 -1.1141 -1.5273  0.5443
  199DOPC  H18T24715   6.564   7.580   4.854 -0.3665  1.8542 -1.0318
  199DOPC   C3324716   6.451   7.163   3.678  0.0941 -0.4000  0.0150
  199DOPC   H3X24717   6.451   7.260   3.625 -0.1256 -0.0843  0.5784
  199DOPC   H3Y24718   6.552   7.119   3.690  0.0862 -0.7026 -0.9627
  199DOPC   C3424719   6.379   7.176   3.814 -0.1679 -0.0914 -0.9755
  199DOPC   H4X24720   6.355   7.075   3.853 -1.9282  0.3827 -0.7414
  199DOPC   H4Y24721   6.279   7.220   3.795 -0.4493 -0.3789 -0.1876
  199DOPC   C3524722   6.462   7.245   3.923 -0.1531 -0.4953 -0.8387
  199DOPC   H5X24723   6.480   7.348   3.884 -1.3158  0.3698  0.8174
  199DOPC   H5Y24724   6.564   7.200   3.925 -0.0242 -0.1759  0.5603
  199DOPC   C3624725   6.409   7.261   4.067  0.0260 -0.7429 -0.1940
  199DOPC   H6X24726   6.462   7.349   4.109  0.3078 -0.8026 -0.4174
  199DOPC   H6Y24727   6.299   7.273   4.064 -0.0321 -1.5007 -1.7705
  199DOPC   C3724728   6.440   7.141   4.161 -0.0392 -0.4737 -0.2147
  199DOPC   H7X24729   6.375   7.062   4.118 -0.6284  0.3419 -0.8432
  199DOPC   H7Y24730   6.543   7.105   4.139  0.6531 -0.6483  2.8376
  199DOPC   C3824731   6.421   7.181   4.308 -0.0466  0.5117  0.7163
  199DOPC   H8X24732   6.397   7.094   4.374 -1.5905  0.3978  0.0532
  199DOPC   H8Y24733   6.323   7.233   4.314  0.6908  2.0630 -0.3175
  199DOPC   C3924734   6.534   7.262   4.361  0.1519 -0.7078  0.0595
  199DOPC   H9X24735   6.527   7.365   4.321  0.3504 -0.2421  1.1852
  199DOPC  C31024736   6.616   7.246   4.462 -0.0811 -0.0373 -0.1684
  199DOPC  H10X24737   6.708   7.306   4.462  1.0112 -1.5786 -1.9969
  199DOPC  C31124738   6.619   7.117   4.542 -0.3859 -0.0022  0.7693
  199DOPC  H11X24739   6.714   7.062   4.522 -0.8119 -0.9035  1.2193
  199DOPC  H11Y24740   6.539   7.044   4.520  0.2091 -0.5961  0.5244
  199DOPC  C31224741   6.620   7.150   4.689 -0.4843 -0.3203  0.0333
  199DOPC  H12X24742   6.529   7.198   4.730 -0.4911  0.2790 -0.6643
  199DOPC  H12Y24743   6.702   7.219   4.717 -1.2474  0.9441 -0.7628
  199DOPC  C31324744   6.645   7.022   4.777 -0.2059  0.0609  0.0123
  199DOPC  H13X24745   6.588   6.932   4.746 -1.1899 -0.5273  3.1377
  199DOPC  H13Y24746   6.754   7.002   4.787 -0.0074  0.6941 -0.7625
  199DOPC  C31424747   6.611   7.042   4.929 -0.0920 -0.3279  0.2162
  199DOPC  H14X24748   6.669   7.131   4.959  2.2797 -1.4184 -0.8426
  199DOPC  H14Y24749   6.503   7.067   4.932  0.1678  1.2480 -1.4820
  199DOPC  C31524750   6.654   6.924   5.015 -0.6626 -0.6806  0.5071
  199DOPC  H15X24751   6.761   6.904   4.993  0.0415  2.4212  0.6947
  199DOPC  H15Y24752   6.591   6.835   4.994 -3.8918  1.4289  0.6590
  199DOPC  C31624753   6.640   6.955   5.164  1.0134 -0.5371  1.1131
  199DOPC  H16X24754   6.693   6.875   5.220  0.7605 -1.2271  0.3963
  199DOPC  H16Y24755   6.673   7.059   5.182 -0.3089  0.2433 -0.6024
  199DOPC  C31724756   6.493   6.941   5.208 -0.0970  0.1623 -0.3113
  199DOPC  H17X24757   6.437   7.033   5.181  1.1088  1.9777  2.7634
  199DOPC  H17Y24758   6.449   6.846   5.172  1.4641 -0.5048 -0.5272
  199DOPC  C31824759   6.492   6.921   5.361 -0.4043 -0.3429  0.8610
  199DOPC  H18X24760   6.545   7.006   5.410 -1.1386  0.4476  0.3319
  199DOPC  H18Y24761   6.394   6.906   5.410  0.4271  0.6433  2.9605
  199DOPC  H18Z24762   6.552   6.831   5.384  0.1132 -0.0541  0.6814
  200DOPC     N24763   1.196   1.138   2.992  0.3558  0.1486  0.3711
  200DOPC   C1224764   1.171   1.290   2.989 -0.0718 -0.3257 -0.2499
  200DOPC  H12A24765   1.207   1.323   2.892  0.5770  0.9821  0.4051
  200DOPC  H12B24766   1.222   1.334   3.073  1.8954 -3.2858  0.2630
  200DOPC   C1324767   1.126   1.069   3.104  0.5397  0.0802  1.3718
  200DOPC  H13A24768   1.020   1.070   3.087  0.6741  1.2105  0.4111
  200DOPC  H13B24769   1.157   0.966   3.103 -0.6147 -0.2731  0.4808
  200DOPC  H13C24770   1.136   1.114   3.202  1.2938  0.4068  1.1623
  200DOPC   C1424771   1.339   1.103   3.013 -0.6251 -0.3272 -0.2014
  200DOPC  H14A24772   1.409   1.161   2.955 -0.1484  1.6167  2.1633
  200DOPC  H14B24773   1.372   1.132   3.111 -0.5153  1.1557 -0.6604
  200DOPC  H14C24774   1.352   0.998   2.991 -0.3489 -0.0848 -1.2567
  200DOPC   C1524775   1.158   1.076   2.863  0.4844  0.3893 -0.0438
  200DOPC  H15A24776   1.055   1.094   2.835  1.0430  2.8499 -0.7357
  200DOPC  H15B24777   1.165   0.968   2.869 -0.8361  0.2033 -1.2487
  200DOPC  H15C24778   1.225   1.108   2.784 -1.1865  1.9518 -0.9140
  200DOPC   C1124779   1.017   1.342   2.987 -0.6014  0.3620  0.4442
  200DOPC  H11A24780   0.984   1.314   3.089  2.0416 -0.5387  1.1379
  200DOPC  H11B24781   1.023   1.453   2.983  1.0726  0.4215  2.5958
  200DOPC     P24782   0.818   1.185   2.885 -0.0622  0.4876 -0.4210
  200DOPC   O1324783   0.862   1.053   2.836 -0.0928 -0.1225  0.1472
  200DOPC   O1424784   0.701   1.243   2.813 -0.1452  0.2706 -0.4651
  200DOPC   O1224785   0.943   1.283   2.879 -0.2428  0.1705 -0.4250
  200DOPC   O1124786   0.783   1.169   3.035 -0.1582  0.1558 -0.3367
  200DOPC    C124787   0.674   1.088   3.077  0.1459 -0.3519 -0.6358
  200DOPC    HA24788   0.672   0.989   3.028  2.1933 -0.0752 -1.3642
  200DOPC    HB24789   0.582   1.151   3.081  2.0994  2.8265  4.3861
  200DOPC    C224790   0.700   1.054   3.227  0.2971  0.8862  0.4597
  200DOPC    HS24791   0.797   1.002   3.243 -0.5216 -0.8296  0.1091
  200DOPC   O2124792   0.589   0.963   3.253  0.4572 -0.4791 -0.3792
  200DOPC   C2124793   0.617   0.870   3.344 -0.0997  0.6351 -0.1349
  200DOPC   O2224794   0.718   0.852   3.404 -0.5664  0.5161 -0.3231
  200DOPC   C2224795   0.495   0.775   3.353 -0.2997  0.7365  0.0323
  200DOPC   H2R24796   0.474   0.735   3.251 -1.9555  0.3001  0.5205
  200DOPC   H2S24797   0.405   0.834   3.379  0.5442  2.0926 -0.0474
  200DOPC    C324798   0.677   1.184   3.308  0.5829  0.1837 -0.5928
  200DOPC    HX24799   0.572   1.221   3.312  1.7959  3.8564  1.6228
  200DOPC    HY24800   0.737   1.260   3.254  2.2358 -0.5391  0.1725
  200DOPC   O3124801   0.726   1.164   3.445  0.2374 -0.5285  0.0255
  200DOPC   C3124802   0.857   1.137   3.455 -0.7132 -0.8695  0.4014
  200DOPC   O3224803   0.935   1.147   3.362  0.1407 -0.8046 -0.2696
  200DOPC   C3224804   0.891   1.082   3.595  0.2159  0.1816 -0.2326
  200DOPC   H2X24805   0.842   1.147   3.670  0.3570 -0.5332  0.4949
  200DOPC   H2Y24806   0.837   0.984   3.595 -0.2395  0.4284 -0.4310
  200DOPC   C2324807   0.529   0.659   3.454 -0.0586 -0.0528 -0.1002
  200DOPC   H3R24808   0.627   0.612   3.432  0.7564  0.8923  1.3211
  200DOPC   H3S24809   0.456   0.577   3.436  0.7654 -0.7832 -0.1799
  200DOPC   C2424810   0.541   0.700   3.600  0.7781  0.1112  0.2710
  200DOPC   H4R24811   0.448   0.745   3.639  0.3422 -0.1977 -0.3958
  200DOPC   H4S24812   0.621   0.776   3.617  1.2927 -0.3861  0.1072
  200DOPC   C2524813   0.580   0.582   3.690 -0.3416  0.0182  0.0846
  200DOPC   H5R24814   0.681   0.550   3.659 -0.1114  1.1684 -0.3974
  200DOPC   H5S24815   0.507   0.504   3.660 -0.4720 -0.3159  1.2197
  200DOPC   C2624816   0.589   0.620   3.842 -0.4825  0.1183 -0.0710
  200DOPC   H6R24817   0.485   0.645   3.874 -1.2585 -0.2491 -2.1346
  200DOPC   H6S24818   0.653   0.710   3.854 -0.7165  0.1324  1.1722
  200DOPC   C2724819   0.630   0.497   3.939  0.2430  0.1432  0.1878
  200DOPC   H7R24820   0.730   0.457   3.913  0.2428 -0.6684  1.3419
  200DOPC   H7S24821   0.563   0.409   3.924  1.0449 -0.4862  0.2321
  200DOPC   C2824822   0.637   0.534   4.087 -0.1803  0.0864  0.3310
  200DOPC   H8R24823   0.602   0.441   4.136  1.5391 -1.4606 -1.2421
  200DOPC   H8S24824   0.558   0.607   4.114 -0.1761 -0.1994  1.1509
  200DOPC   C2924825   0.764   0.594   4.136  0.5685  0.2461  0.0016
  200DOPC   H9R24826   0.821   0.652   4.062  2.6571  0.6801  1.8618
  200DOPC  C21024827   0.808   0.601   4.264 -0.1060  0.1724  0.2301
  200DOPC  H10R24828   0.904   0.653   4.277 -0.5592  0.7053  1.6325
  200DOPC  C21124829   0.744   0.546   4.391  0.2490  0.4918  0.1564
  200DOPC  H11R24830   0.650   0.496   4.360  0.3674  1.0319 -1.1354
  200DOPC  H11S24831   0.713   0.621   4.468 -0.4596  0.1536  0.2116
  200DOPC  C21224832   0.818   0.443   4.462 -0.8621 -0.1906 -0.6899
  200DOPC  H12R24833   0.850   0.362   4.394 -1.1355 -0.9794  0.0985
  200DOPC  H12S24834   0.755   0.384   4.532 -0.9387 -0.7630 -1.2309
  200DOPC  C21324835   0.941   0.494   4.539 -0.1851 -0.0307 -0.6893
  200DOPC  H13R24836   0.905   0.547   4.630  1.1301  0.3663 -0.3795
  200DOPC  H13S24837   1.005   0.566   4.483 -0.3315  0.0940 -0.6956
  200DOPC  C21424838   1.037   0.376   4.580  0.3202 -0.6223 -0.4176
  200DOPC  H14R24839   1.084   0.339   4.487  0.9929 -0.8440  0.0033
  200DOPC  H14S24840   0.974   0.294   4.618 -1.5951  1.4301  1.1256
  200DOPC  C21524841   1.142   0.414   4.687 -0.4338 -0.2236  0.0508
  200DOPC  H15R24842   1.149   0.324   4.751  1.2250 -0.7584 -0.8342
  200DOPC  H15S24843   1.107   0.511   4.729  0.5790  0.2550 -0.1893
  200DOPC  C21624844   1.283   0.438   4.627  0.2716  0.5485  0.6614
  200DOPC  H16R24845   1.288   0.516   4.548  0.6347 -0.0837  0.0497
  200DOPC  H16S24846   1.307   0.338   4.585  1.3180  1.5489 -1.2520
  200DOPC  C21724847   1.387   0.466   4.735  0.0281 -0.0035  0.3072
  200DOPC  H17R24848   1.348   0.555   4.789  1.5497 -0.2260  1.8549
  200DOPC  H17S24849   1.485   0.499   4.694 -1.5514  2.8620 -1.5548
  200DOPC  C21824850   1.405   0.356   4.836  0.1103  0.6174 -0.0025
  200DOPC  H18R24851   1.483   0.399   4.903 -0.8338  1.1849  0.7566
  200DOPC  H18S24852   1.427   0.259   4.788 -1.5658  0.4045 -0.3996
  200DOPC  H18T24853   1.315   0.346   4.900 -0.8960  2.1309 -1.0897
  200DOPC   C3324854   1.035   1.080   3.635 -0.1405 -0.4266 -0.0823
  200DOPC   H3X24855   1.074   1.183   3.650  0.4198 -0.7377  0.7115
  200DOPC   H3Y24856   1.099   1.023   3.565  0.7717  0.4567  0.0107
  200DOPC   C3424857   1.059   1.005   3.764  0.4769  0.5868 -0.5850
  200DOPC   H4X24858   1.169   1.006   3.778  0.3420  0.5852  0.5395
  200DOPC   H4Y24859   1.027   0.899   3.751  0.6633  0.4801 -0.1735
  200DOPC   C3524860   1.012   1.083   3.887 -0.3982 -0.1720  0.0772
  200DOPC   H5X24861   0.902   1.096   3.895 -0.5731 -1.3810 -0.1538
  200DOPC   H5Y24862   1.054   1.183   3.866  0.1339 -0.5770 -0.8284
  200DOPC   C3624863   1.053   1.013   4.018  0.2409  0.5067 -0.0385
  200DOPC   H6X24864   1.057   0.908   3.983  2.6139  1.8951 -4.8115
  200DOPC   H6Y24865   1.160   1.039   4.032  1.2242 -1.8593 -2.3152
  200DOPC   C3724866   0.973   1.055   4.147 -0.3964 -0.5556 -0.5845
  200DOPC   H7X24867   0.974   1.165   4.158  3.6467 -0.5680  1.1269
  200DOPC   H7Y24868   0.870   1.014   4.141 -1.3710  1.7371 -0.2697
  200DOPC   C3824869   1.045   0.996   4.266  0.2853  0.4159  0.8119
  200DOPC   H8X24870   1.152   1.024   4.253  0.3170  0.9100  2.0290
  200DOPC   H8Y24871   1.043   0.886   4.252 -0.8922  0.5722 -0.4454
  200DOPC   C3924872   0.968   1.023   4.388 -0.2251  0.3690  0.5803
  200DOPC   H9X24873   0.884   1.091   4.368  0.9045  0.8509 -3.1629
  200DOPC  C31024874   0.996   0.974   4.509  0.2614 -0.1545  0.5177
  200DOPC  H10X24875   0.934   1.014   4.590 -0.5532  0.2706 -0.2962
  200DOPC  C31124876   1.104   0.875   4.547  0.1422 -0.6488 -0.0355
  200DOPC  H11X24877   1.156   0.840   4.454 -0.5843  1.2115 -1.1988
  200DOPC  H11Y24878   1.050   0.789   4.592 -3.1568  1.3286  0.0431
  200DOPC  C31224879   1.212   0.925   4.650  0.3881  0.2096  0.1609
  200DOPC  H12X24880   1.165   0.975   4.737 -0.4711 -0.3030  0.0160
  200DOPC  H12Y24881   1.284   0.998   4.609 -0.3610  0.4755 -0.7269
  200DOPC  C31324882   1.292   0.812   4.700 -0.2236  0.1702 -0.4427
  200DOPC  H13X24883   1.235   0.774   4.788 -1.4396  1.3311 -0.7067
  200DOPC  H13Y24884   1.308   0.731   4.626 -3.8256 -1.3318  0.2152
  200DOPC  C31424885   1.426   0.863   4.741 -0.0397  0.4335  0.1012
  200DOPC  H14X24886   1.474   0.773   4.784 -0.2495  1.2550  2.1830
  200DOPC  H14Y24887   1.482   0.896   4.651  0.1563 -0.4446 -0.1001
  200DOPC  C31524888   1.421   0.965   4.856 -0.3345 -0.1474  0.7352
  200DOPC  H15X24889   1.368   1.060   4.834  3.0285  1.9654  1.0589
  200DOPC  H15Y24890   1.527   0.996   4.870 -0.6864  1.5090  0.0130
  200DOPC  C31624891   1.376   0.901   4.989 -0.3603 -0.6296 -0.0174
  200DOPC  H16X24892   1.273   0.861   4.975  0.0437 -1.9848  0.6898
  200DOPC  H16Y24893   1.447   0.818   5.011  0.8192 -0.3651 -2.5132
  200DOPC  C31724894   1.378   0.998   5.110  0.0460 -0.3009  0.6256
  200DOPC  H17X24895   1.342   0.935   5.195 -0.3036  0.9944  1.4826
  200DOPC  H17Y24896   1.482   1.022   5.142 -0.2077  1.4117  0.3069
  200DOPC  C31824897   1.299   1.131   5.099 -0.4759  0.5793 -0.6246
  200DOPC  H18X24898   1.190   1.110   5.087 -0.5965 -0.0855  1.2996
  200DOPC  H18Y24899   1.310   1.184   5.196 -1.1736 -0.3650 -0.0019
  200DOPC  H18Z24900   1.335   1.190   5.012 -0.3148  0.6312 -0.5226
  201SOD    SOD24901   1.783   2.192   8.597  0.2347  0.2228 -0.1545
  202SOD    SOD24902   5.384   6.181   2.903  0.6163 -0.3976  0.1137
  203SOD    SOD24903   7.132   6.086   7.448 -0.2821  0.3656  0.3543
  204SOD    SOD24904   4.410   5.286   2.520 -0.1399  0.0459  0.4494
  205SOD    SOD24905   1.569   6.596   7.131  0.4897 -0.2804 -0.3178
  206SOD    SOD24906   6.901   7.505   1.889 -0.2162 -0.3671 -0.0644
  207SOD    SOD24907   1.891   1.474   1.901  0.1911 -0.1881 -0.3088
  208SOD    SOD24908   5.079   6.461   7.688  0.1419  0.2163 -0.2172
  209SOD    SOD24909   2.015   1.822   1.491 -0.5732  0.4285 -0.0644
  210SOD    SOD24910   3.229   2.636   7.231  0.1427  0.0134 -0.0789
  211SOD    SOD24911   5.267   7.236   9.047  0.0946 -0.4307 -0.1430
  212SOD    SOD24912   0.263   2.267   7.394 -0.3852  0.4827  0.2259
  213SOD    SOD24913   6.446   3.286   2.094  0.3430  0.1887 -0.0673
  214SOD    SOD24914   0.803   3.513   7.667  0.0036 -0.3267 -0.4565
  215SOD    SOD24915   6.376   1.909   7.908 -0.2050 -0.3338 -0.2517
  216SOD    SOD24916   4.110   5.495   7.803 -0.8458 -0.9821 -0.4268
  217SOD    SOD24917   2.618   4.485   2.565  0.0790 -0.5658  0.4395
  218SOD    SOD24918   6.658   6.045   8.204  0.5901 -0.2090  0.1383
  219SOD    SOD24919   5.445   1.708   8.909 -0.7301 -0.3422  0.1221
  220SOD    SOD24920   1.149   0.856   2.097  0.3033 -0.0497  0.0821
  221SOD    SOD24921   6.254   2.799   2.787  0.2085 -0.4418 -0.4888
  222SOD    SOD24922   4.376   3.618   9.156  0.1800  0.0337 -0.0440
  223SOD    SOD24923   5.938   3.351   1.537 -0.0963  0.1496  0.3269
  224SOD    SOD24924   5.124   3.778   2.259  0.2489 -0.2633  0.2190
  225SOD    SOD24925   1.240   7.489   3.204  0.1419 -0.1275 -0.1446
  226SOD    SOD24926   2.239   1.269   8.971 -0.2241 -0.2259  0.1820
  227CLA    CLA24927   6.942   2.889   2.496  0.0583  0.3654  0.1465
  228CLA    CLA24928   7.432   4.120   1.661 -0.0347  0.1015  0.2463
  229CLA    CLA24929   6.227   3.280   1.902 -0.1794 -0.5030  0.0774
  230CLA    CLA24930   2.195   1.900   8.782 -0.0558  0.5094 -0.1405
  231CLA    CLA24931   5.065   1.036   7.478  0.4219  0.1354 -0.5436
  232CLA    CLA24932   7.524   6.281   8.821 -0.5330 -0.5076  0.2013
  233CLA    CLA24933   7.286   5.981   8.404  0.2489  0.1854 -0.3646
  234CLA    CLA24934   1.604   2.563   8.046 -0.0721 -0.1163 -0.3709
  235CLA    CLA24935   6.267   6.901   1.278 -0.1726 -0.3221 -0.1257
  236CLA    CLA24936   0.135   2.679   8.809  0.2421  0.2280 -0.3818
  237CLA    CLA24937   6.712   5.009   7.155  0.2327  0.0294 -0.2045
  238CLA    CLA24938   1.259   3.913   2.618 -0.2118 -0.0583 -0.5277
  239CLA    CLA24939   1.952   7.456   1.574  0.2152  0.2693 -0.1165
  240CLA    CLA24940   4.662   5.500   7.918 -0.3062 -0.6862 -0.0985
  241CLA    CLA24941   4.047   4.026   0.847 -0.3513 -0.1930 -0.0839
  242CLA    CLA24942   1.055   1.192   8.133  0.1633 -0.3030  0.4971
  243CLA    CLA24943   4.729   0.587   1.548 -0.1525  0.0955  0.2495
  244CLA    CLA24944   3.333   5.702   1.157  0.0441 -0.3343 -0.1164
  245CLA    CLA24945   1.927   2.079   2.249 -0.1800 -0.0805  0.0459
  246CLA    CLA24946   5.457   7.539   8.252 -0.2365 -0.3005  0.3963
  247CLA    CLA24947   5.593   5.089   2.062 -0.1036  0.1224  0.5846
  248CLA    CLA24948   3.178   4.609   1.589 -0.0731  0.0099  0.3990
  249CLA    CLA24949   6.977   1.349   2.609  0.1700  0.1508 -0.3353
  250CLA    CLA24950   3.580   3.169   9.120 -0.1583  0.1536 -0.3383
  251CLA    CLA24951   5.274   2.768   8.541 -0.3471 -0.0507  0.0502
  252CLA    CLA24952   0.013   0.441   2.566  0.4031 -0.5787  0.0086
  253TIP3   OH224953   1.400   2.685   9.171  0.3565 -0.2394  0.5154
  253TIP3    H124954   1.352   2.602   9.166  0.2236 -0.1199 -0.6055
  253TIP3    H224955   1.332   2.752   9.171  0.4126 -0.1274  2.7083
  254TIP3   OH224956   1.898   1.396   7.806 -0.2386  0.1292  0.3286
  254TIP3    H124957   1.906   1.418   7.713 -0.4681 -0.3933  0.1809
  254TIP3    H224958   1.804   1.384   7.819 -0.0799 -1.3383  0.2636
  255TIP3   OH224959   5.445   4.988   7.488 -0.1192 -0.6161 -0.1362
  255TIP3    H124960   5.414   4.919   7.429 -2.3543 -0.7230  1.0490
  255TIP3    H224961   5.506   5.040   7.435 -1.5308 -1.0616 -2.3298
  256TIP3   OH224962   2.327   0.517   7.949  0.4900  0.1472 -0.4799
  256TIP3    H124963   2.377   0.576   8.004 -2.0001  1.0480  1.0017
  256TIP3    H224964   2.309   0.441   8.006 -0.9365  0.4617 -0.4762
  257TIP3   OH224965   1.713   6.139   7.477  0.5776 -0.7256 -0.6717
  257TIP3    H124966   1.717   6.043   7.483  0.5349 -0.7432 -0.8992
  257TIP3    H224967   1.636   6.156   7.424  0.5079 -0.5582 -0.5164
  258TIP3   OH224968   6.235   5.132   6.161 -0.1705  0.0799 -0.6047
  258TIP3    H124969   6.312   5.151   6.215 -0.6142  0.0540  0.0450
  258TIP3    H224970   6.218   5.214   6.115 -0.1698  0.2910 -0.2276
  259TIP3   OH224971   0.850   2.457   7.596 -0.3101  0.1981  0.4183
  259TIP3    H124972   0.755   2.457   7.601 -0.2721  0.3788  1.4803
  259TIP3    H224973   0.874   2.366   7.610 -0.2809  0.4132  1.9467
  260TIP3   OH224974   4.864   6.471   6.992 -0.6223  0.4014 -0.6513
  260TIP3    H124975   4.836   6.383   7.014  1.4511  0.2985  2.1254
  260TIP3    H224976   4.783   6.522   6.989 -1.6096 -0.9361  1.2546
  261TIP3   OH224977   1.298   2.425   9.097 -0.4853 -0.1509  0.0805
  261TIP3    H124978   1.268   2.372   9.171 -1.6687  0.2246 -0.1063
  261TIP3    H224979   1.331   2.362   9.034  0.5973 -0.4721  0.9409
  262TIP3   OH224980   0.717   7.059   7.019  0.1503  0.4050  0.0739
  262TIP3    H124981   0.757   7.051   6.933 -1.6962 -1.1261 -0.7202
  262TIP3    H224982   0.754   6.986   7.070 -0.9278 -0.5174 -0.4089
  263TIP3   OH224983   4.966   4.412   9.560  0.2047  0.0853 -0.5108
  263TIP3    H124984   4.887   4.456   9.591 -0.0912  0.0449 -1.1920
  263TIP3    H224985   5.017   4.480   9.517  0.7114  0.1840  0.2212
  264TIP3   OH224986   2.925   1.515   9.376  0.0321  0.3034  0.0411
  264TIP3    H124987   2.988   1.552   9.314  1.4505  1.8908  2.2832
  264TIP3    H224988   2.932   1.570   9.453 -3.8173  0.2923  0.6323
  265TIP3   OH224989   4.706   0.893   8.418  0.1780  0.0189 -0.0833
  265TIP3    H124990   4.718   0.916   8.510 -0.9344 -0.6681  0.2491
  265TIP3    H224991   4.761   0.955   8.371 -0.6335  1.5639  0.9366
  266TIP3   OH224992   2.629   6.947   7.405  0.1317  0.0971  0.3445
  266TIP3    H124993   2.580   6.922   7.482  0.5528  1.8604  1.2435
  266TIP3    H224994   2.710   6.984   7.439  0.2828  1.0134 -0.9299
  267TIP3   OH224995   6.743   4.279   9.287  0.3945 -0.0267 -0.3639
  267TIP3    H124996   6.761   4.237   9.371  0.3954  1.0991  0.2252
  267TIP3    H224997   6.820   4.334   9.271  0.4032 -0.2549 -1.1124
  268TIP3   OH224998   0.724   0.673   8.912 -0.1849 -0.7827  0.2476
  268TIP3    H124999   0.766   0.724   8.981  1.1575 -1.1054 -0.3032
  268TIP3    H225000   0.686   0.738   8.853  1.5615 -0.3646 -0.4826
  269TIP3   OH225001   5.148   4.023   9.506  0.4206 -0.1117  0.5579
  269TIP3    H125002   5.199   4.051   9.430 -0.1710 -0.2018  0.1241
  269TIP3    H225003   5.057   4.040   9.482  0.3275  1.8243  2.0480
  270TIP3   OH225004   0.358   2.498   8.187  0.1023 -0.0554 -0.6140
  270TIP3    H125005   0.301   2.478   8.261 -1.7567 -0.0575 -1.9773
  270TIP3    H225006   0.378   2.591   8.196  2.3291 -0.6526  1.4472
  271TIP3   OH225007   3.068   6.849   7.223  0.1836  0.3148  0.4502
  271TIP3    H125008   3.066   6.799   7.141  0.7397 -0.8007  1.0887
  271TIP3    H225009   3.097   6.786   7.289 -0.7278  1.0609  1.6113
  272TIP3   OH225010   7.524   6.896   8.011  0.5980  0.2483  0.3761
  272TIP3    H125011   7.544   6.836   7.939 -2.2810 -2.5306  1.6375
  272TIP3    H225012   7.574   6.863   8.085  0.4900  0.6127  0.6134
  273TIP3   OH225013   1.891   5.283   6.738  1.1151  0.0446 -0.9971
  273TIP3    H125014   1.878   5.195   6.703 -0.7491 -0.9118  1.7339
  273TIP3    H225015   1.948   5.271   6.814 -1.0293  0.6989  0.8451
  274TIP3   OH225016   4.443   1.421   7.624  0.2728 -0.0310 -0.2646
  274TIP3    H125017   4.460   1.512   7.649  0.7765 -0.0108 -0.6448
  274TIP3    H225018   4.349   1.409   7.637  0.1355  0.6640 -0.5698
  275TIP3   OH225019   0.858   6.102   7.817 -0.1630 -0.1259  0.3710
  275TIP3    H125020   0.924   6.053   7.867  0.0115 -0.0876  0.1791
  275TIP3    H225021   0.789   6.038   7.800 -0.4712  0.0018  1.1207
  276TIP3   OH225022   5.957   6.883   7.500 -0.4090 -0.3401  0.2197
  276TIP3    H125023   6.025   6.850   7.442 -0.1187 -0.4049  0.5911
  276TIP3    H225024   5.930   6.967   7.461  1.0266  0.4933  0.9294
  277TIP3   OH225025   2.484   1.791   8.810 -0.0111  0.1615 -0.4641
  277TIP3    H125026   2.389   1.801   8.805 -0.1290 -0.0759  0.9746
  277TIP3    H225027   2.502   1.708   8.766 -0.5535 -0.1879 -0.0328
  278TIP3   OH225028   6.772   5.223   9.056 -0.2685  0.6629 -0.0487
  278TIP3    H125029   6.725   5.240   8.975  0.4615 -2.0168 -1.1357
  278TIP3    H225030   6.706   5.188   9.116 -0.4941  1.1458 -0.0098
  279TIP3   OH225031   5.974   3.721   9.215  0.8896  0.3106 -0.1335
  279TIP3    H125032   5.980   3.811   9.247  1.9923  0.1657  0.1432
  279TIP3    H225033   6.056   3.708   9.167  0.3293 -0.2603 -0.9415
  280TIP3   OH225034   3.330   2.106   9.176  0.0692 -0.0598  0.1502
  280TIP3    H125035   3.306   2.183   9.229 -0.5245  0.7387 -1.2139
  280TIP3    H225036   3.384   2.142   9.106  2.3317 -1.3412  1.1384
  281TIP3   OH225037   6.824   4.570   9.622 -0.4375  0.0502 -0.0258
  281TIP3    H125038   6.766   4.497   9.643  0.9761 -0.5166  2.2711
  281TIP3    H225039   6.867   4.544   9.541 -1.2465 -0.8461 -0.1788
  282TIP3   OH225040   1.395   4.406   8.993  0.2383  0.1456  0.4985
  282TIP3    H125041   1.451   4.433   8.921  0.3049 -0.3643  0.3506
  282TIP3    H225042   1.308   4.436   8.968  0.3372  0.3782  0.4269
  283TIP3   OH225043   1.400   3.821   7.661 -0.3421 -0.5242 -0.2542
  283TIP3    H125044   1.310   3.849   7.677 -0.2762 -0.9974  1.0534
  283TIP3    H225045   1.417   3.847   7.570 -1.9665 -0.9229 -0.7064
  284TIP3   OH225046   2.813   0.008   1.219  0.1404 -0.1015 -0.0734
  284TIP3    H125047   2.884  -0.055   1.228  0.2210  0.0848  0.7059
  284TIP3    H225048   2.765   0.002   1.302 -0.7599 -0.2254 -0.5802
  285TIP3   OH225049   4.926   2.862   2.456 -0.1943  0.1503 -0.1010
  285TIP3    H125050   4.853   2.807   2.485  1.0689 -1.7576 -0.3106
  285TIP3    H225051   4.985   2.866   2.531  0.6352 -0.4587 -0.6905
  286TIP3   OH225052   0.657   2.600   2.814  0.8800 -0.4284  0.2014
  286TIP3    H125053   0.705   2.518   2.825 -0.0264 -0.8451  1.3012
  286TIP3    H225054   0.604   2.608   2.894 -0.5421  0.2282 -0.7536
  287TIP3   OH225055   6.407   3.964   2.429 -0.7218  0.0955 -0.0055
  287TIP3    H125056   6.445   3.951   2.516  0.2458 -1.1260 -0.5898
  287TIP3    H225057   6.316   3.988   2.447 -0.4515  0.2231  1.3430
  288TIP3   OH225058   7.090   3.522   1.756  0.4328 -0.4949 -0.0356
  288TIP3    H125059   7.156   3.459   1.727 -0.7851 -0.7812 -2.4512
  288TIP3    H225060   7.117   3.605   1.718 -0.2142 -0.4746 -0.4750
  289TIP3   OH225061   6.843   1.629   0.655  0.3531  0.4554 -0.3212
  289TIP3    H125062   6.934   1.605   0.642  0.5759  1.5961 -1.1027
  289TIP3    H225063   6.798   1.547   0.675  1.8916  0.1808  2.3328
  290TIP3   OH225064   6.460   1.541   2.502 -0.3282 -0.4657  0.2689
  290TIP3    H125065   6.551   1.571   2.504  0.2308 -2.0778  1.3170
  290TIP3    H225066   6.467   1.448   2.481 -1.6949 -0.7640  1.0557
  291TIP3   OH225067   5.530   2.292   0.905 -0.0413 -0.0617  0.2012
  291TIP3    H125068   5.460   2.259   0.850  0.4298  0.4488 -0.7345
  291TIP3    H225069   5.610   2.255   0.867  0.1979 -0.7647  1.3441
  292TIP3   OH225070   0.647   2.118   1.595  0.4202  0.0736 -0.4556
  292TIP3    H125071   0.691   2.033   1.587 -1.7261 -1.4126  1.9324
  292TIP3    H225072   0.565   2.106   1.548 -0.2467  0.4986  0.5629
  293TIP3   OH225073   3.968   1.191   0.909  0.7382  0.0424 -0.6853
  293TIP3    H125074   3.932   1.164   0.825  1.2161  1.7726 -1.4946
  293TIP3    H225075   4.057   1.222   0.889  0.3850  1.7772  0.1637
  294TIP3   OH225076   4.205   4.833   2.656 -0.0853  0.0065 -0.1921
  294TIP3    H125077   4.140   4.778   2.700 -2.0663  1.7488 -0.7858
  294TIP3    H225078   4.207   4.798   2.566 -0.3701  0.0693 -0.2257
  295TIP3   OH225079   2.141   2.359   2.120 -0.3103 -0.1759 -0.5599
  295TIP3    H125080   2.205   2.290   2.103 -2.7686 -3.0689  0.8186
  295TIP3    H225081   2.099   2.374   2.035  0.6504  0.0803 -0.9977
  296TIP3   OH225082   6.873   3.844   1.588 -0.5851  0.4578  0.0882
  296TIP3    H125083   6.879   3.854   1.683 -0.1142 -0.2319  0.1398
  296TIP3    H225084   6.902   3.928   1.553  0.9275  0.1437  0.5210
  297TIP3   OH225085   4.887   6.577   2.251  0.3155 -1.0388  0.1089
  297TIP3    H125086   4.939   6.496   2.251  0.2472 -1.0978 -0.9445
  297TIP3    H225087   4.897   6.611   2.162  0.1747  0.0090  0.4823
  298TIP3   OH225088   5.266   7.078   0.978  0.1331  0.4503 -0.7151
  298TIP3    H125089   5.244   7.092   1.070  1.8375  0.3057 -0.2465
  298TIP3    H225090   5.188   7.107   0.930 -1.7029 -1.6191  0.8230
  299TIP3   OH225091   6.454   2.898   2.680  0.3534 -0.7299  0.3293
  299TIP3    H125092   6.527   2.903   2.618  0.6026  0.0163  0.6725
  299TIP3    H225093   6.490   2.930   2.762 -0.6670  0.8279  0.2153
  300TIP3   OH225094   6.722   6.601   1.796  0.1877  0.2788 -0.4850
  300TIP3    H125095   6.704   6.601   1.702  3.9006 -1.2317 -1.3622
  300TIP3    H225096   6.729   6.508   1.819 -1.0297  0.6020  1.4367
  301TIP3   OH225097   3.811   7.282   2.361  0.3205 -0.5336 -0.2239
  301TIP3    H125098   3.732   7.271   2.307 -0.5661 -2.5711  1.3321
  301TIP3    H225099   3.789   7.352   2.422  0.0023 -0.5883 -0.2745
  302TIP3   OH225100   6.606   3.914   2.186  0.2926 -0.6344 -0.1000
  302TIP3    H125101   6.526   3.868   2.162  0.9834 -1.3965 -1.0547
  302TIP3    H225102   6.598   3.930   2.280 -2.1019  1.5771 -0.5685
  303TIP3   OH225103   6.079   2.431   1.090  0.6087 -0.6880 -0.1829
  303TIP3    H125104   6.063   2.348   1.045 -1.5707 -0.5511  0.2416
  303TIP3    H225105   6.096   2.407   1.180  1.3925 -0.7352 -0.3341
  304TIP3   OH225106   7.568   6.273   0.626  0.4602 -0.0859  0.0687
  304TIP3    H125107   7.655   6.288   0.663 -0.0299 -1.8564  2.1162
  304TIP3    H225108   7.559   6.178   0.624 -2.2049  0.0331  1.9324
  305TIP3   OH225109   5.304   5.531   3.012  0.2855 -0.3487 -0.3555
  305TIP3    H125110   5.393   5.496   3.016 -0.0513 -1.6597 -2.8281
  305TIP3    H225111   5.247   5.455   3.025 -0.4808  0.1741 -0.5664
  306TIP3   OH225112   2.307   1.005   1.732 -0.1232  0.1692  0.1248
  306TIP3    H125113   2.384   1.061   1.742  0.6060 -1.0516  1.8061
  306TIP3    H225114   2.311   0.945   1.806 -1.4257 -1.4678 -1.0464
  307TIP3   OH225115   4.716   4.263   1.402 -0.0297 -0.1930 -0.2467
  307TIP3    H125116   4.649   4.205   1.367  0.7624 -0.3438 -1.5490
  307TIP3    H225117   4.749   4.310   1.326 -0.0537  1.3583  0.6546
  308TIP3   OH225118   0.771   4.779   2.361  0.3116  0.2524 -0.4908
  308TIP3    H125119   0.759   4.715   2.291  1.0983  0.5743 -0.9412
  308TIP3    H225120   0.839   4.742   2.417 -0.0631  0.1602 -0.0901
  309TIP3   OH225121   1.080   2.331   2.926  0.0899  0.9383 -0.1346
  309TIP3    H125122   1.167   2.319   2.965  0.9389 -0.0995 -2.1614
  309TIP3    H225123   1.075   2.425   2.907  1.3295  0.8342 -1.1105
  310TIP3   OH225124   4.204   1.868   1.967 -0.1357  0.0274 -0.6684
  310TIP3    H125125   4.112   1.873   1.995 -0.0718  3.0805 -0.6781
  310TIP3    H225126   4.229   1.777   1.985 -3.4117 -1.2210 -1.6245
  311TIP3   OH225127   7.417   3.774   1.968 -0.3455  0.1191  0.2380
  311TIP3    H125128   7.439   3.681   1.973  2.9602  0.6983 -1.0380
  311TIP3    H225129   7.436   3.807   2.056 -0.5537 -0.2241  0.4153
  312TIP3   OH225130   5.970   3.827   2.242  0.5525 -0.7139  0.3484
  312TIP3    H125131   5.964   3.731   2.233  0.3510 -0.5755 -1.5041
  312TIP3    H225132   5.991   3.857   2.153 -0.2891  1.0344  0.7161
  313TIP3   OH225133   2.838   3.920   1.861 -1.0425  0.3126 -0.4363
  313TIP3    H125134   2.805   4.009   1.849 -2.8456 -0.3668 -0.8126
  313TIP3    H225135   2.828   3.878   1.775 -3.4726 -1.2243  0.4801
  314TIP3   OH225136   7.400   1.094   3.048 -0.3292 -0.2934  0.1567
  314TIP3    H125137   7.438   1.148   3.118 -1.0560 -0.4248  0.6671
  314TIP3    H225138   7.434   1.131   2.967 -1.0236  1.1085  0.4814
  315TIP3   OH225139   3.601   3.961   1.319  0.0193 -0.5225 -0.2362
  315TIP3    H125140   3.596   4.051   1.353 -3.8426 -0.8350  0.5181
  315TIP3    H225141   3.574   3.969   1.228  0.6274 -0.8567 -0.4525
  316TIP3   OH225142   6.560   1.885   3.127 -0.2263  0.4842  0.2591
  316TIP3    H125143   6.593   1.955   3.073  0.2628  1.6419  1.9823
  316TIP3    H225144   6.553   1.810   3.068  1.3499  1.3636 -1.1136
  317TIP3   OH225145   3.191   4.180   2.092 -0.2651  0.0349  0.5316
  317TIP3    H125146   3.175   4.104   2.036 -0.0217  0.1598  0.2912
  317TIP3    H225147   3.243   4.146   2.164  2.2458  0.4499 -0.9376
  318TIP3   OH225148   2.056   6.217   3.320  0.0331  0.7657 -0.0888
  318TIP3    H125149   2.033   6.212   3.412 -0.1250  2.7102  0.0091
  318TIP3    H225150   2.144   6.177   3.315  0.5875  1.7845  1.1287
  319TIP3   OH225151   7.078   2.074   3.302  0.4421  0.2225  0.3743
  319TIP3    H125152   7.171   2.056   3.288  0.6701  1.7637 -0.2795
  319TIP3    H225153   7.033   2.015   3.241  0.9758 -0.5013  0.6616
  320TIP3   OH225154   7.476   0.980   1.508 -0.1815  0.3928 -0.4005
  320TIP3    H125155   7.470   0.967   1.602 -2.5233 -2.0285 -0.7814
  320TIP3    H225156   7.568   0.962   1.487 -0.2405 -1.9984  1.0802
  321TIP3   OH225157   4.609   7.427   2.653 -0.4660  0.1083 -0.1808
  321TIP3    H125158   4.531   7.474   2.683  0.0675  0.2797  0.9940
  321TIP3    H225159   4.601   7.341   2.694 -0.4643 -0.1637 -0.7503
  322TIP3   OH225160   5.898   6.852   3.042  0.5721  0.3400  0.3149
  322TIP3    H125161   5.992   6.853   3.024  1.0061  1.4814  2.4412
  322TIP3    H225162   5.879   6.938   3.078 -1.7053  0.8291 -1.7813
  323TIP3   OH225163   3.911   3.886   7.479 -0.2612  0.1594 -0.4743
  323TIP3    H125164   3.931   3.928   7.563 -2.6744  0.0999  0.2081
  323TIP3    H225165   3.966   3.808   7.477  0.5572  0.6830  0.5822
  324TIP3   OH225166   1.413   2.694   8.354  0.4698  0.1311 -0.0248
  324TIP3    H125167   1.491   2.640   8.371 -0.6405 -1.5833 -0.1031
  324TIP3    H225168   1.390   2.729   8.440  0.8329 -0.0498  0.1532
  325TIP3   OH225169   7.151   4.372   6.509 -0.0877 -0.1015  0.1729
  325TIP3    H125170   7.190   4.439   6.454  0.0209 -1.4607 -1.4733
  325TIP3    H225171   7.066   4.408   6.534  1.6955  2.5583  3.1487
  326TIP3   OH225172   1.485   7.041   8.260 -0.0893 -0.1293 -0.4661
  326TIP3    H125173   1.468   7.102   8.188 -1.2797  1.0975  0.7995
  326TIP3    H225174   1.398   7.014   8.289  0.3809 -0.8623  0.3062
  327TIP3   OH225175   1.023   2.332   6.679  0.3408 -0.1164 -0.3114
  327TIP3    H125176   1.048   2.317   6.588  0.4611 -0.2465 -0.2576
  327TIP3    H225177   1.078   2.272   6.730 -0.1404 -0.4648 -0.1965
  328TIP3   OH225178   3.297   5.618   7.061 -0.1607 -0.1533  0.1458
  328TIP3    H125179   3.353   5.541   7.068  0.2338  0.0695 -0.4890
  328TIP3    H225180   3.216   5.586   7.023 -0.1097 -0.3111  0.1713
  329TIP3   OH225181   7.381   7.334   8.650  0.0589 -0.3042 -0.1090
  329TIP3    H125182   7.350   7.256   8.695  0.6175 -0.8664 -0.6904
  329TIP3    H225183   7.308   7.396   8.656 -0.5405 -1.0164 -0.0117
  330TIP3   OH225184   1.350   6.206   8.559  0.1549 -0.2203 -0.0087
  330TIP3    H125185   1.346   6.276   8.494  0.0841 -0.6972 -0.5303
  330TIP3    H225186   1.440   6.207   8.590 -0.1367  0.8753  0.8699
  331TIP3   OH225187   1.101   6.426   9.214 -0.4739 -0.2231 -0.4964
  331TIP3    H125188   1.013   6.462   9.218 -0.2419  0.3750 -0.6950
  331TIP3    H225189   1.088   6.333   9.195 -1.1318 -0.6087  1.6330
  332TIP3   OH225190   0.716   5.505   8.331 -0.1726  0.1065  0.1442
  332TIP3    H125191   0.689   5.416   8.355  2.2549 -0.2377  2.0039
  332TIP3    H225192   0.810   5.506   8.346  0.0330  2.7373 -0.8068
  333TIP3   OH225193   2.841   4.509   8.085 -0.1072  0.2421 -0.3066
  333TIP3    H125194   2.781   4.436   8.071  0.0627  0.0847 -0.2134
  333TIP3    H225195   2.787   4.587   8.072  0.3631  0.1858 -3.7243
  334TIP3   OH225196   3.081   4.265   7.944 -0.5119  0.4503  0.2308
  334TIP3    H125197   3.153   4.222   7.897 -1.1292 -0.9222  0.5045
  334TIP3    H225198   3.057   4.338   7.888 -0.6322 -0.6207 -1.1668
  335TIP3   OH225199   5.383   0.711   8.402 -0.2966 -0.1236  0.1641
  335TIP3    H125200   5.343   0.655   8.336  0.4782 -0.2781 -0.1778
  335TIP3    H225201   5.453   0.658   8.440 -0.3514  0.1766  0.6945
  336TIP3   OH225202   2.830   7.174   7.886 -0.1691 -0.7731  0.2652
  336TIP3    H125203   2.825   7.145   7.795 -1.9214  0.1650  0.0026
  336TIP3    H225204   2.898   7.120   7.925  2.7691  0.7153 -2.2866
  337TIP3   OH225205   3.458   6.656   7.137  0.3790  0.0425 -0.1465
  337TIP3    H125206   3.380   6.659   7.192  0.7335  0.3242  0.3506
  337TIP3    H225207   3.437   6.714   7.063  0.5654  1.0842  0.5939
  338TIP3   OH225208   3.272   3.232   9.123  0.4088 -0.3811  0.7377
  338TIP3    H125209   3.262   3.321   9.157  1.1136 -0.1956  0.4604
  338TIP3    H225210   3.357   3.203   9.154  0.0438 -1.0884  1.1028
  339TIP3   OH225211   0.439   0.946   7.855 -0.1711  0.3860 -0.5137
  339TIP3    H125212   0.398   0.892   7.923  2.3445  0.9153  1.5796
  339TIP3    H225213   0.491   0.883   7.804 -0.4441  0.3015 -0.6981
  340TIP3   OH225214   3.066   1.035   8.161 -0.2612 -0.6393  0.0207
  340TIP3    H125215   3.117   0.972   8.110  0.1729 -1.0747  0.9755
  340TIP3    H225216   3.029   0.983   8.233 -1.4849 -0.1904 -0.2584
  341TIP3   OH225217   3.574   3.717   7.940 -0.4572 -0.0186  0.7620
  341TIP3    H125218   3.646   3.692   7.997  0.1516  0.7598  0.3435
  341TIP3    H225219   3.526   3.635   7.926  0.2363 -0.5114  1.1813
  342TIP3   OH225220   4.129   4.170   6.978 -0.3898 -0.1827  0.3569
  342TIP3    H125221   4.096   4.258   6.960 -0.1082 -0.2026 -0.2980
  342TIP3    H225222   4.053   4.113   6.966 -0.6489  0.0004  1.1009
  343TIP3   OH225223   5.307   5.325   7.917 -0.1195 -0.1193 -0.5513
  343TIP3    H125224   5.289   5.366   7.833  0.1015  1.3626  0.1058
  343TIP3    H225225   5.221   5.300   7.951 -0.3095  0.3190 -0.7027
  344TIP3   OH225226   1.451   3.678   9.373 -0.7555  0.3300  0.3492
  344TIP3    H125227   1.511   3.745   9.405 -1.1242  0.3224  1.0704
  344TIP3    H225228   1.383   3.671   9.440 -0.5579 -0.9808  0.4495
  345TIP3   OH225229   1.887   5.880   8.770 -0.0628  0.6191 -0.2439
  345TIP3    H125230   1.946   5.867   8.696  0.1206  0.4427 -0.0632
  345TIP3    H225231   1.801   5.853   8.737  0.0341  0.4616 -0.3650
  346TIP3   OH225232   3.678   1.440   9.159  0.0975 -0.1480 -0.1180
  346TIP3    H125233   3.599   1.492   9.175 -0.2319 -0.4657 -0.6717
  346TIP3    H225234   3.673   1.368   9.220  0.6769  0.5815  0.8227
  347TIP3   OH225235   2.709   5.560   8.570  0.2386 -0.1131 -0.2051
  347TIP3    H125236   2.764   5.524   8.501  0.6923 -0.8800  0.5456
  347TIP3    H225237   2.757   5.637   8.602  0.5805 -0.4187  0.0225
  348TIP3   OH225238   1.854   3.638   7.522  0.3044 -0.9574  0.3200
  348TIP3    H125239   1.820   3.682   7.445 -1.6885 -2.3469  0.3388
  348TIP3    H225240   1.856   3.706   7.590  1.7419  0.1853 -0.7933
  349TIP3   OH225241   4.590   2.856   8.389  0.0175 -0.1004 -0.5543
  349TIP3    H125242   4.596   2.790   8.319  0.7413  0.9397 -1.5253
  349TIP3    H225243   4.680   2.886   8.400  0.0282 -0.7246  1.3463
  350TIP3   OH225244   4.139   3.497   8.225 -0.3180 -0.5503 -0.3387
  350TIP3    H125245   4.126   3.589   8.247 -1.5629 -0.5280 -1.0618
  350TIP3    H225246   4.072   3.451   8.275  0.6051 -1.1359  0.3925
  351TIP3   OH225247   1.861   2.150   7.903  0.1608 -0.0648 -0.3461
  351TIP3    H125248   1.861   2.225   7.963  0.0856  0.1645 -0.6289
  351TIP3    H225249   1.864   2.190   7.816  3.0752 -0.4121 -0.4945
  352TIP3   OH225250   6.872   6.811   6.764  0.3463  0.0844  0.2431
  352TIP3    H125251   6.953   6.861   6.774  0.2615  0.2718  0.0094
  352TIP3    H225252   6.900   6.720   6.757  0.7538  0.3279 -2.4126
  353TIP3   OH225253   6.002   5.991   8.196  0.1662  0.0445  0.6026
  353TIP3    H125254   5.995   6.071   8.144  1.0053 -0.2068  0.0909
  353TIP3    H225255   5.916   5.950   8.188 -0.2821  0.9014  0.8966
  354TIP3   OH225256   3.321   5.244   8.792 -0.4707 -0.7352  0.2029
  354TIP3    H125257   3.277   5.279   8.714  0.0708 -0.1021  0.1713
  354TIP3    H225258   3.414   5.261   8.776 -0.4290  0.3591  1.4482
  355TIP3   OH225259   0.618   2.327   7.686  0.1838  0.1648 -0.0108
  355TIP3    H125260   0.610   2.235   7.662 -0.2582  0.0870  0.4192
  355TIP3    H225261   0.572   2.374   7.616  3.5932  0.4012 -2.3867
  356TIP3   OH225262   7.592   0.692   8.124 -0.2432 -0.8196  0.3703
  356TIP3    H125263   7.543   0.610   8.112 -0.3873 -0.6993  0.1146
  356TIP3    H225264   7.657   0.691   8.054  0.0695 -0.9397  0.6608
  357TIP3   OH225265   6.289   0.228   9.164 -0.4782 -0.2640 -0.3180
  357TIP3    H125266   6.358   0.241   9.099 -1.0987 -0.5386 -1.0423
  357TIP3    H225267   6.279   0.133   9.170 -0.8117 -0.2255 -0.2342
  358TIP3   OH225268   7.510   6.304   7.021  0.2489 -0.1739  0.0107
  358TIP3    H125269   7.455   6.252   6.962 -1.0184 -0.2357  1.2018
  358TIP3    H225270   7.492   6.395   6.997  1.0363 -0.2180 -0.8101
  359TIP3   OH225271   7.355   6.921   9.135 -0.0224 -0.1219 -0.5845
  359TIP3    H125272   7.264   6.950   9.133  0.4462  1.3692 -1.4903
  359TIP3    H225273   7.405   6.993   9.097  1.3433 -1.7007 -1.9484
  360TIP3   OH225274   2.292   6.381   9.112 -0.1678  0.0329 -0.3507
  360TIP3    H125275   2.241   6.395   9.192  0.6725 -1.7434  0.5691
  360TIP3    H225276   2.232   6.339   9.052  0.4818 -3.8047  1.3749
  361TIP3   OH225277   3.858   4.419   9.306  0.0036  0.0988 -0.5530
  361TIP3    H125278   3.909   4.500   9.305 -0.9250  0.6980 -0.2213
  361TIP3    H225279   3.919   4.352   9.275  2.0264  0.1647  2.7925
  362TIP3   OH225280   7.234   5.865   7.902 -0.4660 -0.0189 -0.4293
  362TIP3    H125281   7.312   5.883   7.850 -1.1875 -0.5316 -1.7242
  362TIP3    H225282   7.239   5.927   7.975  1.2370 -0.1718 -0.3787
  363TIP3   OH225283   5.939   1.999   7.646 -0.6521 -0.1352 -0.7225
  363TIP3    H125284   5.925   1.960   7.560  0.3037  1.2438 -1.5488
  363TIP3    H225285   5.928   1.926   7.707 -0.2424 -1.4009 -2.0910
  364TIP3   OH225286   2.746   0.739   7.040 -0.2868  0.9009  0.2977
  364TIP3    H125287   2.772   0.831   7.045 -0.4740  0.9468  0.4585
  364TIP3    H225288   2.758   0.715   6.948 -1.0685  1.3361  0.0752
  365TIP3   OH225289   0.874   3.007   8.670 -0.0884 -0.2713 -0.4632
  365TIP3    H125290   0.797   2.953   8.657  0.4627 -0.7630 -1.8493
  365TIP3    H225291   0.909   2.981   8.755 -1.6066  0.1946  0.3350
  366TIP3   OH225292   1.380   6.732   7.542 -0.1461 -0.3610  0.2898
  366TIP3    H125293   1.292   6.745   7.507 -0.1602  0.6883  0.6817
  366TIP3    H225294   1.368   6.728   7.636  0.4842  2.6686  0.5956
  367TIP3   OH225295   2.159   7.023   8.795 -0.2838  0.1587 -0.2614
  367TIP3    H125296   2.117   7.102   8.762  0.2114  0.6474  0.2422
  367TIP3    H225297   2.192   7.048   8.882 -0.9347 -0.8751  0.3012
  368TIP3   OH225298   5.855   7.654   8.000 -0.6923 -0.4042  0.8598
  368TIP3    H125299   5.822   7.736   8.036  1.1293 -0.0372  1.8321
  368TIP3    H225300   5.937   7.677   7.957  0.2747 -1.8079  1.8564
  369TIP3   OH225301   6.806   3.173   6.926  0.3013  0.3943  0.2663
  369TIP3    H125302   6.840   3.114   6.858  0.4853 -0.3137  0.9567
  369TIP3    H225303   6.760   3.115   6.987 -3.9002  1.4434 -1.5661
  370TIP3   OH225304   4.420   5.414   8.082 -0.0621 -0.4713  0.2799
  370TIP3    H125305   4.450   5.423   8.172  1.3145 -2.3799  0.0692
  370TIP3    H225306   4.495   5.440   8.029 -0.3269 -0.8611 -0.2989
  371TIP3   OH225307   1.034   0.944   8.490  0.2744  0.2058  0.8270
  371TIP3    H125308   1.115   0.966   8.444 -0.7677  0.4885 -0.9843
  371TIP3    H225309   1.000   1.028   8.521 -0.4850  0.4177 -0.4994
  372TIP3   OH225310   1.932   2.554   7.904  0.2963  0.3961 -0.5001
  372TIP3    H125311   1.866   2.487   7.888  0.8171  0.0155 -1.0997
  372TIP3    H225312   1.894   2.609   7.973 -1.9536  1.9698 -2.8136
  373TIP3   OH225313   4.789   1.827   9.367 -0.0825 -0.4175  0.1857
  373TIP3    H125314   4.843   1.748   9.377 -0.1761 -0.3772  1.1094
  373TIP3    H225315   4.852   1.899   9.362  0.1592 -0.6868 -3.2016
  374TIP3   OH225316   0.223   5.345   9.457 -0.8005 -0.4045  0.3672
  374TIP3    H125317   0.226   5.412   9.525 -1.6866  0.4764 -0.4323
  374TIP3    H225318   0.271   5.383   9.383 -1.5054 -0.5450 -0.1792
  375TIP3   OH225319   5.065   1.036   6.777  0.3695  0.3073  0.1608
  375TIP3    H125320   5.108   1.090   6.711  2.2819  0.7357  1.6761
  375TIP3    H225321   5.132   0.973   6.804 -0.8459 -0.8434  0.6424
  376TIP3   OH225322   0.697   6.524   7.619  0.1015 -0.4730  0.5269
  376TIP3    H125323   0.747   6.486   7.691  0.1025 -0.0626  0.7468
  376TIP3    H225324   0.633   6.581   7.661  1.2322  1.1303  0.1667
  377TIP3   OH225325   5.838   5.669   9.551 -0.3125 -0.0261 -0.3008
  377TIP3    H125326   5.780   5.593   9.540  0.7778 -0.7939 -0.8216
  377TIP3    H225327   5.901   5.641   9.617 -2.0375  1.7444  2.3266
  378TIP3   OH225328   0.525   6.009   9.478 -0.3622  0.2725 -0.2590
  378TIP3    H125329   0.453   6.063   9.445 -1.3599 -0.2474  0.9897
  378TIP3    H225330   0.500   5.988   9.567  1.4207  0.1749  0.2525
  379TIP3   OH225331   6.877   6.112   8.203 -0.2517 -0.0310  0.1909
  379TIP3    H125332   6.919   6.198   8.192 -0.2836 -0.0266  0.0997
  379TIP3    H225333   6.916   6.077   8.283 -0.5962  0.2766  0.4965
  380TIP3   OH225334   2.746   3.465   8.958  0.1673  0.2110  0.2789
  380TIP3    H125335   2.797   3.423   8.890 -1.1163 -1.6067  0.3631
  380TIP3    H225336   2.718   3.549   8.920  0.4937 -0.2271 -0.9614
  381TIP3   OH225337   5.169   7.339   9.233 -0.0240  0.1531  0.0146
  381TIP3    H125338   5.079   7.371   9.233  0.3074  1.1375  1.0366
  381TIP3    H225339   5.216   7.398   9.292  1.0663 -0.9860  0.3241
  382TIP3   OH225340   4.637   0.638   8.341 -0.3745 -0.0253 -0.0022
  382TIP3    H125341   4.677   0.725   8.355 -0.4577 -0.1853  1.2891
  382TIP3    H225342   4.550   0.657   8.307  0.5724  0.3372 -2.5196
  383TIP3   OH225343   5.732   5.651   9.095 -0.0079  0.0561  0.0747
  383TIP3    H125344   5.770   5.587   9.034  0.7631  0.8697 -0.3173
  383TIP3    H225345   5.685   5.598   9.159 -0.2256 -0.8532 -0.8189
  384TIP3   OH225346   0.280   0.273   7.870 -0.3001  0.0209 -0.1472
  384TIP3    H125347   0.324   0.357   7.859  0.3103 -0.1669  0.7505
  384TIP3    H225348   0.331   0.227   7.936 -1.7355 -0.2881  0.8014
  385TIP3   OH225349   3.213   4.021   7.542  0.7476  0.1654  0.3514
  385TIP3    H125350   3.295   4.068   7.555  0.3744  1.1707 -0.8188
  385TIP3    H225351   3.182   4.049   7.456 -1.1111  0.2596  1.0080
  386TIP3   OH225352   4.812   7.587   7.282  0.5399  0.2307 -0.3371
  386TIP3    H125353   4.845   7.508   7.239  0.4258  0.2430 -0.4454
  386TIP3    H225354   4.865   7.658   7.246  1.2298  0.1059  0.3897
  387TIP3   OH225355   4.693   7.542   6.816 -0.1652  0.1677  0.0665
  387TIP3    H125356   4.633   7.481   6.774 -0.9681  2.2750 -2.0268
  387TIP3    H225357   4.752   7.571   6.746  1.6681  0.1489  1.4935
  388TIP3   OH225358   4.656   0.848   7.976  0.0948  0.1429  0.5193
  388TIP3    H125359   4.731   0.884   8.024 -0.2192  0.8467  0.4941
  388TIP3    H225360   4.693   0.820   7.892  0.1828  1.2755  0.1683
  389TIP3   OH225361   2.316   2.971   8.394 -0.0633  0.5711  0.8082
  389TIP3    H125362   2.322   2.879   8.421 -2.1638  1.0836  3.3971
  389TIP3    H225363   2.226   2.996   8.414  0.1224  2.9334 -0.9005
  390TIP3   OH225364   0.064   1.771   8.045  0.2278 -0.8033 -0.2363
  390TIP3    H125365   0.006   1.822   8.102  1.7920 -0.2879  0.9527
  390TIP3    H225366   0.039   1.680   8.063 -2.8181 -0.6161 -2.6249
  391TIP3   OH225367   4.259   5.030   8.575 -0.2428 -0.3705 -0.2247
  391TIP3    H125368   4.347   4.996   8.591  0.0812  1.0431  1.2798
  391TIP3    H225369   4.273   5.119   8.544 -1.1292 -0.0204  0.3436
  392TIP3   OH225370   3.556   2.866   9.232  0.1018  0.0281  0.1883
  392TIP3    H125371   3.565   2.837   9.141 -0.8307  0.1892  0.0402
  392TIP3    H225372   3.574   2.960   9.229  2.1068 -0.2912  0.5111
  393TIP3   OH225373   4.315   0.737   8.569 -0.3849  0.4542 -0.3407
  393TIP3    H125374   4.235   0.693   8.597 -0.8523  3.3715  3.9061
  393TIP3    H225375   4.291   0.830   8.567  2.1673  1.1683 -2.0557
  394TIP3   OH225376   2.724   4.555   8.807  0.1495 -0.6393 -0.6482
  394TIP3    H125377   2.810   4.542   8.767  2.2004 -0.2645  3.1589
  394TIP3    H225378   2.717   4.650   8.815 -1.1431 -0.6124 -1.7837
  395TIP3   OH225379   5.447   7.090   8.713 -0.3881  0.1379 -0.0142
  395TIP3    H125380   5.441   7.010   8.661 -0.6840 -0.7837  1.3876
  395TIP3    H225381   5.384   7.150   8.672 -0.0757 -0.2931 -1.1475
  396TIP3   OH225382   1.221   7.553   8.544  0.7629 -0.1167  0.1818
  396TIP3    H125383   1.181   7.591   8.466  0.6746 -0.4801  0.0479
  396TIP3    H225384   1.292   7.613   8.567  2.2209 -1.1317 -1.4643
  397TIP3   OH225385   3.980   4.920   8.009 -0.2720  0.0734  0.0221
  397TIP3    H125386   3.966   4.856   8.078 -1.9710 -0.0923 -0.4381
  397TIP3    H225387   3.980   4.869   7.928 -0.0511  0.4770 -0.2376
  398TIP3   OH225388   7.014   4.065   6.680  0.1332  0.4694  0.4311
  398TIP3    H125389   6.993   3.986   6.631 -0.1269 -0.5253  2.0826
  398TIP3    H225390   7.097   4.095   6.642 -0.1025 -0.1989 -0.6633
  399TIP3   OH225391   1.694   6.715   6.482  0.0817 -0.2456 -0.1446
  399TIP3    H125392   1.759   6.652   6.449  0.1704  0.4117 -1.2769
  399TIP3    H225393   1.613   6.665   6.489  0.4779 -0.8291  0.3162
  400TIP3   OH225394   6.596   7.664   9.299  0.2893 -0.0857 -0.0551
  400TIP3    H125395   6.684   7.661   9.337 -0.2909 -0.0218  1.3503
  400TIP3    H225396   6.581   7.575   9.265  1.2392  0.1575 -1.1940
  401TIP3   OH225397   2.263   7.309   6.657 -0.3461  0.0725  0.3918
  401TIP3    H125398   2.195   7.347   6.712 -2.2279 -1.2419 -0.8933
  401TIP3    H225399   2.250   7.214   6.665  2.1338 -0.2857  1.0199
  402TIP3   OH225400   6.862   3.386   8.442 -0.1194  0.4196 -0.9720
  402TIP3    H125401   6.817   3.390   8.526 -0.9970 -0.3394 -1.3841
  402TIP3    H225402   6.934   3.324   8.454 -0.5133 -0.0276 -0.8916
  403TIP3   OH225403   7.031   7.313   7.761  0.1752  0.2822  0.2625
  403TIP3    H125404   7.102   7.345   7.816  1.0464  1.9211 -1.7062
  403TIP3    H225405   7.020   7.221   7.786  1.4175  0.6231  2.1894
  404TIP3   OH225406   5.582   6.741   7.051 -0.9944  0.3808  0.5207
  404TIP3    H125407   5.606   6.659   7.007  0.6697  0.7019  0.7833
  404TIP3    H225408   5.569   6.716   7.143 -1.3018  0.2811  0.4531
  405TIP3   OH225409   1.685   0.206   9.188 -0.2444  0.0604 -0.0165
  405TIP3    H125410   1.622   0.227   9.257 -2.1417 -0.3517 -1.5272
  405TIP3    H225411   1.730   0.289   9.171 -0.1538  0.3020  1.2708
  406TIP3   OH225412   5.371   3.228   6.907 -0.3694  0.3662  0.0295
  406TIP3    H125413   5.343   3.308   6.863 -0.2134  0.4722  0.1210
  406TIP3    H225414   5.371   3.161   6.838  0.4885  0.6680 -0.2862
  407TIP3   OH225415   2.560   3.574   7.725  0.2596 -0.1435 -0.4981
  407TIP3    H125416   2.558   3.522   7.645 -3.1068 -0.9019 -0.1028
  407TIP3    H225417   2.608   3.520   7.788 -0.0798 -1.1608 -1.0847
  408TIP3   OH225418   7.005   1.883   7.810 -0.1084  0.1979 -0.0999
  408TIP3    H125419   7.033   1.960   7.859 -1.5146 -0.5494  2.0442
  408TIP3    H225420   7.084   1.830   7.801  0.4225  0.8822  0.3870
  409TIP3   OH225421   0.085   7.514   7.962  0.0692 -0.0837  0.0297
  409TIP3    H125422   0.154   7.476   8.017  0.8303  0.1295 -0.7646
  409TIP3    H225423   0.010   7.454   7.973  0.2976 -0.1978  1.0651
  410TIP3   OH225424   4.217   2.620   7.855  0.1505 -0.2036 -0.5421
  410TIP3    H125425   4.186   2.534   7.825  0.0197  0.0444 -1.1391
  410TIP3    H225426   4.239   2.666   7.774  2.1890 -0.4022 -0.1436
  411TIP3   OH225427   1.868   0.254   7.931 -0.1382 -0.0151 -0.3233
  411TIP3    H125428   1.790   0.215   7.970  0.4490 -0.9977 -0.1077
  411TIP3    H225429   1.884   0.333   7.984  0.4718 -1.1616  1.2823
  412TIP3   OH225430   1.835   2.250   9.392 -0.3724  0.0266 -0.6164
  412TIP3    H125431   1.906   2.271   9.453 -0.8117  0.3334 -0.2029
  412TIP3    H225432   1.809   2.161   9.416 -0.1103 -0.0950 -0.7851
  413TIP3   OH225433   3.930   5.269   7.456 -0.4808  0.5890 -0.1733
  413TIP3    H125434   3.851   5.309   7.492  0.3430  1.4425  0.7559
  413TIP3    H225435   3.898   5.198   7.400 -1.8612  0.1485  1.1100
  414TIP3   OH225436   2.172   3.757   8.776  0.3619  0.6948  0.2816
  414TIP3    H125437   2.077   3.755   8.764  0.4332 -1.5786 -0.3826
  414TIP3    H225438   2.186   3.711   8.859  0.9084  0.5162  0.0907
  415TIP3   OH225439   7.111   0.751   8.920 -0.1325  0.3064  0.3926
  415TIP3    H125440   7.051   0.821   8.945 -0.4185 -0.0295  0.6486
  415TIP3    H225441   7.178   0.795   8.867 -1.3204  0.4581 -1.0425
  416TIP3   OH225442   2.895   6.138   9.750 -0.2067 -0.5113 -0.0575
  416TIP3    H125443   2.884   6.047   9.722 -1.1131 -1.1039  2.0692
  416TIP3    H225444   2.912   6.133   9.844 -2.6591  1.6067  0.6122
  417TIP3   OH225445   0.759   3.784   8.509  0.3461  0.0954  0.0620
  417TIP3    H125446   0.695   3.730   8.557 -0.1506  0.8091  0.2091
  417TIP3    H225447   0.800   3.723   8.448 -0.5657 -0.3445 -0.1230
  418TIP3   OH225448   0.106   1.968   6.944  0.0338  0.3918  0.4934
  418TIP3    H125449   0.045   1.909   6.901 -0.5866  1.8072 -0.6462
  418TIP3    H225450   0.182   1.914   6.965 -1.0322 -1.0869  0.6948
  419TIP3   OH225451   6.439   4.548   7.345  0.8919 -0.4219  0.0486
  419TIP3    H125452   6.451   4.496   7.425  1.1322 -0.8720 -0.2740
  419TIP3    H225453   6.405   4.632   7.376 -2.7622 -1.8227  0.3437
  420TIP3   OH225454   0.169   5.597   8.964  0.6553  0.3187 -0.1788
  420TIP3    H125455   0.200   5.667   8.906  3.2164 -1.1259 -0.7379
  420TIP3    H225456   0.140   5.642   9.043  0.3806  2.1155 -1.2526
  421TIP3   OH225457   4.805   7.265   8.746  0.1635 -0.6869 -0.8779
  421TIP3    H125458   4.715   7.267   8.714  0.3246 -0.6528 -1.3415
  421TIP3    H225459   4.846   7.343   8.708 -0.6093  1.5077  2.4131
  422TIP3   OH225460   2.057   1.354   7.262 -0.1584  0.0470  0.3309
  422TIP3    H125461   2.003   1.284   7.298  0.1381 -0.2626  0.1755
  422TIP3    H225462   1.998   1.400   7.201 -0.4469  0.1353  0.6700
  423TIP3   OH225463   0.375   3.801   9.224 -0.1432 -0.1764 -0.0137
  423TIP3    H125464   0.423   3.718   9.221 -1.5858 -1.1429  1.9109
  423TIP3    H225465   0.289   3.780   9.188 -0.3508  0.6202  0.0128
  424TIP3   OH225466   2.501   2.946   8.158  0.2111 -0.3805 -0.0068
  424TIP3    H125467   2.444   2.952   8.234  0.8381  0.2277  0.4333
  424TIP3    H225468   2.575   2.893   8.188  0.9989  0.7794  0.1757
  425TIP3   OH225469   2.377   6.422   8.054  0.0233 -0.2181 -0.5959
  425TIP3    H125470   2.358   6.482   8.126  1.2923  1.0662 -1.2769
  425TIP3    H225471   2.308   6.439   7.990  0.0984  0.1728 -0.5757
  426TIP3   OH225472   3.990   4.519   8.860 -0.0393 -0.3031 -0.1189
  426TIP3    H125473   4.066   4.483   8.907 -0.5764 -3.2763 -1.2811
  426TIP3    H225474   3.957   4.445   8.809 -3.3405  1.0451 -0.1813
  427TIP3   OH225475   1.660   1.341   8.644  0.1519 -0.1657 -0.6723
  427TIP3    H125476   1.594   1.344   8.574 -1.6459  1.3991  1.0006
  427TIP3    H225477   1.740   1.315   8.599 -1.3691 -1.2728 -2.9554
  428TIP3   OH225478   4.986   6.603   7.227 -0.0317 -0.0820  0.3046
  428TIP3    H125479   4.916   6.538   7.238 -0.7643  0.3823 -1.2906
  428TIP3    H225480   4.946   6.672   7.175  1.9603 -0.4167 -1.8230
  429TIP3   OH225481   2.217   2.269   8.223  0.2805  0.4983  0.8654
  429TIP3    H125482   2.157   2.243   8.153 -0.6241 -1.5806  2.2915
  429TIP3    H225483   2.251   2.187   8.258 -0.6722  1.2634  3.9828
  430TIP3   OH225484   6.112   7.023   7.204 -0.2219 -0.4308 -0.5370
  430TIP3    H125485   6.116   7.004   7.111 -2.4024 -0.9169 -0.5794
  430TIP3    H225486   6.051   7.096   7.211 -3.3183 -2.8896  0.7083
  431TIP3   OH225487   7.513   5.370   9.237 -0.3684 -0.1365 -0.3086
  431TIP3    H125488   7.461   5.429   9.291  0.0228  1.1852 -1.3114
  431TIP3    H225489   7.485   5.389   9.147  0.4642 -0.7731 -0.7173
  432TIP3   OH225490   4.736   5.061   9.221  0.4861  0.8164  0.5985
  432TIP3    H125491   4.666   5.055   9.155  3.3541  1.3171 -2.8065
  432TIP3    H225492   4.766   5.151   9.216  2.4832  0.1927  0.6198
  433TIP3   OH225493   2.080   7.540   8.123 -0.2764  0.3236 -0.1942
  433TIP3    H125494   2.065   7.522   8.216  0.7633 -0.8583 -0.2335
  433TIP3    H225495   2.171   7.515   8.108 -0.7773 -0.7026 -1.8128
  434TIP3   OH225496   2.365   0.268   6.472  0.3386 -0.0099 -0.1702
  434TIP3    H125497   2.426   0.194   6.468 -1.2834 -1.4543  0.7870
  434TIP3    H225498   2.286   0.235   6.430 -1.4288  0.0884  2.8059
  435TIP3   OH225499   3.812   4.303   7.342  0.2593 -0.1070 -0.2648
  435TIP3    H125500   3.738   4.295   7.282 -0.0177 -0.9023  0.1736
  435TIP3    H225501   3.784   4.257   7.421  1.0376  0.0016  0.0822
  436TIP3   OH225502   1.510   0.437   8.184 -0.0927 -0.3354 -0.2849
  436TIP3    H125503   1.532   0.502   8.117  0.3989  0.1768  0.3628
  436TIP3    H225504   1.457   0.485   8.247  0.6797 -0.4220  0.4506
  437TIP3   OH225505   3.728   0.443   7.992  0.0386  0.0991 -0.1440
  437TIP3    H125506   3.779   0.391   8.054 -2.1346  0.3149  1.9650
  437TIP3    H225507   3.641   0.450   8.032 -0.8222  2.1991 -2.1502
  438TIP3   OH225508   7.451   6.030   9.028  0.1499  0.0660  0.0150
  438TIP3    H125509   7.513   5.958   9.037 -0.5101 -0.5568 -0.3182
  438TIP3    H225510   7.493   6.089   8.965  1.4445  0.8229  1.5095
  439TIP3   OH225511   0.929   0.749   8.609  0.5008 -0.0230 -0.0305
  439TIP3    H125512   0.985   0.806   8.556  0.9043 -1.8954 -1.7380
  439TIP3    H225513   0.847   0.742   8.560 -0.3669  0.7917  1.2567
  440TIP3   OH225514   2.018   3.117   8.900  0.5047 -0.1800  0.0960
  440TIP3    H125515   2.103   3.141   8.863  0.7843 -1.0820  0.1312
  440TIP3    H225516   2.039   3.060   8.974 -0.0443  1.5020  1.6206
  441TIP3   OH225517   3.928   4.054   7.691  0.1897 -0.1594 -0.0484
  441TIP3    H125518   3.937   4.138   7.737 -0.5761 -0.6481  1.0399
  441TIP3    H225519   3.958   3.989   7.754  0.8379 -0.7203 -0.9081
  442TIP3   OH225520   5.835   5.805   8.804 -0.6200  0.2177 -0.2771
  442TIP3    H125521   5.878   5.720   8.797 -0.0578  0.5398 -0.8941
  442TIP3    H225522   5.745   5.788   8.774 -0.8070 -0.3587  0.5705
  443TIP3   OH225523   3.500   0.974   6.710  0.0783  0.2966  0.5423
  443TIP3    H125524   3.539   0.962   6.797  2.2316 -0.0796 -0.4049
  443TIP3    H225525   3.508   0.888   6.668 -2.3247  0.0518  0.4330
  444TIP3   OH225526   4.828   0.608   8.766 -0.2784  0.0975  0.1503
  444TIP3    H125527   4.751   0.614   8.709  0.5275 -1.2579 -1.1620
  444TIP3    H225528   4.888   0.675   8.733 -0.5627  0.6015  0.6470
  445TIP3   OH225529   1.274   7.577   9.081 -0.2270 -0.1748 -0.1149
  445TIP3    H125530   1.179   7.563   9.079 -0.3047  0.2527  0.5317
  445TIP3    H225531   1.285   7.663   9.121  0.4923 -0.9322  1.3977
  446TIP3   OH225532   5.740   5.288   7.532 -0.1429  0.2449  0.5741
  446TIP3    H125533   5.671   5.345   7.565 -0.6720 -0.5961  0.9452
  446TIP3    H225534   5.811   5.348   7.508 -1.4587  1.2616 -1.0272
  447TIP3   OH225535   7.491   2.484   9.440 -0.4011 -0.1158  0.2024
  447TIP3    H125536   7.573   2.500   9.394 -0.6678 -0.7312 -0.5099
  447TIP3    H225537   7.501   2.530   9.524  0.7778 -0.4042  0.2412
  448TIP3   OH225538   6.616   0.760   9.125  0.1135 -0.1877 -0.4680
  448TIP3    H125539   6.537   0.713   9.150  0.6048 -1.4489 -1.2289
  448TIP3    H225540   6.685   0.721   9.177  0.8174 -1.5359 -2.3036
  449TIP3   OH225541   1.624   6.654   8.560 -0.3617 -0.3168  0.0449
  449TIP3    H125542   1.582   6.614   8.636  2.2810 -0.1865  1.6844
  449TIP3    H225543   1.628   6.747   8.582  2.5855 -0.5632  0.9957
  450TIP3   OH225544   7.632   5.671   9.444  0.1706  0.2562 -0.1210
  450TIP3    H125545   7.568   5.723   9.492  0.7027  0.3971  0.4602
  450TIP3    H225546   7.589   5.587   9.428 -0.3931  0.5808 -0.3286
  451TIP3   OH225547   3.538   1.090   7.294 -0.1873  0.1724  0.2922
  451TIP3    H125548   3.496   1.108   7.210 -0.9702 -1.5465  0.2591
  451TIP3    H225549   3.465   1.078   7.355  0.3398  0.1457  0.9292
  452TIP3   OH225550   6.393   4.067   9.088 -0.2041 -0.3293  0.6247
  452TIP3    H125551   6.427   4.071   9.177  0.6783  0.1330  0.2771
  452TIP3    H225552   6.471   4.061   9.033 -0.7238 -0.1481 -0.1429
  453TIP3   OH225553   7.562   3.704   8.627 -0.4205 -0.1717  0.7579
  453TIP3    H125554   7.641   3.753   8.605 -1.7695  0.7142 -2.9351
  453TIP3    H225555   7.577   3.673   8.716  3.6253  0.7306  0.5982
  454TIP3   OH225556   1.211   6.122   7.046 -0.6428 -0.3658  0.1941
  454TIP3    H125557   1.176   6.053   6.990 -0.8314  1.0904 -1.5659
  454TIP3    H225558   1.306   6.119   7.031 -0.6433 -0.2783  0.1760
  455TIP3   OH225559   2.185   3.631   8.533  0.1013 -0.4246  0.1413
  455TIP3    H125560   2.209   3.540   8.552 -0.3119 -0.5912 -0.1046
  455TIP3    H225561   2.186   3.674   8.618 -1.3538 -1.0673  0.5282
  456TIP3   OH225562   3.458   2.611   7.244 -0.1738  0.1398  0.3037
  456TIP3    H125563   3.516   2.570   7.180 -0.9860  0.9595 -1.0157
  456TIP3    H225564   3.502   2.598   7.328  0.8058 -1.1947 -0.3731
  457TIP3   OH225565   5.907   1.987   6.383 -0.6529 -0.1284  0.3711
  457TIP3    H125566   5.933   2.074   6.413 -0.5251  0.1003 -0.3924
  457TIP3    H225567   5.988   1.937   6.379 -0.4380  0.3144 -1.1227
  458TIP3   OH225568   5.355   1.304   8.080  0.7139  0.0013 -0.0485
  458TIP3    H125569   5.380   1.296   8.172  2.3300 -0.8030 -0.5272
  458TIP3    H225570   5.301   1.227   8.062  0.2585  0.2460  0.2599
  459TIP3   OH225571   3.865   6.768   7.808  0.1794  0.2898 -0.2763
  459TIP3    H125572   3.770   6.776   7.817  0.0677 -1.1118  0.1313
  459TIP3    H225573   3.880   6.673   7.812  1.7958  0.5668  1.8723
  460TIP3   OH225574   1.132   2.957   6.816  0.4307  0.3232  0.4639
  460TIP3    H125575   1.149   3.051   6.811  0.6357  0.2485 -0.7289
  460TIP3    H225576   1.218   2.917   6.827  0.3857  0.2547  0.5709
  461TIP3   OH225577   5.309   0.044   8.910 -0.0131  0.4199 -0.5945
  461TIP3    H125578   5.385   0.028   8.855  1.0369 -0.4820  1.0273
  461TIP3    H225579   5.323  -0.010   8.988 -1.8369  0.9764  0.2032
  462TIP3   OH225580   3.386   1.807   8.193 -0.1139 -0.1542 -0.1309
  462TIP3    H125581   3.426   1.730   8.232 -0.1942 -0.1718 -0.0837
  462TIP3    H225582   3.349   1.855   8.266 -0.6063 -0.3871 -0.2259
  463TIP3   OH225583   3.158   5.904   9.085 -0.2296 -0.1919 -0.3850
  463TIP3    H125584   3.250   5.929   9.072 -0.3201  0.2468 -0.2148
  463TIP3    H225585   3.161   5.810   9.101  0.2839 -0.0451  0.4467
  464TIP3   OH225586   5.472   2.646   6.801  0.1818  0.1948 -0.8436
  464TIP3    H125587   5.466   2.581   6.731  0.5737  0.2982 -0.9759
  464TIP3    H225588   5.386   2.689   6.802 -0.3271 -0.7893 -0.2931
  465TIP3   OH225589   3.021   0.865   7.116 -0.3048 -0.2476  0.2078
  465TIP3    H125590   3.041   0.938   7.059  2.1068 -2.6580 -2.3324
  465TIP3    H225591   2.942   0.825   7.079 -1.0190  0.4144  0.9764
  466TIP3   OH225592   3.004   6.780   9.436  0.0342 -0.0694  0.3237
  466TIP3    H125593   3.025   6.872   9.448  2.3594 -0.5149  0.0653
  466TIP3    H225594   2.930   6.780   9.376 -0.1093  1.6170  0.4462
  467TIP3   OH225595   2.907   3.238   7.011  0.0737 -0.2964 -0.0115
  467TIP3    H125596   3.001   3.220   7.004  0.5520  1.5951  0.7546
  467TIP3    H225597   2.880   3.261   6.922 -0.0128 -2.1939 -0.5106
  468TIP3   OH225598   6.363   2.573   9.323 -0.2316 -0.3298 -0.0824
  468TIP3    H125599   6.289   2.549   9.378  0.3591 -0.5075  0.6599
  468TIP3    H225600   6.372   2.502   9.260  0.0132 -0.8764  0.5603
  469TIP3   OH225601   6.837   6.224   7.685  0.5564  0.0900  0.7717
  469TIP3    H125602   6.753   6.209   7.642  0.5938  0.4545  0.5666
  469TIP3    H225603   6.813   6.270   7.766  0.5407  0.0216  0.8056
  470TIP3   OH225604   0.736   5.664   7.056  0.7759  0.3007 -1.0011
  470TIP3    H125605   0.825   5.682   7.087  1.0293  0.2857 -1.7011
  470TIP3    H225606   0.746   5.649   6.962 -0.1115  1.3200 -1.2782
  471TIP3   OH225607   6.459   1.052   6.495 -0.1272  0.1044 -0.7266
  471TIP3    H125608   6.532   1.102   6.460 -0.0092 -0.6170 -1.5310
  471TIP3    H225609   6.498   0.998   6.564 -0.2436  1.0364  0.0978
  472TIP3   OH225610   0.356   1.577   7.892  0.5242  0.2861  0.2366
  472TIP3    H125611   0.425   1.630   7.932 -0.4784  0.3264  2.0847
  472TIP3    H225612   0.290   1.641   7.866  0.1117  0.1048  0.8011
  473TIP3   OH225613   1.802   7.633   8.853 -0.1787 -0.7229  0.1755
  473TIP3    H125614   1.730   7.673   8.901  0.6930  1.0682  0.0693
  473TIP3    H225615   1.872   7.622   8.918  1.3641  2.6176 -0.7195
  474TIP3   OH225616   7.166   6.533   8.689 -0.2140  0.9282  0.2841
  474TIP3    H125617   7.244   6.572   8.728  0.6337  0.4551 -0.8907
  474TIP3    H225618   7.190   6.441   8.676 -2.1840 -0.1264  3.0886
  475TIP3   OH225619   5.924   2.961   6.720  0.2468  0.3519  0.2368
  475TIP3    H125620   5.920   2.876   6.675 -0.1508  1.1435 -1.3047
  475TIP3    H225621   5.883   3.022   6.659  1.7746  1.9141  0.6779
  476TIP3   OH225622   6.686   2.124   8.957 -0.0436  0.0183  0.1576
  476TIP3    H125623   6.740   2.111   9.034  0.8916 -4.0883 -0.9532
  476TIP3    H225624   6.747   2.117   8.883 -1.3519  0.7530 -1.0534
  477TIP3   OH225625   4.282   0.551   9.592  0.1227 -0.2643  0.1699
  477TIP3    H125626   4.215   0.497   9.636 -0.9729  0.8018 -0.1327
  477TIP3    H225627   4.276   0.636   9.635  0.4935  0.1800 -0.6405
  478TIP3   OH225628   3.468   7.196   8.863 -0.3408  0.2692  0.3859
  478TIP3    H125629   3.401   7.131   8.883 -0.8161  0.1464 -1.4118
  478TIP3    H225630   3.510   7.214   8.947 -0.2680 -2.2552  0.9725
  479TIP3   OH225631   5.777   5.232   8.318  0.0459  0.7822  0.4152
  479TIP3    H125632   5.848   5.171   8.339 -0.7959 -0.7937 -1.0619
  479TIP3    H225633   5.822   5.311   8.289  1.1686  0.6554  1.6657
  480TIP3   OH225634   5.440   6.057   8.069 -0.5446 -0.2017 -0.6516
  480TIP3    H125635   5.469   5.971   8.098 -2.3075 -0.6893 -0.2034
  480TIP3    H225636   5.517   6.097   8.029  0.5587 -1.5940  0.0163
  481TIP3   OH225637   5.300   5.745   9.150 -0.5371  0.5331  0.0739
  481TIP3    H125638   5.341   5.703   9.225  0.6113  4.7726  2.1890
  481TIP3    H225639   5.372   5.757   9.088 -1.0259 -1.1171 -0.8596
  482TIP3   OH225640   1.927   4.422   8.926  0.3899 -0.1719 -0.0131
  482TIP3    H125641   1.976   4.441   9.006  1.1336 -0.5746 -0.3686
  482TIP3    H225642   1.852   4.482   8.930  0.0868 -0.5871  1.2800
  483TIP3   OH225643   3.621   0.118   7.136  0.5655 -0.7704 -0.4104
  483TIP3    H125644   3.712   0.092   7.116 -0.0751 -4.6529  0.8607
  483TIP3    H225645   3.568   0.061   7.081 -1.1496  0.5526 -0.1881
  484TIP3   OH225646   4.735   2.174   9.227  0.2099  0.1256 -0.1737
  484TIP3    H125647   4.807   2.166   9.289  0.2274 -1.9635 -0.3696
  484TIP3    H225648   4.772   2.145   9.144 -0.9507 -1.5427 -0.1632
  485TIP3   OH225649   6.273   1.486   8.430 -0.1392  0.1501  0.2525
  485TIP3    H125650   6.301   1.504   8.520  2.1006  0.8019 -0.5276
  485TIP3    H225651   6.285   1.392   8.419 -0.8468 -0.0064  0.7558
  486TIP3   OH225652   6.459   0.711   7.437  0.0786 -0.3125  0.5500
  486TIP3    H125653   6.520   0.711   7.362  0.0313 -0.6159  0.5132
  486TIP3    H225654   6.454   0.803   7.462 -2.0041  0.2468 -1.5307
  487TIP3   OH225655   4.904   0.017   8.393 -0.2010 -0.1098 -0.2179
  487TIP3    H125656   4.979   0.031   8.336 -0.7736 -4.9967 -2.7056
  487TIP3    H225657   4.830   0.059   8.349  0.3781  1.7839  0.5077
  488TIP3   OH225658   1.238   0.997   8.299 -0.4382  0.0250  0.4494
  488TIP3    H125659   1.227   0.908   8.265  1.3526  0.2110 -0.7940
  488TIP3    H225660   1.177   1.050   8.247  0.3306 -0.1193 -0.6366
  489TIP3   OH225661   4.079   4.171   8.112 -0.0407 -0.1222  0.0096
  489TIP3    H125662   4.104   4.082   8.138  0.6354  0.1199  0.2311
  489TIP3    H225663   4.162   4.212   8.088 -0.6444 -0.5234 -3.2157
  490TIP3   OH225664   2.392   7.219   8.166 -1.0696 -0.2828 -0.2173
  490TIP3    H125665   2.379   7.313   8.169 -0.1037 -0.1385 -0.2784
  490TIP3    H225666   2.476   7.207   8.122 -1.4368 -1.1974 -0.7176
  491TIP3   OH225667   2.676   6.373   8.125  0.2561 -0.0010 -0.1512
  491TIP3    H125668   2.710   6.297   8.078 -1.3637 -1.1926  0.4939
  491TIP3    H225669   2.581   6.360   8.125 -0.0130  1.7040  0.5375
  492TIP3   OH225670   2.097   7.141   8.547 -0.0959 -0.2126  0.0606
  492TIP3    H125671   2.052   7.218   8.582 -1.2226 -0.3749 -0.9434
  492TIP3    H225672   2.108   7.160   8.454  1.1896 -0.5444  0.1324
  493TIP3   OH225673   3.468   3.368   8.885 -0.4080  1.0480  0.1468
  493TIP3    H125674   3.523   3.319   8.947 -0.5197  0.8676  0.1045
  493TIP3    H225675   3.510   3.353   8.801 -1.4089 -0.4156 -0.1366
  494TIP3   OH225676   3.216   3.511   9.176 -0.4817  0.4018  0.1777
  494TIP3    H125677   3.263   3.593   9.160 -0.5451  0.1094 -1.7806
  494TIP3    H225678   3.124   3.537   9.183 -0.4192  0.5805  0.3265
  495TIP3   OH225679   7.491   3.413   8.561  0.2661  0.0549 -0.4519
  495TIP3    H125680   7.536   3.385   8.481  2.3784  2.0286 -0.0794
  495TIP3    H225681   7.561   3.419   8.626 -1.4964 -2.1622  1.8288
  496TIP3   OH225682   4.274   5.634   7.905 -0.2697 -0.0577  0.4523
  496TIP3    H125683   4.313   5.720   7.888  1.6232 -0.9323  0.1417
  496TIP3    H225684   4.343   5.585   7.950 -0.5287 -2.0870 -1.1905
  497TIP3   OH225685   6.039   0.276   8.172 -0.3015 -0.0151 -0.0306
  497TIP3    H125686   6.130   0.285   8.143  0.0945 -0.4452  1.0223
  497TIP3    H225687   5.987   0.285   8.092  0.6202  0.9278 -0.5452
  498TIP3   OH225688   4.918   3.139   9.426 -0.1071  0.0770  0.3965
  498TIP3    H125689   4.872   3.140   9.342  0.1945 -2.5301  0.1163
  498TIP3    H225690   4.852   3.168   9.490 -0.8452  0.4537 -0.5064
  499TIP3   OH225691   3.928   3.017   8.346 -0.4457  0.0061 -0.1705
  499TIP3    H125692   3.932   2.923   8.366  0.4278  0.0333 -0.1516
  499TIP3    H225693   3.929   3.021   8.250 -3.3769 -0.0800 -0.2892
  500TIP3   OH225694   0.863   7.385   7.071  0.1037  0.6166  0.0635
  500TIP3    H125695   0.814   7.462   7.099 -0.9679 -0.3074  0.7992
  500TIP3    H225696   0.954   7.407   7.091 -0.2448  1.4442  0.8234
  501TIP3   OH225697   7.180   6.021   9.060  0.6362  0.2097  0.8210
  501TIP3    H125698   7.170   5.949   9.122  0.2619 -0.5240 -0.0821
  501TIP3    H225699   7.273   6.022   9.039  0.5117 -0.5450  0.2069
  502TIP3   OH225700   0.319   1.092   7.642 -0.1550 -0.0348 -0.2271
  502TIP3    H125701   0.286   1.174   7.679 -0.8936 -0.3371 -0.1974
  502TIP3    H225702   0.396   1.071   7.696  0.0097  0.6060 -0.2040
  503TIP3   OH225703   2.788   0.640   9.213  0.3689 -0.2494  0.1705
  503TIP3    H125704   2.827   0.556   9.239  1.4938 -0.1072 -0.9939
  503TIP3    H225705   2.695   0.619   9.198  1.0515 -1.8645 -2.3639
  504TIP3   OH225706   0.542   1.155   7.982  0.4123 -0.1410 -0.6377
  504TIP3    H125707   0.636   1.145   7.964  0.2648  0.3665 -1.8028
  504TIP3    H225708   0.501   1.089   7.926  0.0843 -0.6386  0.1732
  505TIP3   OH225709   4.921   1.250   8.651 -0.4237  0.4991  0.0812
  505TIP3    H125710   4.828   1.256   8.631 -0.3373 -0.0943 -0.5303
  505TIP3    H225711   4.959   1.329   8.612 -0.9832  2.0255  2.4076
  506TIP3   OH225712   1.965   2.751   9.351  0.4768  0.3599 -0.1942
  506TIP3    H125713   1.931   2.835   9.320  1.9940  1.8624  1.9359
  506TIP3    H225714   2.048   2.740   9.306 -0.4889 -0.9476 -1.7859
  507TIP3   OH225715   6.095   2.601   7.288  0.0085  0.0084  0.2228
  507TIP3    H125716   6.019   2.565   7.241 -0.6113  0.7514  0.6325
  507TIP3    H225717   6.170   2.555   7.250 -0.5785 -0.2230 -0.7054
  508TIP3   OH225718   0.196   7.231   7.074  0.0404  0.0069 -0.1143
  508TIP3    H125719   0.145   7.220   6.993  0.8034 -0.8616 -0.4832
  508TIP3    H225720   0.287   7.229   7.045  0.3123  0.1398  0.7251
  509TIP3   OH225721   2.671   6.738   6.184 -0.4794  0.6538  0.4097
  509TIP3    H125722   2.702   6.769   6.269  0.5177 -0.3700  0.4564
  509TIP3    H225723   2.745   6.688   6.149 -0.4498  2.0086 -1.5776
  510TIP3   OH225724   5.094   3.651   8.652  0.1068 -0.2310 -0.0961
  510TIP3    H125725   5.179   3.608   8.652  1.0230  1.4641  0.6025
  510TIP3    H225726   5.053   3.623   8.734  1.1473  0.9933  0.8839
  511TIP3   OH225727   3.242   6.435   9.100  0.2414  0.1312 -0.4103
  511TIP3    H125728   3.231   6.387   9.018  1.9541 -1.3801  0.1979
  511TIP3    H225729   3.173   6.401   9.156 -0.2509  0.3756 -0.8540
  512TIP3   OH225730   7.489   4.037   7.753 -0.2240  0.1088 -0.0075
  512TIP3    H125731   7.500   3.943   7.768 -0.3218  0.2022  0.6660
  512TIP3    H225732   7.395   4.052   7.762 -0.7314 -0.2677 -3.3393
  513TIP3   OH225733   0.370   2.250   8.013 -0.5666  0.0407 -0.4061
  513TIP3    H125734   0.404   2.207   8.091 -1.7163  0.6799  0.4754
  513TIP3    H225735   0.396   2.341   8.022 -1.5569  0.3206 -0.2562
  514TIP3   OH225736   2.525   4.917   9.054  0.0436  0.1291 -0.0306
  514TIP3    H125737   2.508   4.987   9.117 -0.3648 -0.5008  0.5772
  514TIP3    H225738   2.620   4.916   9.043  0.1179  0.2882  0.5445
  515TIP3   OH225739   3.931   5.434   7.936 -0.0689 -0.4380  0.0870
  515TIP3    H125740   3.913   5.469   8.024  0.8980 -2.6589  1.2500
  515TIP3    H225741   3.849   5.393   7.909 -0.4335  0.4378 -0.1666
  516TIP3   OH225742   3.653   1.360   8.176 -0.3293 -0.4270  0.3498
  516TIP3    H125743   3.743   1.392   8.172 -0.3365 -0.4689 -0.1725
  516TIP3    H225744   3.642   1.308   8.097 -1.2498  0.6975 -0.2863
  517TIP3   OH225745   1.244   0.344   7.348 -0.2111  0.0291  0.2518
  517TIP3    H125746   1.303   0.281   7.308 -0.0233  1.0404 -1.1252
  517TIP3    H225747   1.290   0.428   7.342  0.6160  0.0347  4.2238
  518TIP3   OH225748   0.891   2.473   8.530  0.5613  0.0821  0.1338
  518TIP3    H125749   0.835   2.533   8.580  0.2007 -1.1024  1.2186
  518TIP3    H225750   0.888   2.507   8.441  0.2072  1.5496  0.6665
  519TIP3   OH225751   1.419   0.258   7.082  0.2515 -0.0429 -0.3642
  519TIP3    H125752   1.475   0.192   7.124  0.1890  1.0391  1.5157
  519TIP3    H225753   1.352   0.207   7.037  0.2971 -1.2845  0.9081
  520TIP3   OH225754   2.762   4.702   9.548  0.0542  0.2133  0.7216
  520TIP3    H125755   2.719   4.697   9.463 -1.5563  0.8661  1.4431
  520TIP3    H225756   2.692   4.684   9.611  1.2021 -0.2381  1.9077
  521TIP3   OH225757   5.965   5.654   9.308 -0.0883 -0.2752 -0.2634
  521TIP3    H125758   5.909   5.630   9.382  0.9357 -0.2560  0.5440
  521TIP3    H225759   5.936   5.741   9.283 -0.0219 -0.0166  0.5392
  522TIP3   OH225760   5.345   1.563   7.456 -0.7939  0.0064 -0.0719
  522TIP3    H125761   5.373   1.471   7.449 -3.1027 -0.9255  1.6080
  522TIP3    H225762   5.284   1.575   7.384  0.9781  0.8978 -1.4930
  523TIP3   OH225763   0.044   2.009   9.215  0.4681  0.0124  0.6706
  523TIP3    H125764   0.081   2.087   9.175 -1.2181  0.2997 -0.4335
  523TIP3    H225765   0.107   1.983   9.282  2.0036  1.1662 -0.2841
  524TIP3   OH225766   6.793   3.577   8.793  0.8347 -0.1942 -0.0100
  524TIP3    H125767   6.774   3.493   8.752  0.3611 -0.2851  0.3895
  524TIP3    H225768   6.855   3.619   8.733 -0.8292  0.2490 -1.5178
  525TIP3   OH225769   7.523   6.097   9.643 -0.3339 -0.0463  0.3691
  525TIP3    H125770   7.568   6.179   9.664 -1.1122  0.5444 -0.1970
  525TIP3    H225771   7.584   6.049   9.587 -0.7526  1.1443 -1.1421
  526TIP3   OH225772   0.891   0.613   7.392 -0.2357  0.2874 -0.3848
  526TIP3    H125773   0.932   0.699   7.399  3.6014 -1.3719  0.4030
  526TIP3    H225774   0.881   0.599   7.298  2.6669  0.2290 -0.7723
  527TIP3   OH225775   0.904   0.671   8.160  0.0605 -0.2105  0.4828
  527TIP3    H125776   0.956   0.740   8.200 -0.7241  0.8556 -0.2813
  527TIP3    H225777   0.813   0.695   8.179 -0.2262 -1.1160  0.3287
  528TIP3   OH225778   5.591   0.549   8.527 -0.3204 -0.2853 -0.2653
  528TIP3    H125779   5.517   0.503   8.566  0.3140 -0.8644  0.2853
  528TIP3    H225780   5.634   0.592   8.601 -2.4086  3.5333 -1.0371
  529TIP3   OH225781   1.973   0.831   9.111 -0.0342  0.5600 -0.3235
  529TIP3    H125782   2.048   0.800   9.061  0.8346 -0.5816  1.5735
  529TIP3    H225783   1.898   0.784   9.073  0.6150 -0.3632 -0.5088
  530TIP3   OH225784   1.224   2.233   7.785  0.7518 -0.2131 -0.1619
  530TIP3    H125785   1.148   2.230   7.844  1.3948 -0.2552  0.6904
  530TIP3    H225786   1.297   2.255   7.843  1.4474 -0.5207 -0.9148
  531TIP3   OH225787   4.761   3.607   8.746 -0.0152  0.2771  0.3949
  531TIP3    H125788   4.666   3.608   8.741 -0.2051  0.5940  2.7972
  531TIP3    H225789   4.786   3.700   8.742  0.2890  0.1621 -0.9384
  532TIP3   OH225790   5.262   4.412   6.927 -0.1770  0.3180  0.2884
  532TIP3    H125791   5.356   4.392   6.927 -0.5770 -2.3016 -2.3909
  532TIP3    H225792   5.253   4.483   6.990  3.2859 -0.6713  2.1971
  533TIP3   OH225793   7.150   3.087   7.354 -0.1831  0.7171 -0.0503
  533TIP3    H125794   7.245   3.100   7.349 -0.1881  1.1524  0.7437
  533TIP3    H225795   7.117   3.118   7.271  0.6410 -2.2201 -1.6237
  534TIP3   OH225796   0.304   5.130   8.840 -0.3957  0.5968  0.2868
  534TIP3    H125797   0.361   5.059   8.871  0.1366 -0.7842 -3.3542
  534TIP3    H225798   0.335   5.208   8.885  3.0473 -0.4698  0.0263
  535TIP3   OH225799   6.796   2.549   8.600  1.5827  0.3080 -0.0394
  535TIP3    H125800   6.785   2.456   8.620  1.0523  0.7749  2.0750
  535TIP3    H225801   6.875   2.575   8.647  1.3092  1.0846  0.0114
  536TIP3   OH225802   4.382   0.723   7.969  0.3122  0.0333  0.3663
  536TIP3    H125803   4.473   0.716   7.998  0.5181 -0.1396 -0.3087
  536TIP3    H225804   4.350   0.802   8.011  1.9236  2.3235 -2.3458
  537TIP3   OH225805   3.197   5.157   9.258  0.3582  0.0938  0.1103
  537TIP3    H125806   3.225   5.128   9.172  0.3910  3.1745 -1.0521
  537TIP3    H225807   3.158   5.243   9.243  0.0794  0.6270  3.1481
  538TIP3   OH225808   3.653   2.126   9.394  0.3196 -0.8488  0.1200
  538TIP3    H125809   3.709   2.126   9.472  0.4627 -1.1508  0.0187
  538TIP3    H225810   3.585   2.191   9.413  0.2298 -1.0737  0.5829
  539TIP3   OH225811   2.551   7.192   9.214  0.3129  0.1838  0.5141
  539TIP3    H125812   2.518   7.131   9.280  0.2646  0.8791  1.1418
  539TIP3    H225813   2.628   7.149   9.177 -0.2665 -0.6757  0.2708
  540TIP3   OH225814   4.809   3.044   9.032 -0.6539  0.0984 -0.3739
  540TIP3    H125815   4.750   3.047   8.957  0.4108  0.3536 -1.2198
  540TIP3    H225816   4.760   2.996   9.099 -3.1211  3.0452  0.1163
  541TIP3   OH225817   1.820   6.898   8.046 -0.1235  0.2740  0.0088
  541TIP3    H125818   1.863   6.824   8.089 -0.3628  0.0493 -0.1445
  541TIP3    H225819   1.864   6.975   8.083 -1.9427  0.2337  2.5348
  542TIP3   OH225820   0.207   5.594   9.549 -0.5840  0.3276  0.1150
  542TIP3    H125821   0.239   5.637   9.469 -0.1235  0.1688  0.2079
  542TIP3    H225822   0.113   5.609   9.548 -0.6134  0.1546 -0.5629
  543TIP3   OH225823   2.155   6.278   8.880 -0.5031  0.1254 -0.0407
  543TIP3    H125824   2.195   6.214   8.821  0.9494  2.0876 -1.3499
  543TIP3    H225825   2.062   6.256   8.881  0.1066 -2.7807  0.6679
  544TIP3   OH225826   1.923   0.411   7.688  0.2009  0.0636 -0.2130
  544TIP3    H125827   1.912   0.363   7.770 -0.8775  0.0365 -0.3594
  544TIP3    H225828   1.970   0.491   7.712 -0.1805  0.0914  0.4362
  545TIP3   OH225829   5.093   0.146   8.082  0.6105 -0.4717 -0.4600
  545TIP3    H125830   5.135   0.109   8.005  0.6785 -0.0270 -0.6421
  545TIP3    H225831   5.141   0.109   8.156 -0.0414 -1.6179 -0.5878
  546TIP3   OH225832   7.219   3.169   9.504 -0.2304 -0.1295 -0.1221
  546TIP3    H125833   7.159   3.095   9.517 -0.9212  0.6393  1.1618
  546TIP3    H225834   7.172   3.229   9.446 -0.1111 -0.1758 -0.2703
  547TIP3   OH225835   0.930   5.546   7.967  0.2892  0.1023 -0.2746
  547TIP3    H125836   1.017   5.527   7.933 -0.0713  0.5908 -1.5551
  547TIP3    H225837   0.909   5.470   8.022  2.1771  0.7744  1.4888
  548TIP3   OH225838   4.116   4.540   7.472 -0.5794 -0.0293  0.1811
  548TIP3    H125839   4.141   4.459   7.516  1.2284 -0.7873 -2.0437
  548TIP3    H225840   4.114   4.517   7.379 -0.6284  2.3315 -0.4636
  549TIP3   OH225841   7.421   0.386   7.851 -0.2367  0.3369 -0.5051
  549TIP3    H125842   7.423   0.392   7.946 -0.1214  0.5172 -0.5177
  549TIP3    H225843   7.328   0.391   7.828 -0.1430  3.0868 -0.5681
  550TIP3   OH225844   7.575   3.057   8.534  0.3698 -0.6862  0.0094
  550TIP3    H125845   7.574   3.047   8.629  3.5731  1.8718  0.5027
  550TIP3    H225846   7.490   3.094   8.512 -0.1954 -0.7417  1.9818
  551TIP3   OH225847   4.821   5.936   8.458  0.4794 -0.1679 -0.3001
  551TIP3    H125848   4.908   5.910   8.428  0.6833  0.4056 -0.2038
  551TIP3    H225849   4.803   6.018   8.412  0.6375  0.5303  0.8574
  552TIP3   OH225850   2.382   2.287   6.947  0.0060 -0.9941  0.5149
  552TIP3    H125851   2.464   2.245   6.973  0.0570 -0.4549  1.2554
  552TIP3    H225852   2.408   2.374   6.918 -0.3834 -0.4927  1.6076
  553TIP3   OH225853   6.661   1.142   7.593 -0.2086  0.0420 -0.1836
  553TIP3    H125854   6.696   1.220   7.551  0.9861  0.2237  1.0638
  553TIP3    H225855   6.610   1.175   7.667 -2.4956 -0.2579 -1.5409
  554TIP3   OH225856   1.047   4.984   6.790  0.2480  0.0409  0.8991
  554TIP3    H125857   0.954   4.999   6.772  0.1157 -0.8850  0.7617
  554TIP3    H225858   1.072   4.913   6.730  1.2163  0.7178  0.4641
  555TIP3   OH225859   0.469   5.692   6.613 -0.1064  0.4249 -0.1187
  555TIP3    H125860   0.434   5.767   6.661 -1.0401  0.6067 -1.0548
  555TIP3    H225861   0.542   5.662   6.667  0.5635  2.2545  0.0694
  556TIP3   OH225862   6.540   1.732   8.206  0.4183 -0.5099  0.1252
  556TIP3    H125863   6.551   1.762   8.116 -1.1706  1.1838  0.4461
  556TIP3    H225864   6.629   1.720   8.239  1.0902 -3.2773 -2.2617
  557TIP3   OH225865   3.586   1.475   8.723 -0.3654  0.2877  0.1071
  557TIP3    H125866   3.623   1.403   8.774  1.1363  0.5507 -0.5585
  557TIP3    H225867   3.616   1.554   8.767 -0.6221  0.5134 -0.1147
  558TIP3   OH225868   0.898   1.489   8.208 -0.1340  0.4870  0.3316
  558TIP3    H125869   0.917   1.400   8.178 -1.4020  0.1541  0.5048
  558TIP3    H225870   0.984   1.525   8.230  0.3464 -0.8663  0.7651
  559TIP3   OH225871   6.343   5.648   7.211  0.2384  0.2012 -0.1262
  559TIP3    H125872   6.250   5.652   7.187 -0.1964 -0.4192  1.3027
  559TIP3    H225873   6.386   5.609   7.136 -0.8746 -0.7205 -0.3226
  560TIP3   OH225874   5.479   6.634   9.064 -0.1999 -0.0990  0.7306
  560TIP3    H125875   5.405   6.577   9.041  0.5276 -1.3026  1.3085
  560TIP3    H225876   5.541   6.621   8.992 -0.9640  1.7722 -0.3485
  561TIP3   OH225877   2.692   4.712   7.661  0.2014 -0.2263 -0.5740
  561TIP3    H125878   2.755   4.651   7.697 -1.4055 -1.6222 -0.0069
  561TIP3    H225879   2.665   4.674   7.577  0.4886  0.6265 -1.0689
  562TIP3   OH225880   6.351   1.211   7.009  0.6844  0.2716  0.5563
  562TIP3    H125881   6.320   1.246   6.925  1.3103  1.3483  0.7600
  562TIP3    H225882   6.329   1.117   7.005 -1.5661  0.7461  0.2298
  563TIP3   OH225883   1.654   3.782   7.755  0.1780  0.4621  0.3448
  563TIP3    H125884   1.685   3.870   7.777 -0.0445  0.2348  1.6169
  563TIP3    H225885   1.563   3.795   7.730 -0.4528  0.3788  2.4290
  564TIP3   OH225886   0.753   4.383   7.786 -0.3236  0.0618  0.3528
  564TIP3    H125887   0.709   4.403   7.868  0.7966 -1.6727  1.4627
  564TIP3    H225888   0.814   4.456   7.773 -1.2314  0.8617  0.5088
  565TIP3   OH225889   5.297   4.816   7.328 -0.4231 -0.0136 -0.2128
  565TIP3    H125890   5.288   4.743   7.267 -1.0915 -1.0999  1.1368
  565TIP3    H225891   5.213   4.821   7.373  0.5991 -0.4197  1.8755
  566TIP3   OH225892   3.789   7.663   8.075  0.4152  0.2601  0.3352
  566TIP3    H125893   3.845   7.648   8.152 -0.2638 -1.6472  0.5080
  566TIP3    H225894   3.771   7.575   8.041 -0.6659  0.9747 -1.0166
  567TIP3   OH225895   5.800   5.831   8.016  0.3415 -0.5449  0.3621
  567TIP3    H125896   5.767   5.750   7.980 -0.1169  0.2408 -1.0539
  567TIP3    H225897   5.809   5.814   8.110 -2.1245 -1.4233  0.4953
  568TIP3   OH225898   5.006   4.754   6.810 -0.1163 -0.2683  0.1701
  568TIP3    H125899   5.099   4.762   6.832 -0.0510 -1.1410  0.2757
  568TIP3    H225900   5.004   4.758   6.714  0.0466 -0.3616  0.1621
  569TIP3   OH225901   0.454   0.732   7.177  0.4536 -0.0181 -0.4999
  569TIP3    H125902   0.439   0.649   7.131  1.7018  1.1606 -3.2407
  569TIP3    H225903   0.549   0.743   7.175  0.2880  1.6178 -0.4798
  570TIP3   OH225904   3.951   1.575   9.166 -0.0470 -0.7405 -0.2358
  570TIP3    H125905   3.864   1.548   9.139 -0.6544 -0.2521  1.1636
  570TIP3    H225906   3.942   1.597   9.259  1.2989  0.4095 -0.3451
  571TIP3   OH225907   2.096   3.107   8.133  0.1498 -0.5455  0.3978
  571TIP3    H125908   2.158   3.149   8.193 -0.9138  0.3678  0.9185
  571TIP3    H225909   2.069   3.178   8.074 -1.4333 -0.5189  1.0829
  572TIP3   OH225910   6.072   2.805   8.372  0.3666 -0.0533  0.5668
  572TIP3    H125911   6.047   2.882   8.321  2.3339 -0.1404 -0.6335
  572TIP3    H225912   6.002   2.742   8.354 -1.1952  1.3328  1.4392
  573TIP3   OH225913   4.930   5.987   7.225  0.2150  0.1341  0.4867
  573TIP3    H125914   5.012   6.033   7.207 -0.1885  1.4605  1.8242
  573TIP3    H225915   4.957   5.901   7.257  1.0817  0.3850  0.4528
  574TIP3   OH225916   0.369   4.902   7.793  0.2458 -0.2086 -0.5955
  574TIP3    H125917   0.435   4.954   7.748  0.0520  2.0067  1.4765
  574TIP3    H225918   0.322   4.965   7.847 -0.2882 -2.4877  1.7759
  575TIP3   OH225919   7.601   1.298   8.282 -0.5091  0.3148  0.3755
  575TIP3    H125920   7.558   1.304   8.368  0.3877 -0.0238  0.8596
  575TIP3    H225921   7.532   1.268   8.223 -0.3275 -3.2763  1.7016
  576TIP3   OH225922   2.982   0.145   6.413 -0.3998  0.6249  0.0983
  576TIP3    H125923   2.941   0.196   6.483  0.7427 -0.1951  1.4277
  576TIP3    H225924   2.911   0.095   6.374 -0.7394 -0.6351  2.2188
  577TIP3   OH225925   0.207   6.796   8.015 -0.4717 -0.3747 -0.1355
  577TIP3    H125926   0.118   6.763   8.002 -0.0120 -2.3423  1.2836
  577TIP3    H225927   0.226   6.845   7.935 -2.1542 -1.4762 -1.2817
  578TIP3   OH225928   7.455   7.215   8.994  0.0359  0.1507 -0.3181
  578TIP3    H125929   7.521   7.146   8.992 -0.0195  0.0774  0.4190
  578TIP3    H225930   7.495   7.287   8.943  0.2846 -0.2377 -0.6809
  579TIP3   OH225931   7.499   0.235   7.318  0.1553 -0.3648 -0.1916
  579TIP3    H125932   7.411   0.203   7.298 -0.6829  0.1076  2.4427
  579TIP3    H225933   7.486   0.318   7.363  1.7995 -1.2754  2.1504
  580TIP3   OH225934   6.897   0.860   9.071 -0.4344  0.0311  0.0158
  580TIP3    H125935   6.811   0.875   9.032 -0.5494 -0.0116  0.2511
  580TIP3    H225936   6.878   0.820   9.156 -0.1954  0.3345  0.2153
  581TIP3   OH225937   1.757   4.892   8.635 -0.1351  0.0803 -0.3369
  581TIP3    H125938   1.673   4.888   8.590  0.0586 -2.0220 -0.5973
  581TIP3    H225939   1.818   4.848   8.576  0.5713 -0.8255  1.0343
  582TIP3   OH225940   6.206   5.806   8.714 -0.0366  0.8602  0.3894
  582TIP3    H125941   6.185   5.869   8.645 -1.2070  0.8109  0.6956
  582TIP3    H225942   6.185   5.851   8.795  2.2312  1.2765  0.8178
  583TIP3   OH225943   5.425   0.533   8.059  0.8406  0.4895 -0.3553
  583TIP3    H125944   5.397   0.467   7.996 -0.0830  0.0518  0.4768
  583TIP3    H225945   5.407   0.494   8.145  1.2412  1.4102  0.1693
  584TIP3   OH225946   5.862   5.175   6.771 -0.7384 -0.0579 -0.0976
  584TIP3    H125947   5.858   5.081   6.785  0.5292 -0.1000  0.1302
  584TIP3    H225948   5.942   5.202   6.816  0.3293  0.7243 -2.3472
  585TIP3   OH225949   4.813   7.415   7.505  0.0147 -0.1652  0.0749
  585TIP3    H125950   4.789   7.458   7.423 -0.9584  0.2380  0.5545
  585TIP3    H225951   4.902   7.444   7.522 -0.8158  2.2659  0.7136
  586TIP3   OH225952   6.888   1.308   6.464 -0.0075 -0.4814 -0.4229
  586TIP3    H125953   6.966   1.353   6.499 -0.2416  0.2293 -0.7941
  586TIP3    H225954   6.923   1.246   6.400  0.2620 -0.1448 -0.6100
  587TIP3   OH225955   5.193   5.633   9.520  0.1018 -0.8589  0.4049
  587TIP3    H125956   5.181   5.538   9.527  0.1721 -0.7961  1.5630
  587TIP3    H225957   5.104   5.668   9.521  0.1177 -0.8247  1.6416
  588TIP3   OH225958   5.887   5.249   8.643 -0.2223 -0.0773 -0.0097
  588TIP3    H125959   5.950   5.235   8.714 -0.1428 -0.8302 -0.2221
  588TIP3    H225960   5.858   5.161   8.619 -0.5217  0.1958 -0.6690
  589TIP3   OH225961   4.291   5.193   7.401 -0.4427 -0.6213 -0.0819
  589TIP3    H125962   4.245   5.219   7.321 -0.8202 -0.9288  0.0380
  589TIP3    H225963   4.258   5.106   7.421 -0.6767 -0.3694  0.6600
  590TIP3   OH225964   6.532   1.895   7.478  0.1536  0.6561 -0.5028
  590TIP3    H125965   6.597   1.962   7.503  0.3455  0.0388  0.7327
  590TIP3    H225966   6.449   1.929   7.511  0.5896 -0.7457  2.3010
  591TIP3   OH225967   3.719   5.820   9.435 -0.2370  0.3591 -0.4499
  591TIP3    H125968   3.756   5.736   9.409  0.7550  1.5926 -3.5677
  591TIP3    H225969   3.625   5.806   9.437 -0.0709 -0.8801 -0.7387
  592TIP3   OH225970   0.014   2.297   8.175  0.2438  0.0341 -0.1777
  592TIP3    H125971  -0.080   2.279   8.184  0.5437 -1.1429  0.7998
  592TIP3    H225972   0.046   2.229   8.116  0.8826 -1.0338  1.3348
  593TIP3   OH225973   2.928   4.698   9.189 -0.0278  0.3357  0.0186
  593TIP3    H125974   2.834   4.715   9.180 -0.2413  1.2378  2.8213
  593TIP3    H225975   2.968   4.743   9.115 -1.7467  0.2282 -1.0468
  594TIP3   OH225976   5.223   6.117   8.315 -0.5823 -0.0333  0.0982
  594TIP3    H125977   5.282   6.106   8.240 -0.8220 -0.4157 -0.0357
  594TIP3    H225978   5.204   6.028   8.344 -0.6024  0.1087  0.5310
  595TIP3   OH225979   6.776   6.341   7.921  0.5249  0.2822  0.8474
  595TIP3    H125980   6.708   6.283   7.957 -2.1062  0.5829 -3.0806
  595TIP3    H225981   6.751   6.428   7.952 -3.0244  0.8639 -2.8829
  596TIP3   OH225982   5.686   4.166   7.225  0.0650  0.5635  0.6059
  596TIP3    H125983   5.736   4.241   7.194 -0.0374  0.9551  1.3541
  596TIP3    H225984   5.626   4.145   7.153  2.6250 -1.2396 -1.1913
  597TIP3   OH225985   0.792   1.597   6.997 -0.0823 -1.1679 -0.6106
  597TIP3    H125986   0.857   1.636   7.056 -0.0028  1.1747 -2.1217
  597TIP3    H225987   0.718   1.576   7.054 -0.2024  1.4315  0.3174
  598TIP3   OH225988   0.263   2.144   8.790 -0.3019 -0.4354  0.2943
  598TIP3    H125989   0.338   2.086   8.802 -0.3475 -0.3888  0.8363
  598TIP3    H225990   0.301   2.232   8.787 -0.3145 -0.4296  0.3102
  599TIP3   OH225991   1.208   7.186  17.252  0.4488  0.0929 -0.1564
  599TIP3    H125992   1.247   7.162  17.337  1.7537 -0.8405 -0.9746
  599TIP3    H225993   1.128   7.133  17.247 -0.9396  1.8809  1.4545
  600TIP3   OH225994   7.398   4.510   9.037  0.4319 -0.2570  0.2786
  600TIP3    H125995   7.365   4.473   8.956 -0.3989  0.6499  0.1926
  600TIP3    H225996   7.476   4.560   9.011  0.7677 -0.8176  0.1994
  601TIP3   OH225997   0.342   6.492   9.313  0.1000  0.3156  0.1145
  601TIP3    H125998   0.401   6.539   9.254 -0.3820 -0.3980 -0.9685
  601TIP3    H225999   0.259   6.489   9.266  0.0558 -1.4074  0.2226
  602TIP3   OH226000   5.792   2.519   8.495  0.1891  0.2192 -0.1093
  602TIP3    H126001   5.770   2.426   8.485  0.4146 -0.0707  1.7427
  602TIP3    H226002   5.717   2.556   8.541  0.6641  0.6692  0.3127
  603TIP3   OH226003   6.443   0.137   8.595 -0.3739  0.3950  0.0472
  603TIP3    H126004   6.512   0.193   8.631  1.1483 -0.4901 -1.3763
  603TIP3    H226005   6.369   0.196   8.581  0.6855  1.7412 -0.0460
  604TIP3   OH226006   3.505   3.037   8.637  0.3201  0.2479  0.5490
  604TIP3    H126007   3.479   3.004   8.723  1.1051  0.4216  0.8573
  604TIP3    H226008   3.563   2.970   8.602 -0.4486 -0.0988 -0.1016
  605TIP3   OH226009   1.188   1.210   9.498 -0.1392  0.1736 -0.4024
  605TIP3    H126010   1.117   1.272   9.481  0.6923  1.1196 -0.4769
  605TIP3    H226011   1.242   1.253   9.564  0.7414 -0.2498 -0.8337
  606TIP3   OH226012   1.926   6.651   7.905  0.2228 -0.1609 -0.6228
  606TIP3    H126013   1.909   6.626   7.996  0.9206  1.6323  0.0440
  606TIP3    H226014   1.848   6.700   7.879  0.1898 -0.3450 -0.8781
  607TIP3   OH226015   1.630   3.791   8.362 -0.1486  0.2281  0.1263
  607TIP3    H126016   1.593   3.754   8.442  0.3381 -0.2067  0.1499
  607TIP3    H226017   1.654   3.880   8.386 -1.8900  0.7962 -0.0994
  608TIP3   OH226018   1.439   6.306   7.727  0.7383 -0.1244  0.0501
  608TIP3    H126019   1.376   6.336   7.661  1.5489 -0.0741 -0.7107
  608TIP3    H226020   1.505   6.374   7.730 -0.1926  0.7748  2.2400
  609TIP3   OH226021   4.383   7.122   7.789 -0.3509 -0.3154 -0.1588
  609TIP3    H126022   4.452   7.083   7.844 -0.2094 -0.8686 -0.7185
  609TIP3    H226023   4.309   7.135   7.849  0.0454 -0.2322  0.3238
  610TIP3   OH226024   6.020   3.911   7.964  0.3673 -0.3241 -0.0489
  610TIP3    H126025   6.094   3.970   7.977  1.5849 -1.8716  0.3400
  610TIP3    H226026   6.038   3.836   8.022 -1.9842 -0.3407  0.7764
  611TIP3   OH226027   0.831   3.155   9.442 -0.7065  0.0312 -0.3951
  611TIP3    H126028   0.743   3.193   9.451 -0.1400  1.0418  1.2227
  611TIP3    H226029   0.823   3.067   9.478 -1.0989  0.0485 -0.4346
  612TIP3   OH226030   1.571   3.481   9.035  0.1577 -0.4613 -0.1651
  612TIP3    H126031   1.487   3.512   9.069 -0.9133 -1.3646 -1.8705
  612TIP3    H226032   1.614   3.440   9.111 -1.0259 -0.1869  0.6783
  613TIP3   OH226033   7.264   6.531   7.572  0.0392 -0.1891  0.4852
  613TIP3    H126034   7.215   6.588   7.631 -0.3326 -0.2161  0.2051
  613TIP3    H226035   7.238   6.559   7.484  0.6134 -0.1311  0.3326
  614TIP3   OH226036   7.600   3.325   6.302  0.1384  0.2269 -0.3503
  614TIP3    H126037   7.634   3.392   6.243 -0.3631  2.7103  2.0007
  614TIP3    H226038   7.539   3.274   6.249 -0.5400  2.5433 -1.9088
  615TIP3   OH226039   6.154   3.467   7.914  0.2002 -1.0889 -0.0562
  615TIP3    H126040   6.145   3.544   7.970  0.4351 -1.0830 -0.0239
  615TIP3    H226041   6.249   3.454   7.907  0.1831 -0.8723 -0.7471
  616TIP3   OH226042   1.013   2.825   8.210  0.1932  0.6024 -0.1054
  616TIP3    H126043   0.957   2.843   8.285  1.8929  0.9766  1.1138
  616TIP3    H226044   1.058   2.908   8.193  0.7648  0.1702 -0.7378
  617TIP3   OH226045   0.435   4.137   7.577 -0.1734  0.1057  0.1213
  617TIP3    H126046   0.427   4.188   7.496  1.2083 -0.5107 -0.4380
  617TIP3    H226047   0.411   4.199   7.646  0.0907  1.1083 -0.6524
  618TIP3   OH226048   2.679   3.147   7.749  0.2118  0.5503  0.2331
  618TIP3    H126049   2.722   3.226   7.782  2.1903 -0.5350  0.3399
  618TIP3    H226050   2.594   3.146   7.794  0.1132  2.6213  0.1856
  619TIP3   OH226051   4.104   3.830   6.892 -0.2130 -0.1312 -0.8941
  619TIP3    H126052   4.121   3.738   6.871  1.4437 -0.3062  0.9417
  619TIP3    H226053   4.160   3.879   6.832  0.6288 -0.4263 -0.3630
  620TIP3   OH226054   2.067   6.198   8.286  0.0414  0.2513  0.4574
  620TIP3    H126055   2.084   6.107   8.261 -2.6752 -0.9184  2.3907
  620TIP3    H226056   2.041   6.241   8.204 -0.8653 -1.3446 -0.1423
  621TIP3   OH226057   7.491   0.746   9.274  0.3024  0.5007 -0.1989
  621TIP3    H126058   7.402   0.714   9.269  0.4129 -0.3093  1.9999
  621TIP3    H226059   7.484   0.831   9.316  0.6983 -0.6508  2.3559
  622TIP3   OH226060   2.511   1.362   9.701  0.0409 -0.1588  0.2284
  622TIP3    H126061   2.489   1.304   9.773  0.5520  0.4133  0.8634
  622TIP3    H226062   2.429   1.371   9.651  0.2141 -2.2263 -0.4977
  623TIP3   OH226063   4.933   5.372   8.383 -0.5162 -0.2041  0.0179
  623TIP3    H126064   4.888   5.411   8.308  2.0820 -0.1241 -1.6207
  623TIP3    H226065   4.920   5.435   8.454  1.3909  2.5511 -1.8572
  624TIP3   OH226066   2.570   0.074   8.675 -0.2944 -0.4834  0.0433
  624TIP3    H126067   2.564   0.138   8.604 -0.8325 -1.1777 -0.5542
  624TIP3    H226068   2.499   0.099   8.736 -0.0963 -0.1373  0.1366
  625TIP3   OH226069   7.383   3.497   7.003  0.1097 -0.0346 -0.3631
  625TIP3    H126070   7.359   3.473   7.093 -0.5068 -0.3495 -0.6042
  625TIP3    H226071   7.312   3.555   6.974  2.4051  3.7544  0.8335
  626TIP3   OH226072   4.209   1.314   7.879  0.1302 -0.0769 -0.1652
  626TIP3    H126073   4.202   1.363   7.797  1.4485  0.2798 -0.0790
  626TIP3    H226074   4.159   1.234   7.863 -0.6174  0.5110 -0.8998
  627TIP3   OH226075   5.829   6.596   8.163 -0.1957 -0.4684  0.3470
  627TIP3    H126076   5.820   6.689   8.140  0.4002 -0.7675 -1.2824
  627TIP3    H226077   5.742   6.570   8.191 -0.6749  0.3075 -0.3556
  628TIP3   OH226078   5.665   7.043   8.110 -0.0140 -0.1639  0.2712
  628TIP3    H126079   5.624   7.111   8.163 -1.8363 -1.3859  0.5331
  628TIP3    H226080   5.717   7.091   8.046 -0.5915  1.4464  0.9479
  629TIP3   OH226081   1.186   0.416   7.979 -0.4975 -0.3184  0.4030
  629TIP3    H126082   1.255   0.353   7.959  2.8849  3.1734  0.0706
  629TIP3    H226083   1.150   0.440   7.893  0.6965  0.6924  0.1558
  630TIP3   OH226084   0.764   7.591   7.200 -0.4151 -0.0140  0.1591
  630TIP3    H126085   0.699   7.625   7.261 -0.3359 -0.0186  0.2461
  630TIP3    H226086   0.834   7.656   7.200 -0.0230 -0.4267  0.7203
  631TIP3   OH226087   6.266   7.127   8.651 -0.4724  0.2975  0.3748
  631TIP3    H126088   6.290   7.213   8.686 -0.4408 -0.0620  1.2747
  631TIP3    H226089   6.241   7.144   8.560  0.8240  1.0579  0.1296
  632TIP3   OH226090   5.144   3.033   9.037  0.4189 -0.1480 -0.2564
  632TIP3    H126091   5.100   2.971   8.979  1.5279 -1.2051 -0.0209
  632TIP3    H226092   5.083   3.044   9.110 -0.3666  0.0821 -0.9359
  633TIP3   OH226093   0.166   3.610   8.548  0.9154 -0.1528  0.0453
  633TIP3    H126094   0.245   3.636   8.500  0.5828 -0.0034 -0.4358
  633TIP3    H226095   0.152   3.518   8.525  0.3636  0.1092 -0.7193
  634TIP3   OH226096   5.200   1.680   7.666  0.2217  0.2938  0.4929
  634TIP3    H126097   5.127   1.620   7.679  0.3129  0.0927  0.0960
  634TIP3    H226098   5.258   1.636   7.603 -0.0589  1.0873 -0.3540
  635TIP3   OH226099   6.930   6.638   8.582 -0.2014  0.3365 -0.8203
  635TIP3    H126100   7.014   6.611   8.618 -0.1903  1.4955  0.1007
  635TIP3    H226101   6.870   6.636   8.657  0.0287  3.7068 -0.3918
  636TIP3   OH226102   5.232   4.600   8.278  0.2729  0.1480  0.2074
  636TIP3    H126103   5.185   4.650   8.345 -2.6081 -1.5581 -0.3219
  636TIP3    H226104   5.302   4.556   8.325  0.5678  1.7560  1.3562
  637TIP3   OH226105   0.526   5.554   9.525  0.4350 -0.1541 -0.3605
  637TIP3    H126106   0.500   5.643   9.503  0.8570  0.1883  0.5150
  637TIP3    H226107   0.445   5.503   9.518  0.4153  0.0503 -2.0229
  638TIP3   OH226108   6.868   3.893   7.981  0.1342  0.0256  0.5100
  638TIP3    H126109   6.837   3.816   8.027  0.0016 -0.6658 -0.6926
  638TIP3    H226110   6.856   3.872   7.888  0.5098  1.3139  0.1487
  639TIP3   OH226111   7.474   2.684   7.773  0.3827  0.1585 -0.2589
  639TIP3    H126112   7.567   2.663   7.760  0.6396 -0.7197  2.4332
  639TIP3    H226113   7.437   2.682   7.685  2.2876 -2.6756 -1.1313
  640TIP3   OH226114   3.671   5.123   8.591 -0.2927 -0.2173 -0.1118
  640TIP3    H126115   3.711   5.080   8.666  0.6408  2.0670  0.8024
  640TIP3    H226116   3.636   5.205   8.626 -2.3577 -0.3556 -1.6569
  641TIP3   OH226117   4.636   7.246   7.098  1.1437  0.3922 -0.4110
  641TIP3    H126118   4.604   7.178   7.038 -1.3194  1.8283 -0.8662
  641TIP3    H226119   4.616   7.211   7.185  1.7830 -0.3378 -0.5535
  642TIP3   OH226120   5.790   3.166   8.420  0.2114  0.0224  0.4492
  642TIP3    H126121   5.713   3.197   8.469 -0.0276  0.2698 -0.0721
  642TIP3    H226122   5.773   3.193   8.330  0.6299 -0.4690  0.2227
  643TIP3   OH226123   7.495   0.700   6.696 -0.6077  0.2901  0.6862
  643TIP3    H126124   7.587   0.726   6.705 -0.1165  0.1818 -2.7022
  643TIP3    H226125   7.447   0.783   6.694  0.0639  0.7081 -2.3407
  644TIP3   OH226126   4.594   3.883   7.861  0.3603 -0.4387  0.4244
  644TIP3    H126127   4.502   3.889   7.835  0.4854 -0.2096  0.0349
  644TIP3    H226128   4.598   3.805   7.917 -0.2678  0.1246  1.2758
  645TIP3   OH226129   0.434   4.423   9.264 -0.1093  0.0134  0.3386
  645TIP3    H126130   0.419   4.478   9.187 -1.4984  1.9628  1.8730
  645TIP3    H226131   0.405   4.477   9.337  1.8957 -1.4464  2.3420
  646TIP3   OH226132   5.458   0.301   8.891  0.3500 -0.2372  0.1107
  646TIP3    H126133   5.382   0.263   8.934  0.2135 -0.1226 -0.0289
  646TIP3    H226134   5.472   0.385   8.934  0.2583 -0.1557 -0.0165
  647TIP3   OH226135   3.401   5.010   8.520  0.3075 -0.0193  1.0540
  647TIP3    H126136   3.391   4.917   8.538 -1.7795  0.2100  1.2915
  647TIP3    H226137   3.495   5.026   8.526  0.7619 -2.2041  0.4828
  648TIP3   OH226138   7.036   6.138   8.659 -0.6222  1.2918 -0.3390
  648TIP3    H126139   7.045   6.069   8.593  0.8195  0.6673  0.4672
  648TIP3    H226140   7.121   6.181   8.662 -0.7187  1.4583  0.9280
  649TIP3   OH226141   7.433   5.034   8.561 -0.3198 -0.8247 -0.6778
  649TIP3    H126142   7.485   5.067   8.487  0.7372 -1.8323 -0.4153
  649TIP3    H226143   7.382   5.110   8.589 -0.6839 -0.3904 -2.3749
  650TIP3   OH226144   2.868   0.694   7.759 -0.1330  0.3946  0.1358
  650TIP3    H126145   2.852   0.772   7.705  1.8764  0.9819  0.3244
  650TIP3    H226146   2.805   0.702   7.831  0.6512  2.3556  0.6538
  651TIP3   OH226147   2.428   4.835   8.601  0.2604 -0.0833  0.5805
  651TIP3    H126148   2.355   4.896   8.596  0.4542  0.1364  0.4231
  651TIP3    H226149   2.414   4.787   8.683  0.1774  0.2539  0.7641
  652TIP3   OH226150   2.371   6.586   8.285 -0.7289 -0.2916  0.1128
  652TIP3    H126151   2.323   6.552   8.360 -1.6528 -0.5907 -0.5891
  652TIP3    H226152   2.344   6.677   8.277 -0.5529 -0.2313  0.2055
  653TIP3   OH226153   6.022   5.701   7.803  0.0379  0.0383  0.2036
  653TIP3    H126154   5.949   5.729   7.748  0.5073 -1.2044 -1.1430
  653TIP3    H226155   6.016   5.606   7.804  0.4332  0.0042  1.8277
  654TIP3   OH226156   7.170   4.543   7.241  0.6706 -0.1099  0.3583
  654TIP3    H126157   7.080   4.510   7.246  0.1213  0.8767 -1.7560
  654TIP3    H226158   7.166   4.611   7.173  3.3874 -1.2885 -1.1060
  655TIP3   OH226159   5.225   6.668   8.326  0.3080  0.3903  0.5423
  655TIP3    H126160   5.178   6.704   8.401 -0.2189 -2.9696  2.0438
  655TIP3    H226161   5.185   6.711   8.250 -1.6149  1.4117  2.0341
  656TIP3   OH226162   2.441   1.632   9.605  0.5149 -0.6123  0.2794
  656TIP3    H126163   2.486   1.566   9.658  0.7404 -0.3602  0.4019
  656TIP3    H226164   2.348   1.619   9.624  0.4940 -1.4579 -0.3440
  657TIP3   OH226165   0.338   1.038   8.441  0.0283 -0.1986  0.1145
  657TIP3    H126166   0.384   1.078   8.367  0.9035 -0.1519  0.6636
  657TIP3    H226167   0.260   1.092   8.452 -0.5096 -0.6732 -1.2528
  658TIP3   OH226168   3.358   0.604   9.540  0.1253 -0.6465  0.3677
  658TIP3    H126169   3.384   0.516   9.569 -1.1105 -1.1590 -0.0353
  658TIP3    H226170   3.287   0.629   9.598  0.9819  0.4514  0.9959
  659TIP3   OH226171   0.944   0.384   6.809  0.5762 -0.6496 -0.2378
  659TIP3    H126172   0.960   0.440   6.733 -0.9165 -0.2104 -0.2589
  659TIP3    H226173   0.849   0.372   6.811 -0.1203  2.7381  3.7630
  660TIP3   OH226174   7.297   1.234   7.580 -0.0286  0.1927 -0.1330
  660TIP3    H126175   7.358   1.224   7.507  0.0525  2.0776 -0.3594
  660TIP3    H226176   7.347   1.278   7.649 -0.5505 -0.1183  0.4598
  661TIP3   OH226177   7.025   5.629   6.528 -0.2015  0.0004  0.3652
  661TIP3    H126178   7.003   5.587   6.611 -2.6004  0.1489 -0.1339
  661TIP3    H226179   6.949   5.614   6.472  0.9665  0.7211 -1.5110
  662TIP3   OH226180   6.085   0.851   8.394  0.0607 -0.3872 -0.2472
  662TIP3    H126181   6.085   0.921   8.329 -0.3887 -1.2899 -1.2518
  662TIP3    H226182   5.993   0.832   8.410  0.1775 -1.6820 -1.0324
  663TIP3   OH226183   7.449   6.546   8.101  0.2969  0.4861  0.1781
  663TIP3    H126184   7.506   6.558   8.177  0.6958 -2.4085  0.4636
  663TIP3    H226185   7.488   6.473   8.053 -1.4680  0.4585 -1.3128
  664TIP3   OH226186   7.115   1.060   9.084 -0.3471  0.1715  0.3748
  664TIP3    H126187   7.035   1.007   9.091 -0.0789 -0.3946 -0.5535
  664TIP3    H226188   7.102   1.113   9.005 -0.3089  0.9738  0.8994
  665TIP3   OH226189   3.803   1.236   9.605  0.5311  0.1990  0.0721
  665TIP3    H126190   3.787   1.289   9.683  2.0619 -0.4042  0.8294
  665TIP3    H226191   3.715   1.208   9.576 -0.0911  0.9083  1.2272
  666TIP3   OH226192   1.768   5.068   9.342  0.0916  0.4715 -0.2960
  666TIP3    H126193   1.676   5.076   9.368  0.9828 -0.2645  3.7431
  666TIP3    H226194   1.790   4.976   9.358  1.7613  0.8333 -0.2885
  667TIP3   OH226195   7.251   0.594   6.798  0.7855  0.6209 -0.0813
  667TIP3    H126196   7.298   0.661   6.748 -1.8720  2.3731 -0.4452
  667TIP3    H226197   7.182   0.642   6.843  0.6828 -1.4935  2.2229
  668TIP3   OH226198   4.831   7.029   7.882 -0.8085  0.3322 -0.0919
  668TIP3    H126199   4.906   7.041   7.940 -0.8415  0.0670  0.0096
  668TIP3    H226200   4.847   7.088   7.809 -0.0370 -0.4091 -0.5340
  669TIP3   OH226201   5.734   7.161   6.574  0.2224 -0.4569  0.0113
  669TIP3    H126202   5.692   7.246   6.591  0.6200 -0.2000 -0.2742
  669TIP3    H226203   5.780   7.141   6.655  0.2496 -0.3264  0.0294
  670TIP3   OH226204   5.799   0.817   7.999 -0.1795 -0.4936 -0.2000
  670TIP3    H126205   5.861   0.746   7.987  1.2055  0.9232 -1.8584
  670TIP3    H226206   5.839   0.892   7.957 -1.0075  1.6466  2.4982
  671TIP3   OH226207   3.249   5.733   8.008  0.0374  0.4127 -0.3176
  671TIP3    H126208   3.323   5.691   8.052  1.4472  0.9975 -1.9829
  671TIP3    H226209   3.197   5.771   8.078  1.1602 -0.2773  0.9389
  672TIP3   OH226210   2.824   3.581   8.553 -0.2877  0.2866 -0.4305
  672TIP3    H126211   2.913   3.581   8.519  0.2792  0.5674  0.9810
  672TIP3    H226212   2.833   3.608   8.644 -1.4610 -2.5702  0.6645
  673TIP3   OH226213   4.972   1.532   7.601 -0.2773 -0.4568 -0.1748
  673TIP3    H126214   4.902   1.475   7.632  1.2888 -1.2018  2.3488
  673TIP3    H226215   4.932   1.583   7.531 -2.9507 -1.6913  0.3024
  674TIP3   OH226216   7.225   0.974   7.505 -0.2624 -0.3119 -0.3776
  674TIP3    H126217   7.224   1.065   7.534 -0.9426 -0.2496 -0.5926
  674TIP3    H226218   7.306   0.938   7.543  0.5499  0.6439 -1.1373
  675TIP3   OH226219   0.716   2.285   9.412 -0.2256  0.1857  0.4643
  675TIP3    H126220   0.698   2.364   9.362  2.1332 -0.1458 -1.0773
  675TIP3    H226221   0.784   2.240   9.362 -0.8100 -2.3558  1.7829
  676TIP3   OH226222   7.665   3.604   6.943 -0.4814  0.5823 -0.6342
  676TIP3    H126223   7.674   3.699   6.945  0.6725  0.4769 -0.0149
  676TIP3    H226224   7.578   3.587   6.981 -0.6110  1.3743 -0.5690
  677TIP3   OH226225   1.778   6.044   8.029 -0.4049 -0.5331 -0.1927
  677TIP3    H126226   1.707   6.102   8.055 -1.0293 -1.0930 -0.6234
  677TIP3    H226227   1.856   6.099   8.031 -0.8258  0.0560  0.4160
  678TIP3   OH226228   0.744   6.965   8.264  0.6088  0.3922  0.6073
  678TIP3    H126229   0.660   6.931   8.294  1.0867 -1.9738 -0.5025
  678TIP3    H226230   0.733   7.060   8.263 -0.0614  0.6744  6.1810
  679TIP3   OH226231   0.302   1.455   7.055 -0.3271  0.0188 -0.5517
  679TIP3    H126232   0.264   1.384   7.107  0.2164  0.2138  0.1390
  679TIP3    H226233   0.270   1.440   6.966  0.9347 -1.9378 -0.7456
  680TIP3   OH226234   4.130   4.793   7.588 -0.0749  0.2178  0.6328
  680TIP3    H126235   4.111   4.703   7.560  1.4343 -0.1297  0.6202
  680TIP3    H226236   4.144   4.841   7.506  0.8484  0.0359  0.6744
  681TIP3   OH226237   2.656   6.753   9.488 -0.6867 -0.4027  0.4668
  681TIP3    H126238   2.651   6.761   9.393  0.3083  2.4054  0.5402
  681TIP3    H226239   2.574   6.791   9.519 -1.3200 -1.9432  0.7748
  682TIP3   OH226240   4.642   0.975   7.689 -0.3136 -0.1831 -0.0482
  682TIP3    H126241   4.677   1.023   7.613 -1.4649  1.3873  0.3783
  682TIP3    H226242   4.586   1.038   7.734 -1.7717 -1.8920  0.6435
  683TIP3   OH226243   2.210   0.712   8.966 -0.3873 -0.1538 -0.0988
  683TIP3    H126244   2.152   0.652   8.919 -0.5652 -0.1006  0.0517
  683TIP3    H226245   2.245   0.770   8.899  0.6617 -1.1395 -0.4272
  684TIP3   OH226246   6.321   6.162   7.394  0.1933 -0.0270  0.0731
  684TIP3    H126247   6.229   6.185   7.404  0.6988  1.1858  2.5567
  684TIP3    H226248   6.355   6.227   7.332 -0.7013 -0.8865 -1.3827
  685TIP3   OH226249   4.642   6.934   8.960 -0.4167  0.3363  0.7562
  685TIP3    H126250   4.588   6.856   8.949 -1.0808  0.4114  3.0598
  685TIP3    H226251   4.707   6.910   9.026 -0.7059  1.7404  1.5990
  686TIP3   OH226252   5.895   1.786   7.383  0.2085 -0.1009  0.0136
  686TIP3    H126253   5.918   1.874   7.353  0.8670 -0.6205 -1.0987
  686TIP3    H226254   5.799   1.785   7.384  0.1916  0.4640 -0.4985
  687TIP3   OH226255   0.079   6.448   9.195  0.8934 -0.5261 -0.3372
  687TIP3    H126256   0.023   6.372   9.181  0.6787 -0.6655  1.1490
  687TIP3    H226257   0.029   6.521   9.159  0.7974 -0.9697 -1.1366
  688TIP3   OH226258   1.360   1.422   8.890  0.0983  0.1440 -0.0211
  688TIP3    H126259   1.374   1.366   8.966 -2.1755  0.8704  1.0194
  688TIP3    H226260   1.407   1.503   8.910 -0.1071  0.1610  0.3911
  689TIP3   OH226261   1.251   7.173   7.841  0.0979  0.2330 -0.2792
  689TIP3    H126262   1.279   7.143   7.755  0.8948  1.2500 -0.3985
  689TIP3    H226263   1.189   7.106   7.872  0.4588 -0.5713 -1.2650
  690TIP3   OH226264   4.500   1.125   8.984  0.0115  0.0530 -0.4418
  690TIP3    H126265   4.437   1.139   9.055 -1.1055 -1.3165 -1.1164
  690TIP3    H226266   4.585   1.146   9.023 -0.7534  1.0291  0.7685
  691TIP3   OH226267   1.573   1.585   7.864  0.4891  0.0123 -0.2039
  691TIP3    H126268   1.536   1.673   7.871 -0.3508 -0.3469 -0.0147
  691TIP3    H226269   1.621   1.572   7.946  1.2140  0.5559 -0.5354
  692TIP3   OH226270   2.208   0.581   8.399 -0.0782  0.0550  0.1558
  692TIP3    H126271   2.152   0.655   8.379 -2.2899 -1.6663 -0.4163
  692TIP3    H226272   2.201   0.524   8.322  1.1749 -0.9925  0.7683
  693TIP3   OH226273   5.290   2.170   7.024  0.3953  0.3301 -0.3080
  693TIP3    H126274   5.382   2.196   7.025  1.5563 -3.2915 -0.4284
  693TIP3    H226275   5.267   2.169   6.931  0.1429  1.3027 -0.2747
  694TIP3   OH226276   6.918   7.118   8.407 -0.3963  0.1850  0.2062
  694TIP3    H126277   6.884   7.041   8.453 -1.1876 -0.1294 -0.8702
  694TIP3    H226278   6.981   7.157   8.469 -0.8398 -0.6598  1.2229
  695TIP3   OH226279   2.605   0.852   8.757  0.0470 -0.0946  0.0533
  695TIP3    H126280   2.597   0.817   8.845 -2.0892  0.9198  0.3182
  695TIP3    H226281   2.566   0.786   8.700  1.6254 -0.8508 -0.2137
  696TIP3   OH226282   0.405   2.873   9.490  0.1934  0.5782 -0.8515
  696TIP3    H126283   0.382   2.896   9.579  0.0112  2.1124 -1.2782
  696TIP3    H226284   0.327   2.891   9.439  0.7782  1.2137 -1.5512
  697TIP3   OH226285   0.319   2.580   6.686 -0.1629  0.2632 -0.2517
  697TIP3    H126286   0.241   2.525   6.695 -0.5420  1.1451  3.3505
  697TIP3    H226287   0.383   2.524   6.643 -1.2077 -2.3392  1.3393
  698TIP3   OH226288   6.253   0.625   7.751 -0.2199  0.1153 -0.1924
  698TIP3    H126289   6.237   0.713   7.785 -1.4968 -0.6386  1.2374
  698TIP3    H226290   6.167   0.592   7.727 -0.4088 -2.2379  3.1495
  699TIP3   OH226291   4.716   7.463   8.203  0.3382  0.4607 -0.3360
  699TIP3    H126292   4.676   7.396   8.147 -0.1301  0.5021 -0.0664
  699TIP3    H226293   4.728   7.538   8.146 -1.4678  1.0021 -0.0827
  700TIP3   OH226294   5.206   6.703   7.695 -0.2183 -0.4999 -0.0755
  700TIP3    H126295   5.284   6.711   7.641  0.6105 -1.6530  0.8976
  700TIP3    H226296   5.167   6.790   7.694  0.6895 -0.0820 -1.1457
  701TIP3   OH226297   6.579   0.156   6.986 -0.1549 -0.4203  0.7428
  701TIP3    H126298   6.529   0.143   6.906 -2.2205  1.3222  1.6549
  701TIP3    H226299   6.587   0.068   7.023 -1.0310 -0.9708 -0.3132
  702TIP3   OH226300   1.642   7.317   8.244  0.2434  0.6368  0.4632
  702TIP3    H126301   1.728   7.333   8.284  1.5283  1.2285 -2.2753
  702TIP3    H226302   1.663   7.273   8.161 -2.2100 -0.1496  0.1993
  703TIP3   OH226303   5.164   7.053   8.944 -0.8764  0.2204 -0.5495
  703TIP3    H126304   5.214   6.976   8.918 -2.6938 -0.6116 -1.7361
  703TIP3    H226305   5.088   7.054   8.886 -2.7197  0.9495  1.7006
  704TIP3   OH226306   2.937   6.458   8.107 -0.3523  0.1911  0.3524
  704TIP3    H126307   2.995   6.400   8.058 -0.5020  1.9124 -2.0409
  704TIP3    H226308   2.850   6.423   8.094 -0.3755  0.5588 -0.5817
  705TIP3   OH226309   6.327   0.210   7.415 -0.6007 -0.2574  0.1207
  705TIP3    H126310   6.368   0.294   7.395 -1.6441 -0.3030 -2.5472
  705TIP3    H226311   6.401   0.150   7.425  0.0989  0.4745 -0.4848
  706TIP3   OH226312   4.770   0.049   7.004  0.5899 -0.1640 -0.5924
  706TIP3    H126313   4.693   0.057   7.061  1.2897  0.6007  0.2970
  706TIP3    H226314   4.747  -0.018   6.941  0.3190 -2.1593  1.5082
  707TIP3   OH226315   1.591   4.111   7.615 -0.1648 -0.3365  0.3414
  707TIP3    H126316   1.652   4.067   7.557 -0.5881 -0.0159 -0.3553
  707TIP3    H226317   1.625   4.094   7.703  2.8031  2.4808 -0.0614
  708TIP3   OH226318   1.237   6.759   8.408 -0.6572 -0.3108 -0.5689
  708TIP3    H126319   1.255   6.846   8.442  0.0570  0.2085 -2.1734
  708TIP3    H226320   1.153   6.767   8.363  0.2808  0.1102 -2.3678
  709TIP3   OH226321   5.318   7.527   9.373  0.2212 -0.2403  0.3635
  709TIP3    H126322   5.380   7.576   9.319 -1.5555  2.8047  0.8433
  709TIP3    H226323   5.369   7.500   9.450  1.2644  1.0066  0.1414
  710TIP3   OH226324   6.133   0.075   7.872  0.7785  0.4863  0.4314
  710TIP3    H126325   6.167   0.104   7.787  1.2505  0.4123  0.5886
  710TIP3    H226326   6.188   0.120   7.936 -0.2778  1.3915  0.7217
  711TIP3   OH226327   1.486   0.767   7.663 -0.1369 -0.2415  0.1957
  711TIP3    H126328   1.441   0.851   7.671 -1.6711 -0.9450 -0.6532
  711TIP3    H226329   1.421   0.702   7.691  1.3121 -1.1207  1.7447
  712TIP3   OH226330   2.353   2.229   7.698 -0.4448  0.6483  0.3415
  712TIP3    H126331   2.360   2.142   7.659 -1.3641 -0.0905  1.7392
  712TIP3    H226332   2.373   2.215   7.790  1.2717  2.2628  0.2706
  713TIP3   OH226333   2.489   3.485   9.106 -0.6751  0.1035 -0.1656
  713TIP3    H126334   2.576   3.485   9.066 -0.5138  1.0101  0.1541
  713TIP3    H226335   2.441   3.555   9.060 -0.9346  0.2216  0.2775
  714TIP3   OH226336   5.736   0.556   8.152 -0.3795 -0.2719  0.5517
  714TIP3    H126337   5.760   0.633   8.205  2.1435 -0.4042 -0.2807
  714TIP3    H226338   5.735   0.484   8.215 -0.2445  0.0317  0.9105
  715TIP3   OH226339   1.616   2.824   9.066  0.3491 -0.1108  0.3141
  715TIP3    H126340   1.536   2.777   9.092  1.3239 -1.1770  1.5272
  715TIP3    H226341   1.642   2.872   9.144  1.7578 -1.0644  0.4775
  716TIP3   OH226342   5.670   3.378   7.114 -0.5899 -0.3646  0.1705
  716TIP3    H126343   5.603   3.444   7.094 -0.7316 -1.2373 -2.5746
  716TIP3    H226344   5.691   3.339   7.030  2.4808 -1.0236  1.1214
  717TIP3   OH226345   7.404   5.130   7.204 -0.1745  0.6882 -0.4764
  717TIP3    H126346   7.332   5.068   7.219  0.6183 -0.1076  0.2049
  717TIP3    H226347   7.476   5.075   7.172  0.7945  1.1044  0.8996
  718TIP3   OH226348   4.617   6.822   8.238  0.0697 -0.2293  0.2811
  718TIP3    H126349   4.549   6.755   8.246 -0.6340  0.2364 -1.2995
  718TIP3    H226350   4.692   6.776   8.201 -0.2929 -0.2546 -0.4568
  719TIP3   OH226351   1.410   7.394   7.443  0.1617  0.0219  0.0496
  719TIP3    H126352   1.454   7.470   7.404  0.2417  1.2933  2.4524
  719TIP3    H226353   1.330   7.430   7.482  0.6011 -0.9656  1.9415
  720TIP3   OH226354   0.482   2.894   6.718  0.2237 -0.4132  0.2070
  720TIP3    H126355   0.461   2.836   6.792  0.1324 -0.7954 -0.1116
  720TIP3    H226356   0.418   2.869   6.651 -0.2602  0.5359  0.3074
  721TIP3   OH226357   0.064   3.030   6.817 -0.0378 -0.0627  0.4555
  721TIP3    H126358  -0.022   3.010   6.781 -0.6317  1.0068  1.1882
  721TIP3    H226359   0.122   2.964   6.781 -1.1537 -0.7516 -0.1295
  722TIP3   OH226360   7.667   1.795   7.616 -0.2382 -0.0106 -0.4126
  722TIP3    H126361   7.596   1.820   7.675 -1.0281  0.0244 -1.3538
  722TIP3    H226362   7.654   1.849   7.538  1.7618  1.1448 -0.0149
  723TIP3   OH226363   6.788   2.904   7.288 -0.2704  0.4948  0.2552
  723TIP3    H126364   6.761   2.933   7.376  0.6308  0.4153  0.5678
  723TIP3    H226365   6.870   2.859   7.302 -0.4296 -0.0655 -0.5657
  724TIP3   OH226366   3.219   6.888   7.463 -0.2055 -0.0860  0.3077
  724TIP3    H126367   3.214   6.823   7.394 -0.3089 -0.0129  0.2460
  724TIP3    H226368   3.226   6.837   7.544 -0.8695 -0.1862  0.3106
  725TIP3   OH226369   2.834   1.674   7.668  0.0893 -1.0935  0.3080
  725TIP3    H126370   2.830   1.747   7.730 -1.0115 -0.6188 -0.3047
  725TIP3    H226371   2.923   1.640   7.678  0.0649 -0.7923  1.8706
  726TIP3   OH226372   4.456   1.928   6.882  1.0470  0.1839  0.1272
  726TIP3    H126373   4.381   1.988   6.884  0.3274 -0.6972  0.9542
  726TIP3    H226374   4.526   1.978   6.841 -0.7465  0.1685 -3.2544
  727TIP3   OH226375   6.630   5.859   9.365  0.3781  0.0786 -0.4401
  727TIP3    H126376   6.672   5.912   9.297 -1.0151 -0.1953 -1.5679
  727TIP3    H226377   6.544   5.898   9.377 -0.2821 -1.2770 -0.5403
  728TIP3   OH226378   5.422   6.815   7.492 -0.0315 -0.2057 -0.4258
  728TIP3    H126379   5.507   6.783   7.461 -0.0225 -1.3520  0.7031
  728TIP3    H226380   5.359   6.777   7.430  0.1581 -0.6515 -0.3515
  729TIP3   OH226381   5.941   1.173   7.935  0.5568  0.0293  1.0256
  729TIP3    H126382   5.858   1.179   7.981  0.5203  0.6327  0.8835
  729TIP3    H226383   5.931   1.097   7.877 -0.4973  1.0275 -0.1754
  730TIP3   OH226384   2.646   7.216   6.715  0.3477  0.2690 -0.2133
  730TIP3    H126385   2.728   7.178   6.684  0.2552  1.2506 -1.8095
  730TIP3    H226386   2.578   7.165   6.671  0.0184 -1.1440  1.8184
  731TIP3   OH226387   3.704   0.103   9.545  0.0145 -0.0897 -0.6961
  731TIP3    H126388   3.651   0.026   9.564 -0.4612 -0.3512 -2.8484
  731TIP3    H226389   3.785   0.067   9.509  0.7671  0.3830  0.4650
  732TIP3   OH226390   0.410   7.128   8.267  0.0545 -0.4319 -0.2908
  732TIP3    H126391   0.422   7.035   8.247  0.1251 -0.2896 -0.9244
  732TIP3    H226392   0.495   7.155   8.302 -0.1733 -0.7621  0.5359
  733TIP3   OH226393   6.761   6.376   8.998  0.4492 -0.2970 -0.4833
  733TIP3    H126394   6.811   6.336   9.069 -0.7273  0.2428  0.6884
  733TIP3    H226395   6.672   6.344   9.010  0.4542 -1.2003 -2.5044
  734TIP3   OH226396   0.564   6.483   8.311 -0.3894 -0.3779  0.1234
  734TIP3    H126397   0.643   6.476   8.365 -0.7527  0.9863  0.9027
  734TIP3    H226398   0.596   6.505   8.224  0.1446 -1.1049  0.1276
  735TIP3   OH226399   2.674   4.464   7.166  0.0077  0.0625 -0.3277
  735TIP3    H126400   2.696   4.402   7.235  2.8049 -0.0388 -1.1656
  735TIP3    H226401   2.692   4.416   7.085 -0.9819  0.9086 -1.0729
  736TIP3   OH226402   6.693   4.606   6.788  0.4352 -0.3711 -0.2371
  736TIP3    H126403   6.679   4.700   6.785 -0.7815 -0.5690 -1.2801
  736TIP3    H226404   6.607   4.569   6.804  1.0802 -1.2810  1.4081
  737TIP3   OH226405   0.490   0.670   7.552 -0.5538 -0.1840  0.0644
  737TIP3    H126406   0.520   0.590   7.510 -1.1102 -0.8354  0.8833
  737TIP3    H226407   0.422   0.704   7.493 -0.8333 -0.7067  0.0848
  738TIP3   OH226408   7.447   1.759   9.104  0.0659  0.0950  0.0323
  738TIP3    H126409   7.430   1.667   9.084  0.7761  0.4191 -2.2626
  738TIP3    H226410   7.525   1.757   9.160  0.4350 -0.6676 -0.4959
  739TIP3   OH226411   3.172   1.450   8.279 -0.0994 -0.7244 -0.5131
  739TIP3    H126412   3.201   1.530   8.324 -1.8322 -1.3641  1.9515
  739TIP3    H226413   3.252   1.410   8.247  0.9624  1.1230 -0.3224
  740TIP3   OH226414   0.324   6.223   9.487  0.3718  0.0135 -0.0943
  740TIP3    H126415   0.337   6.252   9.397 -2.3783  0.1660 -0.5448
  740TIP3    H226416   0.283   6.297   9.531 -0.0433 -0.7029  0.7582
  741TIP3   OH226417   3.788   0.392   9.569  0.0389 -0.6077  0.5074
  741TIP3    H126418   3.774   0.302   9.598 -2.1527 -0.3760  0.3758
  741TIP3    H226419   3.703   0.418   9.532  0.7392  1.3817  0.1910
  742TIP3   OH226420   2.193   0.981   9.481  0.5481  0.3985  0.1251
  742TIP3    H126421   2.160   0.894   9.460  1.3014  0.4936 -1.6829
  742TIP3    H226422   2.119   1.039   9.467  0.8611  0.3856 -1.9735
  743TIP3   OH226423   6.152   5.600   8.085 -0.1164 -0.3636  0.2516
  743TIP3    H126424   6.092   5.558   8.148 -0.1197  0.0629  0.5411
  743TIP3    H226425   6.094   5.632   8.016 -0.2808  0.3712  0.7104
  744TIP3   OH226426   6.161   2.242   8.927 -0.7109 -0.2542 -0.4346
  744TIP3    H126427   6.241   2.191   8.943  0.3388  1.8017  1.5153
  744TIP3    H226428   6.090   2.179   8.937  0.5172 -1.4348  1.6688
  745TIP3   OH226429   2.795   4.993   7.554 -0.3258  0.0606 -0.2916
  745TIP3    H126430   2.735   4.951   7.615  0.7941 -0.5902  0.3994
  745TIP3    H226431   2.817   5.076   7.597 -1.2958  0.6563 -0.9056
  746TIP3   OH226432   5.254   1.508   8.391 -0.1003 -0.2352 -0.1410
  746TIP3    H126433   5.233   1.599   8.411  0.9279  1.0177 -4.0178
  746TIP3    H226434   5.348   1.508   8.377 -0.3001 -1.5524 -1.6742
  747TIP3   OH226435   0.315   0.657   6.844 -0.0106 -0.2053  0.5957
  747TIP3    H126436   0.338   0.606   6.922  0.1393  0.4587  0.9933
  747TIP3    H226437   0.394   0.707   6.824 -0.6193  1.0266  1.1322
  748TIP3   OH226438   2.319   0.772   7.779  0.4611 -0.3556 -0.0699
  748TIP3    H126439   2.380   0.700   7.795  0.7049  0.0411  0.8182
  748TIP3    H226440   2.284   0.754   7.691  2.5342 -0.1119 -1.0166
  749TIP3   OH226441   4.518   3.146   8.294 -0.0727  0.5521  1.0259
  749TIP3    H126442   4.610   3.147   8.270 -0.8209  1.1584 -2.1795
  749TIP3    H226443   4.490   3.055   8.279 -0.1784  0.5447  1.2593
  750TIP3   OH226444   1.867   5.641   8.346  0.1967  0.3018 -0.3188
  750TIP3    H126445   1.850   5.685   8.262  0.5451 -0.9710 -1.0767
  750TIP3    H226446   1.782   5.602   8.369 -0.0197  1.0398  0.1738
  751TIP3   OH226447   7.107   2.221   9.136  0.0608  0.0245 -0.0958
  751TIP3    H126448   7.165   2.218   9.212 -0.1704  1.0055  0.1356
  751TIP3    H226449   7.046   2.293   9.156 -1.1114 -0.8514 -0.4191
  752TIP3   OH226450   4.505   6.717   7.919  0.0598  0.6229  0.3691
  752TIP3    H126451   4.586   6.705   7.869  1.1635 -0.4081  2.2958
  752TIP3    H226452   4.454   6.638   7.900 -0.3872  1.1286 -0.6006
  753TIP3   OH226453   2.031   7.522   7.066 -0.2695 -0.0184 -0.2607
  753TIP3    H126454   2.052   7.612   7.090 -3.0689  0.3746  1.1342
  753TIP3    H226455   1.949   7.504   7.111  0.0778 -3.2227 -0.6853
  754TIP3   OH226456   4.553   5.823   9.030  0.2936 -0.0591  0.0949
  754TIP3    H126457   4.648   5.828   9.014  0.4416 -1.5843  0.3845
  754TIP3    H226458   4.533   5.730   9.024 -1.4488  0.3536 -1.3343
  755TIP3   OH226459   1.725   1.575   8.084  0.7319 -0.0541  0.4299
  755TIP3    H126460   1.712   1.485   8.115 -2.3919 -0.2006 -0.9841
  755TIP3    H226461   1.676   1.629   8.147 -1.2516  0.1379 -1.1939
  756TIP3   OH226462   7.067   1.924   7.010  0.4154  0.1785 -0.0750
  756TIP3    H126463   7.035   1.892   6.926  2.4715 -1.8274 -0.2004
  756TIP3    H226464   7.075   1.846   7.064  0.7637  1.2016  1.4236
  757TIP3   OH226465   5.828   3.060   6.448 -0.1736 -0.8080  0.6427
  757TIP3    H126466   5.833   2.965   6.456 -0.2641 -0.9119 -0.4441
  757TIP3    H226467   5.919   3.089   6.441  0.0715 -0.5296  3.5328
  758TIP3   OH226468   2.229   0.084   8.563  0.5284 -0.0198  0.0595
  758TIP3    H126469   2.170   0.052   8.632  1.8246 -1.4817  0.5459
  758TIP3    H226470   2.185   0.060   8.481  0.4249 -1.0839  0.4129
  759TIP3   OH226471   2.957   3.702   7.932 -0.5842 -0.2159 -0.3576
  759TIP3    H126472   2.982   3.792   7.909 -1.3137  0.5747  1.6869
  759TIP3    H226473   2.875   3.688   7.886 -0.6048  0.2823 -0.4800
  760TIP3   OH226474   6.024   3.486   9.378  0.1941  0.2301  0.1203
  760TIP3    H126475   5.985   3.560   9.331 -2.6837 -0.6934  0.9153
  760TIP3    H226476   6.101   3.524   9.421  0.1584  2.1855 -1.3799
  761TIP3   OH226477   3.525   0.551   8.380  0.1765  0.0299 -0.0655
  761TIP3    H126478   3.437   0.563   8.415 -0.0422 -0.0261 -0.5902
  761TIP3    H226479   3.565   0.485   8.437 -0.2976 -0.3227 -0.1369
  762TIP3   OH226480   0.011   3.523   7.420 -0.1645  0.2996 -0.1054
  762TIP3    H126481   0.034   3.563   7.336  1.5401 -0.5664 -0.0860
  762TIP3    H226482   0.069   3.564   7.483 -1.1519  0.6457  0.6017
  763TIP3   OH226483   5.235   6.129   7.898  0.5953  0.9081 -0.2264
  763TIP3    H126484   5.178   6.058   7.929  0.0130  0.1630 -2.7127
  763TIP3    H226485   5.323   6.103   7.926  0.1138  0.4206  0.9090
  764TIP3   OH226486   6.860   1.995   8.690 -0.4783  0.1504 -0.5192
  764TIP3    H126487   6.939   1.998   8.744 -0.8793  0.2247  0.0762
  764TIP3    H226488   6.830   1.905   8.697  0.9796 -0.6170 -2.8749
  765TIP3   OH226489   5.949   2.476   7.781 -0.3593 -0.0766  0.5416
  765TIP3    H126490   5.999   2.399   7.752 -1.1694 -1.2079  2.0151
  765TIP3    H226491   6.009   2.549   7.768  1.7507 -1.3727  2.2346
  766TIP3   OH226492   6.986   6.880   7.158 -0.3327  0.2272 -0.2892
  766TIP3    H126493   6.940   6.907   7.079 -0.3028  1.0686 -0.0320
  766TIP3    H226494   6.986   6.785   7.155 -0.2336  0.2585 -1.3478
  767TIP3   OH226495   4.647   6.331   7.771  0.3699  0.0474  0.0322
  767TIP3    H126496   4.556   6.300   7.775 -1.1634  3.4693 -2.6477
  767TIP3    H226497   4.695   6.261   7.728 -1.4668 -1.0528 -0.3287
  768TIP3   OH226498   3.337   0.149   7.323 -0.4666 -0.0749 -0.3760
  768TIP3    H126499   3.421   0.190   7.300 -0.0646  0.4889  1.8184
  768TIP3    H226500   3.351   0.056   7.307  0.8251 -0.0644  0.4800
  769TIP3   OH226501   2.826   6.801   7.682  0.2027  0.0311  0.2747
  769TIP3    H126502   2.906   6.788   7.733  0.0923  2.0699  1.0318
  769TIP3    H226503   2.757   6.810   7.748 -0.7067 -1.6453 -0.3672
  770TIP3   OH226504   4.478   1.836   7.164 -0.3966 -0.4002 -0.2366
  770TIP3    H126505   4.385   1.842   7.144 -0.2754 -0.3927 -0.8172
  770TIP3    H226506   4.522   1.844   7.079  0.0889 -1.6350 -0.1288
  771TIP3   OH226507   1.757   5.484   7.968 -0.5697  0.8250  0.3583
  771TIP3    H126508   1.811   5.415   8.006 -0.0817  1.0523  0.0787
  771TIP3    H226509   1.677   5.483   8.021 -0.1988  0.6476  0.9284
  772TIP3   OH226510   4.085   0.766   7.155 -0.2938  0.0640  0.1038
  772TIP3    H126511   4.156   0.783   7.216  1.0702  1.0537 -1.6755
  772TIP3    H226512   4.109   0.684   7.112 -1.3285 -0.7169  0.9686
  773TIP3   OH226513   2.471   0.609   9.201  0.3012 -0.1455  0.0472
  773TIP3    H126514   2.378   0.585   9.209  0.6509 -1.5151  0.3277
  773TIP3    H226515   2.507   0.592   9.287  0.6479  1.2768  0.2073
  774TIP3   OH226516   1.704   7.249   7.969  0.1724  0.1604  0.0850
  774TIP3    H126517   1.610   7.246   7.988  0.2470 -0.9915  0.3483
  774TIP3    H226518   1.711   7.220   7.879  0.2921  0.1009  0.1141
  775TIP3   OH226519   6.605   4.260   7.819  0.5581 -0.9293  0.2585
  775TIP3    H126520   6.549   4.307   7.881  0.1925 -0.6609 -0.2705
  775TIP3    H226521   6.660   4.205   7.875  0.6373 -0.2607  0.8549
  776TIP3   OH226522   7.431   5.738   8.213  0.0231  0.0742  0.4349
  776TIP3    H126523   7.370   5.669   8.239 -0.8484  0.1807 -1.2368
  776TIP3    H226524   7.386   5.819   8.237 -1.1627  0.2133 -1.9368
  777TIP3   OH226525   0.584   2.468   6.617  0.2270 -0.2538  0.3217
  777TIP3    H126526   0.630   2.412   6.555  1.0798 -0.2542  0.9335
  777TIP3    H226527   0.645   2.539   6.635 -1.0978  1.2746 -0.9575
  778TIP3   OH226528   5.540   4.463   8.304 -0.2878  0.1252  0.1236
  778TIP3    H126529   5.542   4.557   8.288  0.6182 -0.0460 -0.8886
  778TIP3    H226530   5.627   4.433   8.277 -0.1334 -0.8273  1.5881
  779TIP3   OH226531   2.246   7.485   7.304 -0.0664 -0.1056  0.3114
  779TIP3    H126532   2.175   7.433   7.343 -3.5592  2.7402 -1.6509
  779TIP3    H226533   2.244   7.567   7.353  1.1910  0.4285 -0.5069
  780TIP3   OH226534   6.266   3.949   9.601  0.0545 -0.0567  0.1008
  780TIP3    H126535   6.330   3.985   9.662  1.3669  1.4617 -2.0361
  780TIP3    H226536   6.182   3.979   9.634  0.6909  0.5146  1.2684
  781TIP3   OH226537   1.099   3.105   8.158 -0.5139  0.1704 -0.3858
  781TIP3    H126538   1.024   3.159   8.135 -0.6118 -0.3942 -1.5034
  781TIP3    H226539   1.157   3.111   8.081  1.2193  1.6201  0.9386
  782TIP3   OH226540   5.815   2.469   6.845  0.0167 -0.0324 -0.3827
  782TIP3    H126541   5.868   2.398   6.808 -1.8645 -1.2397 -0.9399
  782TIP3    H226542   5.843   2.475   6.936  1.8694  0.1681 -0.9258
  783TIP3   OH226543   4.290   0.879   8.951  0.1004  0.1003  0.1686
  783TIP3    H126544   4.290   0.968   8.985  0.1874 -0.1566  0.8461
  783TIP3    H226545   4.378   0.847   8.967  0.8946  0.7363 -2.3717
  784TIP3   OH226546   5.162   2.667   8.254  0.3126  0.3278  0.2625
  784TIP3    H126547   5.092   2.712   8.302  0.5881  0.5296  0.4811
  784TIP3    H226548   5.237   2.671   8.313  1.4286  2.9045 -1.1595
  785TIP3   OH226549   5.060   0.246   7.581 -0.6126 -0.1441  0.0714
  785TIP3    H126550   5.034   0.260   7.672 -0.1748 -0.9824  0.3364
  785TIP3    H226551   5.094   0.330   7.553  1.1995 -0.3857  1.3516
  786TIP3   OH226552   6.111   3.166   7.573  0.7153 -0.3944  0.5475
  786TIP3    H126553   6.177   3.139   7.510  0.6927 -2.0672  1.1848
  786TIP3    H226554   6.038   3.105   7.559 -1.1070  1.9167 -0.7219
  787TIP3   OH226555   5.382   6.882   8.563  0.0704  0.2499 -0.0638
  787TIP3    H126556   5.420   6.876   8.476  0.1572  0.2845 -0.0280
  787TIP3    H226557   5.289   6.862   8.550 -0.0693  1.0308 -0.2858
  788TIP3   OH226558   1.027   4.223   7.770  0.1618 -0.0580 -0.3683
  788TIP3    H126559   0.959   4.156   7.769  0.8617 -0.7763 -0.6439
  788TIP3    H226560   1.040   4.243   7.863 -1.1308  0.8412 -0.3452
  789TIP3   OH226561   4.437   3.793   6.955 -0.1051 -0.4313  0.4590
  789TIP3    H126562   4.471   3.728   6.893  0.2188  0.0813  0.0852
  789TIP3    H226563   4.418   3.870   6.900  0.2022  0.0365  1.0031
  790TIP3   OH226564   7.270   3.454   9.113 -0.1009 -1.1898 -0.4196
  790TIP3    H126565   7.225   3.398   9.049 -1.0130 -1.2150  0.2322
  790TIP3    H226566   7.298   3.530   9.062  1.6161 -2.4058 -1.4445
  791TIP3   OH226567   6.030   5.565   7.207 -0.2087 -0.1314  0.0949
  791TIP3    H126568   5.996   5.476   7.194 -0.3347 -0.4474  2.1528
  791TIP3    H226569   5.978   5.620   7.149 -0.9482 -1.2595 -0.3405
  792TIP3   OH226570   2.556   0.809   7.400  0.1704  0.0034  0.2333
  792TIP3    H126571   2.561   0.736   7.338  1.2896 -0.6603  1.0697
  792TIP3    H226572   2.575   0.887   7.347 -0.4139 -0.3687 -0.5454
  793TIP3   OH226573   6.478   5.109   7.484  0.0189 -0.2996  0.2173
  793TIP3    H126574   6.406   5.087   7.543  1.4494 -1.4942  1.6028
  793TIP3    H226575   6.507   5.024   7.449  1.0128  0.1140  0.0052
  794TIP3   OH226576   3.344   5.550   9.341  0.3223 -0.0857 -0.5378
  794TIP3    H126577   3.254   5.582   9.343  0.3103 -0.0181  2.3887
  794TIP3    H226578   3.346   5.480   9.407  2.4081 -0.0028 -0.4566
  795TIP3   OH226579   0.653   4.412   8.041 -0.7213  0.5429  0.6894
  795TIP3    H126580   0.593   4.340   8.024  0.9376 -0.6406 -0.5443
  795TIP3    H226581   0.630   4.443   8.129 -1.7882 -1.1731  1.0648
  796TIP3   OH226582   5.994   0.291   6.544 -0.3764  0.1873 -0.2414
  796TIP3    H126583   6.050   0.257   6.474  2.5801 -0.0353  2.0445
  796TIP3    H226584   5.981   0.217   6.603 -1.3506  0.8102  0.3641
  797TIP3   OH226585   1.773   3.999   7.434  0.0375  0.5316  0.0695
  797TIP3    H126586   1.754   3.911   7.401 -0.7204  0.0470  1.6722
  797TIP3    H226587   1.751   4.057   7.361 -0.7749 -0.5268 -0.5616
  798TIP3   OH226588   5.038   0.787   8.706  0.1853  0.5622 -0.3891
  798TIP3    H126589   5.048   0.874   8.667  1.4544  0.1517 -1.0190
  798TIP3    H226590   5.060   0.727   8.636 -0.3690 -0.2752  0.1373
  799TIP3   OH226591   2.446   1.958   8.592  0.5031  0.5571 -0.0532
  799TIP3    H126592   2.527   1.908   8.588  0.3124  0.3040 -1.8003
  799TIP3    H226593   2.394   1.915   8.660  0.7494 -1.0423 -0.8203
  800TIP3   OH226594   4.221   7.047   7.442  0.1098  0.4690  0.4172
  800TIP3    H126595   4.173   6.976   7.399 -0.3140  0.7896  0.3547
  800TIP3    H226596   4.158   7.120   7.445  0.7851  1.0922 -0.2033
  801TIP3   OH226597   2.445   7.465   6.542  0.4609 -0.5730 -0.1974
  801TIP3    H126598   2.381   7.525   6.505 -0.2864  0.1374  2.0855
  801TIP3    H226599   2.393   7.392   6.577  1.0549 -0.8793  0.0740
  802TIP3   OH226600   0.467   4.868   8.262 -0.7925 -0.4798  0.0658
  802TIP3    H126601   0.375   4.853   8.240 -0.5700 -0.6698 -0.7785
  802TIP3    H226602   0.491   4.946   8.212  0.0164 -1.5348 -1.2801
  803TIP3   OH226603   6.452   2.060   7.722  0.3051 -0.3815 -0.4964
  803TIP3    H126604   6.546   2.070   7.706  0.3082 -0.0545 -0.3040
  803TIP3    H226605   6.425   2.146   7.753  0.3602 -1.0331  1.4937
  804TIP3   OH226606   6.552   6.221   8.032  0.1460  0.7521  0.4688
  804TIP3    H126607   6.493   6.290   8.063  0.9860  2.6105 -1.7347
  804TIP3    H226608   6.501   6.173   7.968  0.1105  0.4883  0.6970
  805TIP3   OH226609   0.492   0.140   8.630 -0.2415  0.0836  0.0599
  805TIP3    H126610   0.405   0.178   8.617 -0.5687 -1.1093 -1.4922
  805TIP3    H226611   0.520   0.112   8.543  1.0904 -0.8723  0.7477
  806TIP3   OH226612   0.588   0.241   7.609 -0.8792 -0.0381 -0.5416
  806TIP3    H126613   0.605   0.213   7.519 -0.9323 -0.2543 -0.4857
  806TIP3    H226614   0.647   0.315   7.623  2.0233 -2.3634  0.4963
  807TIP3   OH226615   1.977   2.068   9.071 -0.3281  0.2808 -0.8012
  807TIP3    H126616   1.965   2.029   8.984 -0.9731  1.5914 -1.3112
  807TIP3    H226617   1.925   2.148   9.070 -2.3488 -0.8515  1.6380
  808TIP3   OH226618   2.946   0.782   8.793  0.2513  0.0628  0.3465
  808TIP3    H126619   3.015   0.845   8.812 -0.0657  0.9756 -1.3462
  808TIP3    H226620   2.900   0.818   8.717 -1.8590 -0.7094  1.1725
  809TIP3   OH226621   0.272   2.674   7.634 -0.5372 -0.0267  0.4756
  809TIP3    H126622   0.222   2.616   7.691  0.4886 -1.1966  0.2314
  809TIP3    H226623   0.234   2.761   7.649 -0.8711 -0.4409  2.2686
  810TIP3   OH226624   3.936   4.217   8.901 -0.1684 -0.1018  0.1221
  810TIP3    H126625   3.995   4.145   8.877  1.2523  1.1292 -0.2229
  810TIP3    H226626   3.856   4.200   8.850 -0.0412 -1.6459  0.3798
  811TIP3   OH226627   5.433   2.827   7.219 -0.2846  0.4531  0.1759
  811TIP3    H126628   5.449   2.917   7.248 -0.6113  0.3715  0.6121
  811TIP3    H226629   5.402   2.837   7.129  0.8119  0.7001 -0.1890
  812TIP3   OH226630   3.270   6.704   9.456  0.4254  0.1986 -0.2897
  812TIP3    H126631   3.312   6.707   9.370 -0.8348 -1.5051 -1.0256
  812TIP3    H226632   3.178   6.721   9.439  0.3994  1.5125  0.9816
  813TIP3   OH226633   1.644   6.758   8.973 -0.2216 -0.3243  0.3378
  813TIP3    H126634   1.564   6.751   9.025 -0.5703 -0.5753 -0.2289
  813TIP3    H226635   1.632   6.837   8.920 -0.1538 -0.4434  0.1440
  814TIP3   OH226636   0.747   2.671   7.284 -0.1680  0.2860  0.0566
  814TIP3    H126637   0.746   2.654   7.190 -0.1129  0.7556 -0.0329
  814TIP3    H226638   0.786   2.758   7.293  0.0980  0.1245  0.5349
  815TIP3   OH226639   6.263   5.525   8.902  0.3238 -0.5583 -0.2060
  815TIP3    H126640   6.308   5.519   8.818  1.3036 -0.8039  0.3293
  815TIP3    H226641   6.287   5.611   8.937 -0.4999 -0.2365 -0.4004
  816TIP3   OH226642   2.200   4.379   7.449 -0.0749  0.0739 -0.2313
  816TIP3    H126643   2.166   4.354   7.535 -0.3623  0.6044 -0.1878
  816TIP3    H226644   2.286   4.417   7.467 -0.6949  1.4403 -0.0161
  817TIP3   OH226645   6.377   7.568   6.902 -0.1461  0.3693 -0.2587
  817TIP3    H126646   6.408   7.655   6.879  0.1931  0.4541  0.4974
  817TIP3    H226647   6.323   7.541   6.827 -0.2330  1.2099 -0.5054
  818TIP3   OH226648   4.391   4.389   7.141  0.7655 -0.0123 -0.3103
  818TIP3    H126649   4.304   4.399   7.180  0.9573 -0.1228  0.1488
  818TIP3    H226650   4.447   4.365   7.214  0.7411 -2.3630 -0.9955
  819TIP3   OH226651   6.908   3.380   8.080  0.2686 -0.2388  0.5441
  819TIP3    H126652   6.973   3.353   8.144 -0.2410  0.2259  1.2652
  819TIP3    H226653   6.841   3.312   8.083  0.7664 -0.8041 -0.3147
  820TIP3   OH226654   2.312   4.816   7.075 -0.3087  0.5658  0.1296
  820TIP3    H126655   2.363   4.882   7.028 -0.8431  0.2853 -0.8844
  820TIP3    H226656   2.374   4.777   7.136  1.1527 -0.7590 -2.0539
  821TIP3   OH226657   6.008   3.123   8.572 -0.2082 -1.0380  0.8143
  821TIP3    H126658   6.068   3.160   8.508  0.1709 -1.9180  0.6542
  821TIP3    H226659   5.921   3.132   8.532  0.1911 -3.4437 -0.7772
  822TIP3   OH226660   0.820   2.530   6.740  0.1926 -0.2530  0.0597
  822TIP3    H126661   0.878   2.464   6.702 -0.0704 -1.3927  1.5524
  822TIP3    H226662   0.880   2.595   6.778  0.4460 -0.0616 -0.6289
  823TIP3   OH226663   3.887   2.974   8.079  0.0723 -0.2265  0.3775
  823TIP3    H126664   3.962   2.981   8.020  0.9432 -0.6284  1.4130
  823TIP3    H226665   3.863   2.882   8.076  0.5775 -0.3945  1.1809
  824TIP3   OH226666   7.124   1.864   8.824 -0.5924  0.7730  0.0306
  824TIP3    H126667   7.173   1.891   8.747  0.0944  0.3780  0.3296
  824TIP3    H226668   7.164   1.911   8.897 -0.0515 -0.2470  0.4098
  825TIP3   OH226669   1.841   1.254   8.833  0.1566 -0.4678  0.6134
  825TIP3    H126670   1.762   1.271   8.781  0.8366 -0.7849 -0.5650
  825TIP3    H226671   1.858   1.337   8.879 -0.9521 -0.4569  1.0316
  826TIP3   OH226672   0.800   6.251   6.679 -0.2712 -0.4065 -0.6368
  826TIP3    H126673   0.848   6.334   6.681 -2.9049  1.2419  0.7443
  826TIP3    H226674   0.744   6.258   6.602  0.0452 -1.2543 -0.9465
  827TIP3   OH226675   4.312   3.563   8.930 -0.3915  0.8654 -0.0666
  827TIP3    H126676   4.228   3.597   8.899 -0.6510 -0.9197 -1.4770
  827TIP3    H226677   4.373   3.578   8.857 -0.3537 -0.9687 -0.4536
  828TIP3   OH226678   3.446   7.488   8.873  0.1478 -0.0039 -0.3090
  828TIP3    H126679   3.443   7.393   8.861  0.0974  0.0192 -0.4773
  828TIP3    H226680   3.539   7.510   8.865  0.4834 -0.3154  1.8864
  829TIP3   OH226681   4.597   3.996   8.140  0.0947  0.8482  0.0884
  829TIP3    H126682   4.624   3.911   8.103  1.1617  1.1126  0.2129
  829TIP3    H226683   4.653   4.060   8.096 -1.1797  1.5881 -0.5169
  830TIP3   OH226684   5.918   7.028   8.973 -0.4122 -0.0490 -0.0179
  830TIP3    H126685   6.001   7.035   8.925 -0.1023  1.2471  0.6786
  830TIP3    H226686   5.899   6.934   8.973  0.5780 -0.2758 -0.9815
  831TIP3   OH226687   6.397   3.172   9.059  0.4472 -0.7190  0.4272
  831TIP3    H126688   6.393   3.084   9.022 -1.3335 -1.4741  2.2014
  831TIP3    H226689   6.461   3.165   9.131  0.4496 -0.5081  0.4457
  832TIP3   OH226690   7.640   5.786   7.075  0.2223  0.0208  0.0828
  832TIP3    H126691   7.729   5.761   7.098 -0.5839 -1.3100  2.0709
  832TIP3    H226692   7.599   5.705   7.044  0.0258  0.8860 -2.0592
  833TIP3   OH226693   7.072   6.515   8.029  0.1563  0.0415  0.1183
  833TIP3    H126694   7.104   6.425   8.029 -0.5720 -0.2505  1.8401
  833TIP3    H226695   7.150   6.569   8.036  0.5539 -0.4580 -0.3461
  834TIP3   OH226696   5.105   4.403   8.542 -0.6777  0.0223  0.3033
  834TIP3    H126697   5.194   4.373   8.526 -0.3862  1.1845 -0.2852
  834TIP3    H226698   5.076   4.440   8.459 -1.1699  1.0094  0.8982
  835TIP3   OH226699   7.439   0.008   8.164 -0.0591  0.2071  0.1761
  835TIP3    H126700   7.417   0.028   8.073 -0.5288  0.7013  0.3871
  835TIP3    H226701   7.470  -0.082   8.163 -0.2468  0.1474 -0.4444
  836TIP3   OH226702   0.643   7.097   8.884 -0.4907  0.2381 -0.2456
  836TIP3    H126703   0.730   7.135   8.893  1.3869 -3.7929  1.2799
  836TIP3    H226704   0.651   7.039   8.808 -2.0231  0.1792 -0.3854
  837TIP3   OH226705   3.463   3.153   7.541  0.0012  0.3826  0.0929
  837TIP3    H126706   3.542   3.196   7.507  0.1895  0.0382  0.0891
  837TIP3    H226707   3.466   3.065   7.504 -1.1219  0.7922 -1.0653
  838TIP3   OH226708   2.997   4.642   7.237 -0.0960  0.0903  0.0428
  838TIP3    H126709   2.955   4.727   7.224 -1.7511 -0.5314  0.8887
  838TIP3    H226710   3.090   4.661   7.245 -0.4855  1.8833  0.7326
  839TIP3   OH226711   2.872   0.691   6.789  0.3119 -0.1182  0.1840
  839TIP3    H126712   2.935   0.642   6.842 -0.9781 -1.0923  0.8792
  839TIP3    H226713   2.826   0.624   6.739 -1.4744  0.3468  1.1256
  840TIP3   OH226714   6.235   2.915   6.518  0.2707  0.1175 -0.8628
  840TIP3    H126715   6.252   2.899   6.611 -2.4622  1.2521 -0.0736
  840TIP3    H226716   6.222   2.828   6.481  1.6979 -0.3716 -0.2745
  841TIP3   OH226717   6.397   6.310   8.690  0.1152 -0.1509 -0.3525
  841TIP3    H126718   6.305   6.292   8.708 -0.1147  0.2029 -1.1610
  841TIP3    H226719   6.439   6.224   8.696  0.2251 -0.0128  2.6144
  842TIP3   OH226720   0.936   2.361   8.252  0.0071  0.0416  0.0262
  842TIP3    H126721   1.020   2.338   8.292 -0.4854  0.4198  1.3036
  842TIP3    H226722   0.871   2.316   8.305 -0.6724  0.6970 -0.2420
  843TIP3   OH226723   7.660   3.346   8.004 -0.1349 -0.1095  0.3665
  843TIP3    H126724   7.703   3.267   7.971  0.9203  0.4184  0.4103
  843TIP3    H226725   7.581   3.355   7.951 -0.7759 -1.6988  0.9899
  844TIP3   OH226726   1.564   2.125   8.989 -0.2458 -0.2389 -0.1717
  844TIP3    H126727   1.497   2.185   8.957 -0.1323 -0.0095  0.0174
  844TIP3    H226728   1.572   2.144   9.082 -1.3466 -1.6663  0.2387
  845TIP3   OH226729   5.723   0.922   7.538  1.1351  0.4278  0.2042
  845TIP3    H126730   5.688   0.905   7.626  1.2679  0.8543  0.3415
  845TIP3    H226731   5.661   0.984   7.499  1.1599  0.3587  0.0536
  846TIP3   OH226732   5.299   2.192   6.735 -0.6170 -0.6184  0.0356
  846TIP3    H126733   5.253   2.113   6.707  0.5543 -1.0831 -0.6993
  846TIP3    H226734   5.352   2.216   6.658  0.6205 -0.3432  0.9450
  847TIP3   OH226735   0.886   6.520   7.169 -0.0470  0.2022  0.0245
  847TIP3    H126736   0.860   6.491   7.082  0.1129 -0.0769  0.0691
  847TIP3    H226737   0.921   6.608   7.156 -0.7101  0.4613 -0.0842
  848TIP3   OH226738   6.076   2.932   9.116 -0.0562  0.0046  0.2921
  848TIP3    H126739   6.152   2.917   9.172 -0.5822 -0.2946  0.9430
  848TIP3    H226740   6.100   2.891   9.033  0.2713 -0.5920  0.6708
  849TIP3   OH226741   3.437   2.336   7.887  0.4616  0.7672  0.1043
  849TIP3    H126742   3.526   2.369   7.872  1.2691 -1.2778  0.1443
  849TIP3    H226743   3.449   2.260   7.943 -1.0714 -0.9761 -1.8049
  850TIP3   OH226744   6.891   7.559   9.299 -0.0217  0.8425  0.2055
  850TIP3    H126745   6.880   7.510   9.218  1.0321  0.4036  0.3140
  850TIP3    H226746   6.908   7.491   9.365 -2.1555  1.0739  1.0693
  851TIP3   OH226747   0.793   1.503   6.601  0.0846  0.2181 -0.1630
  851TIP3    H126748   0.823   1.412   6.609  0.3695  0.1578 -1.6365
  851TIP3    H226749   0.858   1.554   6.649  0.8687 -0.2128 -0.7387
  852TIP3   OH226750   4.016   3.874   8.690 -0.0386  0.3782  0.6650
  852TIP3    H126751   3.966   3.915   8.620  1.2173 -0.4746 -0.7864
  852TIP3    H226752   4.107   3.886   8.665  0.4176 -0.8688  1.6235
  853TIP3   OH226753   6.721   6.993   8.026  0.8651  0.0909 -0.3569
  853TIP3    H126754   6.710   6.949   7.942  2.1174  0.4088 -0.6952
  853TIP3    H226755   6.737   6.921   8.088 -0.5942 -0.1906 -0.2603
  854TIP3   OH226756   4.841   2.459   8.094 -0.2086 -0.0988  0.3205
  854TIP3    H126757   4.770   2.408   8.131  0.0606  0.1426  1.2045
  854TIP3    H226758   4.916   2.399   8.092 -0.3503 -0.2560 -0.2984
  855TIP3   OH226759   7.574   7.446   8.886 -0.0610  0.2579  0.8408
  855TIP3    H126760   7.596   7.534   8.917  3.2641  0.8584 -2.5492
  855TIP3    H226761   7.508   7.459   8.818  1.4077  0.3836 -0.6139
  856TIP3   OH226762   7.088   3.014   8.001 -0.2338 -0.6512 -0.0854
  856TIP3    H126763   7.018   3.009   8.067 -0.6092 -2.0457 -0.5484
  856TIP3    H226764   7.107   2.923   7.979 -0.2245 -0.2299 -2.0291
  857TIP3   OH226765   3.199   0.907   8.536 -0.0795 -0.2800 -0.0538
  857TIP3    H126766   3.268   0.860   8.583  0.3739  1.0790  0.6869
  857TIP3    H226767   3.155   0.959   8.603  1.9838  3.4523 -1.3157
  858TIP3   OH226768   3.528   7.014   9.238 -0.1451 -0.7227 -0.2074
  858TIP3    H126769   3.571   6.955   9.300 -1.4640 -0.4751  1.0003
  858TIP3    H226770   3.436   6.988   9.240 -0.7906  1.3857  0.4344
  859TIP3   OH226771   5.119   2.046   8.998 -0.0938  0.3085 -0.0019
  859TIP3    H126772   5.113   2.048   8.903 -1.5071 -0.5854  0.0358
  859TIP3    H226773   5.085   2.131   9.027 -0.5838  0.1967 -0.2572
  860TIP3   OH226774   2.163   5.522   7.121  0.1279 -0.1669 -0.0401
  860TIP3    H126775   2.130   5.579   7.052  2.1682  0.5464 -0.4892
  860TIP3    H226776   2.131   5.435   7.097 -0.7062  0.3460 -0.8649
  861TIP3   OH226777   4.670   2.487   7.787  0.1428 -0.0665 -0.2662
  861TIP3    H126778   4.630   2.573   7.791 -1.5659 -0.7233 -1.8116
  861TIP3    H226779   4.599   2.426   7.809  0.8437 -1.1499 -0.8719
  862TIP3   OH226780   7.555   1.234   8.748 -0.1472 -0.0176  0.0413
  862TIP3    H126781   7.482   1.256   8.690  2.1945  2.8040 -2.1738
  862TIP3    H226782   7.619   1.192   8.692  0.4536 -1.3901  1.6729
  863TIP3   OH226783   2.704   2.895   7.625 -0.2348  0.0302 -0.2671
  863TIP3    H126784   2.701   2.968   7.687 -1.8463  0.4981 -0.8446
  863TIP3    H226785   2.639   2.832   7.658 -0.9287  0.1750 -1.3138
  864TIP3   OH226786   6.616   2.621   9.385 -0.1533 -0.8235 -0.3509
  864TIP3    H126787   6.526   2.592   9.392 -0.4934  0.3114  0.2039
  864TIP3    H226788   6.653   2.570   9.313 -1.2720 -1.1920 -0.6693
  865TIP3   OH226789   2.835   4.063   7.048 -0.5425 -0.3682 -0.2877
  865TIP3    H126790   2.857   4.143   7.001 -0.3419  0.4433  1.1371
  865TIP3    H226791   2.739   4.064   7.053 -0.5388 -0.1927 -0.2368
  866TIP3   OH226792   0.661   6.716   9.044  0.1186  0.0719  0.0563
  866TIP3    H126793   0.686   6.717   8.952  1.4006  0.3827  0.3928
  866TIP3    H226794   0.574   6.674   9.045 -0.5853  1.4154 -1.4315
  867TIP3   OH226795   7.484   4.865   8.213  0.3031  0.2144  0.0151
  867TIP3    H126796   7.487   4.959   8.196 -0.4715  0.3428  0.5632
  867TIP3    H226797   7.534   4.826   8.141 -1.0651  0.8883 -1.3473
  868TIP3   OH226798   1.594   3.549   7.497 -0.4066  0.2954  0.1204
  868TIP3    H126799   1.610   3.504   7.414  0.5182  0.4693  0.1912
  868TIP3    H226800   1.678   3.589   7.519 -0.7943  0.7300  0.8572
  869TIP3   OH226801   2.954   0.863   9.159 -0.0502  0.0704 -0.0297
  869TIP3    H126802   2.882   0.804   9.140  0.8959 -0.5705 -1.9594
  869TIP3    H226803   3.018   0.809   9.206 -0.1510  0.2012  0.2596
  870TIP3   OH226804   6.857   0.259   7.805 -0.4574 -0.5102 -0.9647
  870TIP3    H126805   6.767   0.263   7.836 -0.0917 -0.9483  0.2275
  870TIP3    H226806   6.910   0.284   7.882  0.4653 -1.0719 -1.3962
  871TIP3   OH226807   7.218   0.183   9.291 -0.1647  0.4644 -0.3541
  871TIP3    H126808   7.202   0.133   9.371 -0.8995 -1.1815 -1.4607
  871TIP3    H226809   7.137   0.172   9.240  1.0175 -0.2079 -2.1640
  872TIP3   OH226810   0.013   5.409   8.775  0.7119  0.2349  0.1446
  872TIP3    H126811  -0.053   5.368   8.831 -1.1667  0.4506 -1.8078
  872TIP3    H226812   0.049   5.480   8.829 -1.5061  0.8743  0.8874
  873TIP3   OH226813   5.367   4.603   7.534  0.6130 -0.4314 -0.7150
  873TIP3    H126814   5.433   4.632   7.471 -0.9487 -0.4640 -2.4551
  873TIP3    H226815   5.365   4.673   7.600  0.9906  0.5818 -1.7312
  874TIP3   OH226816   6.921   5.625   9.632  0.4124 -0.6803  0.2643
  874TIP3    H126817   6.898   5.622   9.725  0.9820  2.0620  0.5825
  874TIP3    H226818   6.839   5.602   9.587 -0.4615 -0.0057  1.4377
  875TIP3   OH226819   4.287   3.640   7.898 -0.1726  0.2781  0.3243
  875TIP3    H126820   4.202   3.603   7.876 -0.2141  0.6271 -0.1178
  875TIP3    H226821   4.296   3.715   7.839  0.3713  0.3366  0.4812
  876TIP3   OH226822   5.619   4.656   7.392 -0.1293  0.0677 -0.3037
  876TIP3    H126823   5.581   4.690   7.311 -0.9576  2.5263  1.0182
  876TIP3    H226824   5.708   4.689   7.392  0.6309 -1.8355 -1.2128
  877TIP3   OH226825   0.753   5.700   7.361  0.6782 -0.4290 -0.2132
  877TIP3    H126826   0.731   5.609   7.343  2.2008 -0.7427 -0.6146
  877TIP3    H226827   0.811   5.725   7.289  0.0507  0.9624 -0.2695
  878TIP3   OH226828   4.287   6.565   9.204 -0.0722  0.2526 -0.5092
  878TIP3    H126829   4.369   6.611   9.220  0.6203 -0.4056 -1.9885
  878TIP3    H226830   4.303   6.475   9.233  0.4903 -0.4129 -2.6831
  879TIP3   OH226831   4.860   4.111   8.588 -0.6568  0.1009  0.1786
  879TIP3    H126832   4.845   4.162   8.508 -1.9182 -0.7132 -0.1305
  879TIP3    H226833   4.918   4.040   8.562 -0.9799 -0.1008  0.0014
  880TIP3   OH226834   5.052   0.671   6.944  0.1717  0.0072 -0.5039
  880TIP3    H126835   4.974   0.682   6.998  0.7965  0.7588  0.2595
  880TIP3    H226836   5.102   0.602   6.988  0.7287  0.6893 -0.0523
  881TIP3   OH226837   5.851   6.816   6.923 -0.0989  0.0315 -0.0073
  881TIP3    H126838   5.865   6.909   6.910 -0.8692  0.1612  0.0451
  881TIP3    H226839   5.787   6.811   6.994 -1.0726 -0.4979 -0.9090
  882TIP3   OH226840   6.668   6.679   7.511  0.3841 -0.2716 -0.8242
  882TIP3    H126841   6.674   6.645   7.422  2.3763 -0.2955 -0.7311
  882TIP3    H226842   6.578   6.710   7.519  0.6872  1.6567 -3.5520
  883TIP3   OH226843   4.421   0.284   8.117  0.4162 -0.3592  0.0037
  883TIP3    H126844   4.469   0.316   8.192 -0.9745 -0.6830  1.0751
  883TIP3    H226845   4.341   0.337   8.114  0.5750 -0.1411 -1.4343
  884TIP3   OH226846   4.688   3.581   7.502 -0.0548  0.6999 -0.2274
  884TIP3    H126847   4.772   3.562   7.460  0.3846  2.2247 -0.0717
  884TIP3    H226848   4.682   3.676   7.504 -1.3915  0.6319  0.5797
  885TIP3   OH226849   0.075   4.922   8.975 -0.0865 -0.1169 -0.1787
  885TIP3    H126850   0.166   4.911   8.945  0.4142  0.4501  1.0491
  885TIP3    H226851   0.067   5.016   8.993 -0.2789 -0.4357  1.5835
  886TIP3   OH226852   5.255   6.425   8.765 -0.0732 -0.3074  0.3911
  886TIP3    H126853   5.308   6.379   8.829 -0.3465 -3.0640 -1.2252
  886TIP3    H226854   5.289   6.397   8.680 -0.8366  1.8697 -0.7224
  887TIP3   OH226855   1.977   7.572   7.410  0.4655  0.1782 -0.3265
  887TIP3    H126856   1.918   7.580   7.335  1.8148 -1.9742 -1.7725
  887TIP3    H226857   2.052   7.627   7.387  0.8365 -0.4033 -0.5200
  888TIP3   OH226858   0.810   3.692   9.399 -0.4835  0.0614  0.0648
  888TIP3    H126859   0.791   3.656   9.486 -1.2392  3.3058  1.3979
  888TIP3    H226860   0.903   3.679   9.387 -0.3859 -0.5741  1.3303
  889TIP3   OH226861   1.956   6.294   8.041  0.4931  0.1304  0.0294
  889TIP3    H126862   1.909   6.298   7.958  0.1788 -0.9741  0.1413
  889TIP3    H226863   1.940   6.380   8.081  1.2955  0.9762 -1.3770
  890TIP3   OH226864   6.348   7.534   7.630 -0.2071  0.0040  0.4880
  890TIP3    H126865   6.285   7.464   7.649 -0.1507 -0.0578  0.4485
  890TIP3    H226866   6.421   7.489   7.588 -0.3642  0.1489  0.0578
  891TIP3   OH226867   5.276   2.866   9.246  0.4924 -0.1163 -0.0315
  891TIP3    H126868   5.361   2.824   9.252  1.2109  1.4307  1.4478
  891TIP3    H226869   5.260   2.875   9.152  1.5524 -1.1740 -0.3355
  892TIP3   OH226870   5.552   0.774   8.080  0.4372  0.1363 -0.3814
  892TIP3    H126871   5.525   0.683   8.079  1.5003 -0.2520  1.2085
  892TIP3    H226872   5.644   0.773   8.055  0.4431  0.7707 -0.4196
  893TIP3   OH226873   7.069   3.995   9.050  0.3933 -0.2062 -0.0997
  893TIP3    H126874   7.018   4.076   9.049 -0.5802 -0.7514  1.2708
  893TIP3    H226875   7.052   3.954   8.965  2.1659  1.7249 -1.4726
  894TIP3   OH226876   2.347   2.892   9.261  0.3764 -0.0904 -0.1097
  894TIP3    H126877   2.285   2.865   9.192  1.0835  0.3832 -0.9504
  894TIP3    H226878   2.343   2.822   9.326 -0.9134 -0.1535 -0.2298
  895TIP3   OH226879   4.204   2.142   7.728  0.4058  0.5896 -0.0260
  895TIP3    H126880   4.196   2.156   7.633  0.9147  0.1438 -0.1356
  895TIP3    H226881   4.249   2.220   7.760 -0.8767  1.3394  0.0466
  896TIP3   OH226882   3.795   1.870   9.058 -0.0891 -0.1453 -0.6353
  896TIP3    H126883   3.805   1.834   9.147  1.6202 -1.3892 -1.2665
  896TIP3    H226884   3.748   1.952   9.070 -1.4600 -1.1309  1.2311
  897TIP3   OH226885   3.651   6.576   8.317 -0.3440 -0.1254 -0.1843
  897TIP3    H126886   3.741   6.577   8.350  0.7482  0.1992 -2.9368
  897TIP3    H226887   3.623   6.484   8.325  0.5105 -0.3781 -0.0172
  898TIP3   OH226888   0.840   3.818   8.075  0.0378 -0.2242  0.1088
  898TIP3    H126889   0.767   3.837   8.134 -0.7421 -0.2209 -0.8261
  898TIP3    H226890   0.852   3.723   8.081 -0.0555 -0.2254  0.2585
  899TIP3   OH226891   6.949   1.500   7.317  0.1057 -0.1226 -0.0671
  899TIP3    H126892   7.002   1.459   7.384 -0.9843 -0.3689  0.6744
  899TIP3    H226893   6.937   1.590   7.347 -1.0828 -0.4599  0.5256
  900TIP3   OH226894   5.799   4.203   9.654  0.7888 -0.5186  0.3015
  900TIP3    H126895   5.822   4.274   9.595  0.6508  0.2590  1.1736
  900TIP3    H226896   5.868   4.202   9.720 -0.2998  0.1782  1.4806
  901TIP3   OH226897   0.567   5.637   9.091 -0.2784 -0.1058  0.3715
  901TIP3    H126898   0.581   5.691   9.168 -1.6823  1.4321 -0.3830
  901TIP3    H226899   0.490   5.674   9.049 -0.0507 -1.4115 -1.3392
  902TIP3   OH226900   0.982   2.043   9.332 -0.2375  0.1170  0.4343
  902TIP3    H126901   1.037   1.965   9.329 -1.6872 -0.9398  0.4717
  902TIP3    H226902   1.043   2.114   9.353  1.0425 -1.0516  0.8469
  903TIP3   OH226903   3.914   2.812   9.144 -0.4141 -0.0180  0.1500
  903TIP3    H126904   3.827   2.814   9.104  0.2611  1.1482 -1.3434
  903TIP3    H226905   3.937   2.719   9.146 -1.7807 -0.3700  0.8369
  904TIP3   OH226906   0.959   6.487   6.686  0.2910 -0.5037 -0.1549
  904TIP3    H126907   0.868   6.515   6.693  0.1611 -0.5684 -1.4205
  904TIP3    H226908   0.996   6.505   6.773 -0.3487  1.5675 -0.2653
  905TIP3   OH226909   4.205   4.747   7.199  0.8145  0.4055 -0.0492
  905TIP3    H126910   4.214   4.652   7.206 -1.3718  0.0921 -0.8510
  905TIP3    H226911   4.268   4.772   7.132 -0.0362 -0.8106 -1.3729
  906TIP3   OH226912   1.679   5.871   7.537  0.0533  0.2123 -0.1511
  906TIP3    H126913   1.595   5.904   7.503  0.1702  1.0266  0.3410
  906TIP3    H226914   1.669   5.776   7.534 -0.6156  0.2853 -0.7811
  907TIP3   OH226915   6.593   0.834   8.384  0.5369  0.1900 -0.3759
  907TIP3    H126916   6.660   0.863   8.323  0.8148  0.1863 -0.0773
  907TIP3    H226917   6.642   0.802   8.460  0.2894 -1.7935 -0.9903
  908TIP3   OH226918   6.980   5.262   7.289 -0.2133  0.0277  0.3729
  908TIP3    H126919   7.025   5.216   7.360 -0.6528 -0.6623  0.2120
  908TIP3    H226920   6.888   5.258   7.313 -0.3724 -0.3024 -0.2932
  909TIP3   OH226921   5.826   7.110   8.717  0.6131 -0.6130  0.3031
  909TIP3    H126922   5.864   7.043   8.775  2.0798  0.2358  0.3721
  909TIP3    H226923   5.901   7.145   8.669 -0.0422  1.3399  0.6370
  910TIP3   OH226924   7.096   3.287   9.296  0.1715 -0.3588 -0.3090
  910TIP3    H126925   7.033   3.349   9.260  0.8547 -0.4945 -1.8239
  910TIP3    H226926   7.140   3.251   9.219  1.7841 -0.5894  0.6795
  911TIP3   OH226927   4.321   3.230   9.238  0.3201 -0.5252 -0.4916
  911TIP3    H126928   4.227   3.234   9.254  0.5595  0.4498  0.8267
  911TIP3    H226929   4.331   3.167   9.167 -1.3699 -0.2376 -1.0186
  912TIP3   OH226930   2.998   6.793   8.463  0.3366 -0.7197  1.0136
  912TIP3    H126931   2.959   6.721   8.414  0.7611 -0.6316  0.5361
  912TIP3    H226932   2.929   6.860   8.466 -0.3413 -1.4197  2.1308
  913TIP3   OH226933   3.743   2.204   7.972 -0.3125  0.0837  0.4987
  913TIP3    H126934   3.719   2.146   8.045  0.7242 -0.0093  0.7813
  913TIP3    H226935   3.823   2.165   7.936  0.2726  1.2020  0.5444
  914TIP3   OH226936   5.837   5.496   8.538 -0.0939 -0.7403 -0.2711
  914TIP3    H126937   5.834   5.405   8.569 -1.6148 -0.9333 -0.9283
  914TIP3    H226938   5.746   5.522   8.529  0.3097  0.2732 -1.7845
  915TIP3   OH226939   1.824   1.247   9.144  0.0852  0.7886  0.0370
  915TIP3    H126940   1.829   1.340   9.125  1.2869  0.7781  0.2381
  915TIP3    H226941   1.851   1.239   9.235 -0.6927  0.3045  0.2420
  916TIP3   OH226942   6.796   0.643   8.202 -0.7139  0.1974 -0.3445
  916TIP3    H126943   6.888   0.668   8.196 -0.2617 -1.1714  0.4262
  916TIP3    H226944   6.797   0.555   8.241 -2.2143 -0.9004 -2.5577
  917TIP3   OH226945   0.628   4.012   8.609 -0.1888 -0.0240  0.3349
  917TIP3    H126946   0.588   4.013   8.697  0.5210 -0.9650  0.6889
  917TIP3    H226947   0.623   3.920   8.582  0.8218  0.0245 -0.0420
  918TIP3   OH226948   2.713   5.765   8.109  0.0850  0.5773 -0.4688
  918TIP3    H126949   2.787   5.762   8.170 -0.2821 -0.2551 -0.0439
  918TIP3    H226950   2.750   5.797   8.027  1.0291 -0.2930 -0.3994
  919TIP3   OH226951   1.452   5.109   8.237  0.0572  0.0706 -0.1431
  919TIP3    H126952   1.362   5.083   8.217 -0.0321 -0.1276  0.5119
  919TIP3    H226953   1.461   5.195   8.197  1.0473 -1.7474 -4.3877
  920TIP3   OH226954   5.610   1.954   7.703 -0.1568 -0.0792  0.3567
  920TIP3    H126955   5.620   2.047   7.723 -1.2649  0.1582 -0.1282
  920TIP3    H226956   5.585   1.952   7.611 -0.3802 -0.8481  0.4261
  921TIP3   OH226957   2.584   0.532   9.451 -0.3899 -0.6037  0.2953
  921TIP3    H126958   2.613   0.448   9.415  1.4538  0.4300 -0.8104
  921TIP3    H226959   2.655   0.559   9.509 -1.5411 -0.3728  1.6307
  922TIP3   OH226960   5.922   0.431   8.679  0.2459 -0.1463  0.0513
  922TIP3    H126961   5.946   0.409   8.589  1.4848  0.3654  0.2372
  922TIP3    H226962   5.862   0.362   8.705 -1.2372  0.4282 -1.6174
  923TIP3   OH226963   6.112   4.266   8.500  0.5371  0.2369  0.1690
  923TIP3    H126964   6.025   4.236   8.528 -0.1031  2.4625  0.7073
  923TIP3    H226965   6.110   4.257   8.405 -0.9796  1.8334 -0.0067
  924TIP3   OH226966   0.458   1.799   7.425  0.0222 -0.2214 -0.2523
  924TIP3    H126967   0.511   1.791   7.504 -2.0769 -3.0465  1.0029
  924TIP3    H226968   0.380   1.846   7.453 -0.7164 -1.1946 -0.6296
  925TIP3   OH226969   0.903   2.778   9.386 -0.4460  0.5720 -0.0394
  925TIP3    H126970   0.811   2.751   9.393 -0.8155  1.9739  0.9517
  925TIP3    H226971   0.914   2.844   9.455  1.2818  0.5096 -0.2159
  926TIP3   OH226972   2.468   3.019   8.655  0.0137 -0.0757 -0.1504
  926TIP3    H126973   2.506   2.931   8.663 -1.9246 -0.9890 -0.3436
  926TIP3    H226974   2.471   3.038   8.562 -0.1311 -0.2170 -0.1846
  927TIP3   OH226975   0.803   1.130   8.627 -0.5282 -0.0390 -0.2579
  927TIP3    H126976   0.770   1.205   8.677  0.8958  0.3092  0.1834
  927TIP3    H226977   0.865   1.168   8.564  0.5506 -0.8783  0.2716
  928TIP3   OH226978   5.666   4.881   9.422 -0.0189  0.0125 -0.4902
  928TIP3    H126979   5.650   4.906   9.514  0.8973  0.6889 -0.4936
  928TIP3    H226980   5.761   4.890   9.412 -0.2347  1.0826 -1.8264
  929TIP3   OH226981   5.136   4.255   6.714  0.1384 -0.0376  0.0978
  929TIP3    H126982   5.193   4.310   6.768  0.6213 -1.8581  1.5440
  929TIP3    H226983   5.156   4.280   6.624  1.4434  1.0480  0.6547
  930TIP3   OH226984   5.416   3.793   8.351  0.7232 -0.4760 -0.4543
  930TIP3    H126985   5.321   3.804   8.355  0.7698 -0.3358  1.4260
  930TIP3    H226986   5.432   3.709   8.395  1.5600  0.2274  0.6432
  931TIP3   OH226987   7.551   4.809   8.671  0.5126 -0.2988 -0.1624
  931TIP3    H126988   7.501   4.890   8.660  0.0214 -0.6162 -0.3193
  931TIP3    H226989   7.633   4.825   8.626 -0.1250 -0.3571 -1.4046
  932TIP3   OH226990   6.392   1.543   7.425 -0.4676 -0.4969 -0.4239
  932TIP3    H126991   6.387   1.561   7.518  1.9903  0.1165 -0.3312
  932TIP3    H226992   6.374   1.628   7.383  3.1061  0.5311 -0.2449
  933TIP3   OH226993   2.215   3.730   9.312  0.2199  0.0453 -0.4530
  933TIP3    H126994   2.295   3.684   9.287 -0.2652 -0.0312 -2.0067
  933TIP3    H226995   2.148   3.692   9.255 -0.9731 -0.0112  0.9227
  934TIP3   OH226996   0.187   0.049   7.367 -0.3954 -0.0372 -0.2157
  934TIP3    H126997   0.209   0.068   7.458 -1.3735 -1.9593  0.4616
  934TIP3    H226998   0.198  -0.045   7.358 -0.4768  0.0900 -2.0616
  935TIP3   OH226999   1.776   7.027   7.216 -0.2262 -0.9701  0.2983
  935TIP3    H127000   1.725   6.946   7.213 -0.4285 -0.8247 -0.6833
  935TIP3    H227001   1.812   7.035   7.128  3.5261 -2.3073  1.5172
  936TIP3   OH227002   5.296   4.821   8.822  0.1264 -0.1339  0.2160
  936TIP3    H127003   5.261   4.739   8.787  0.6095  0.0745 -0.8036
  936TIP3    H227004   5.345   4.859   8.749 -0.9616  1.5806  0.3073
  937TIP3   OH227005   0.488   1.403   9.087  0.4079 -0.0226 -0.1736
  937TIP3    H127006   0.533   1.360   9.159 -0.1685  0.1922  0.3180
  937TIP3    H227007   0.436   1.333   9.046  1.1596 -0.2698 -0.7384
  938TIP3   OH227008   6.285   2.002   8.791  0.1406  0.0829  0.8292
  938TIP3    H127009   6.293   2.095   8.770 -1.1647 -0.2643 -1.6052
  938TIP3    H227010   6.294   1.958   8.707 -0.1188 -1.9453  1.8131
  939TIP3   OH227011   7.054   2.116   7.360 -0.6309  0.6896  0.0619
  939TIP3    H127012   7.030   2.036   7.407  1.3001 -0.2699 -0.4855
  939TIP3    H227013   7.090   2.174   7.427 -1.6274  0.9551  0.3866
  940TIP3   OH227014   0.839   2.904   8.404 -0.0449  0.0754 -0.4557
  940TIP3    H127015   0.750   2.918   8.436  0.3583 -1.1347  1.3543
  940TIP3    H227016   0.887   2.983   8.428  0.0581 -0.4922  1.3563
  941TIP3   OH227017   7.680   1.503   8.096 -0.1473  0.1814  0.1742
  941TIP3    H127018   7.754   1.443   8.087  1.6288  2.3379 -0.4539
  941TIP3    H227019   7.646   1.486   8.184  1.4396 -0.5155  0.6889
  942TIP3   OH227020   2.542   0.054   6.437 -0.3638 -0.5311  0.5233
  942TIP3    H127021   2.612   0.090   6.383 -1.1645  0.3196  0.0306
  942TIP3    H227022   2.552  -0.041   6.428 -0.4337 -0.4143 -1.0741
  943TIP3   OH227023   6.540   2.925   8.062 -0.2799 -0.0460 -0.3851
  943TIP3    H127024   6.545   2.913   8.156 -0.0060  1.6079 -0.1634
  943TIP3    H227025   6.446   2.933   8.043 -0.2778  0.9005 -0.0527
  944TIP3   OH227026   7.494   2.660   8.610  0.1299 -0.0683 -0.2151
  944TIP3    H127027   7.510   2.566   8.624  1.7174  0.2610  0.4022
  944TIP3    H227028   7.578   2.694   8.579 -0.3385  1.2038 -0.1258
  945TIP3   OH227029   6.861   1.534   7.735 -0.3227 -0.5985  0.2420
  945TIP3    H127030   6.806   1.518   7.658  0.4122 -1.8626 -0.0378
  945TIP3    H227031   6.884   1.447   7.767  0.1800 -0.0872  1.3282
  946TIP3   OH227032   0.794   3.553   7.209  0.0146  0.3502  0.5348
  946TIP3    H127033   0.759   3.491   7.145  1.6048 -0.4573  0.3884
  946TIP3    H227034   0.770   3.515   7.294  1.1753 -0.6555  0.4531
  947TIP3   OH227035   2.221   4.085   9.170  0.3320  0.0173  0.3629
  947TIP3    H127036   2.193   4.172   9.198  0.8372  0.3180 -0.0603
  947TIP3    H227037   2.157   4.026   9.210 -0.5392  0.6432 -0.0479
  948TIP3   OH227038   0.359   2.358   7.197 -0.5967  0.4854 -0.0108
  948TIP3    H127039   0.418   2.422   7.156 -0.2715  0.4568  0.3990
  948TIP3    H227040   0.336   2.298   7.127 -0.2588  0.5908 -0.2142
  949TIP3   OH227041   0.054   2.174   8.624  0.4158 -0.4049 -0.0802
  949TIP3    H127042   0.078   2.265   8.606  2.8645 -1.1834 -1.2935
  949TIP3    H227043   0.126   2.140   8.677 -1.0548 -1.3576  1.4097
  950TIP3   OH227044   3.680   0.812   8.985 -0.2031 -0.1193  0.0450
  950TIP3    H127045   3.695   0.893   8.937 -1.1796 -0.0861 -0.2194
  950TIP3    H227046   3.766   0.771   8.989 -0.1647 -0.3702 -2.1780
  951TIP3   OH227047   2.963   3.831   8.627 -0.3808  0.1670  0.1740
  951TIP3    H127048   2.975   3.926   8.618 -0.7563  0.1402 -0.7848
  951TIP3    H227049   3.047   3.794   8.600 -0.1739  0.2349  0.7289
  952TIP3   OH227050   2.301   7.108   7.424  0.4131 -0.9647  0.0228
  952TIP3    H127051   2.338   7.092   7.511 -0.6155  1.1512  0.9121
  952TIP3    H227052   2.226   7.165   7.440 -1.4244 -2.6404 -2.0293
  953TIP3   OH227053   0.944   0.519   6.564 -0.0967  0.5993  0.2139
  953TIP3    H127054   0.886   0.584   6.524 -0.3054 -1.1388 -2.5945
  953TIP3    H227055   1.027   0.529   6.517  0.9376  0.9720  2.0309
  954TIP3   OH227056   5.555   4.767   8.294 -0.2143 -0.4359 -0.7955
  954TIP3    H127057   5.639   4.741   8.332  0.0713 -0.9928 -1.7546
  954TIP3    H227058   5.571   4.854   8.258  0.0265 -0.6216 -1.1520
  955TIP3   OH227059   3.383   6.176   7.762  0.0763 -0.0972 -0.0738
  955TIP3    H127060   3.346   6.114   7.823 -1.7215  0.4207 -0.5819
  955TIP3    H227061   3.403   6.254   7.814  1.2180 -0.6384  0.3361
  956TIP3   OH227062   1.462   2.301   6.733  0.2897  0.2474  0.2518
  956TIP3    H127063   1.417   2.384   6.749 -1.3713 -0.9288  2.3967
  956TIP3    H227064   1.419   2.239   6.793  1.0027 -2.3221 -1.7052
  957TIP3   OH227065   2.121   2.121   8.022  0.3442 -0.4965 -0.0145
  957TIP3    H127066   2.044   2.105   7.967  0.2758  0.0794 -0.0930
  957TIP3    H227067   2.135   2.039   8.068  1.0867 -1.4011 -1.7503
  958TIP3   OH227068   3.031   2.485   7.655  0.3372 -0.6664  0.3572
  958TIP3    H127069   2.947   2.526   7.677 -1.1206 -1.3140 -3.3362
  958TIP3    H227070   3.066   2.458   7.740 -1.7763  2.1242  2.3550
  959TIP3   OH227071   1.298   4.175   7.956 -0.0503  0.1862  0.1475
  959TIP3    H127072   1.392   4.190   7.967  0.1509  1.8842 -2.7043
  959TIP3    H227073   1.287   4.163   7.862 -2.5261 -1.8309  0.5829
  960TIP3   OH227074   2.998   2.615   7.200  0.2144  0.2635  0.4411
  960TIP3    H127075   2.993   2.528   7.240  2.1395  0.0205  0.2590
  960TIP3    H227076   2.947   2.606   7.119  0.3016 -0.6684  0.4706
  961TIP3   OH227077   6.265   0.073   8.301  0.2347 -0.2873  0.2066
  961TIP3    H127078   6.351   0.094   8.264  0.1216 -0.1240  0.0373
  961TIP3    H227079   6.203   0.118   8.245  0.0072 -0.7642  0.0707
  962TIP3   OH227080   6.658   2.557   7.247 -0.5621 -0.4992 -0.6815
  962TIP3    H127081   6.703   2.474   7.256 -0.8866 -0.8247 -1.8782
  962TIP3    H227082   6.677   2.585   7.157  0.7901  1.4720  0.1450
  963TIP3   OH227083   2.805   2.621   7.770 -0.3565 -0.3109 -0.3601
  963TIP3    H127084   2.767   2.558   7.832 -1.5077 -0.3783 -1.0987
  963TIP3    H227085   2.746   2.696   7.773 -0.9877 -0.6882 -2.0380
  964TIP3   OH227086   1.130   5.860   9.164 -0.4373  0.0544  0.3404
  964TIP3    H127087   1.074   5.798   9.118  0.1569 -0.7907  0.7123
  964TIP3    H227088   1.208   5.809   9.187 -0.0402  0.8770  0.8830
  965TIP3   OH227089   2.970   2.150   7.790  0.2056  0.0678  0.2307
  965TIP3    H127090   3.040   2.191   7.841  0.9894 -1.9286  0.8240
  965TIP3    H227091   3.009   2.135   7.704  0.3212 -0.4913  0.3770
  966TIP3   OH227092   2.702   0.314   9.356 -0.3115  0.0286 -0.0858
  966TIP3    H127093   2.797   0.317   9.339 -0.3382 -0.0426 -0.2554
  966TIP3    H227094   2.667   0.264   9.282 -0.3043 -1.2214  0.7268
  967TIP3   OH227095   4.791   5.306   9.537  0.0714  0.0567  0.5277
  967TIP3    H127096   4.761   5.357   9.612 -1.3710 -2.4611  1.7864
  967TIP3    H227097   4.861   5.250   9.572  0.6570  0.1347 -0.4722
  968TIP3   OH227098   0.971   3.965   9.069 -0.1475 -0.0475 -0.5900
  968TIP3    H127099   0.994   4.051   9.105  1.5697 -0.4926 -0.5188
  968TIP3    H227100   0.927   3.984   8.987 -0.5440  0.9191 -0.1683
  969TIP3   OH227101   5.954   0.051   8.344  0.6636  0.2808  0.3248
  969TIP3    H127102   5.868   0.041   8.385  0.2740  1.3914 -0.1898
  969TIP3    H227103   5.943   0.122   8.280  2.5061  2.0198  1.8036
  970TIP3   OH227104   6.845   4.462   8.452  0.0035  0.1435 -0.1958
  970TIP3    H127105   6.885   4.385   8.412  0.3190  0.4516 -0.4883
  970TIP3    H227106   6.821   4.434   8.540 -0.3756 -0.4431 -0.4821
  971TIP3   OH227107   0.880   5.201   9.287  0.3939 -0.0987  0.0321
  971TIP3    H127108   0.901   5.242   9.203  0.8952 -0.2123  0.0945
  971TIP3    H227109   0.816   5.259   9.328  0.5236  0.2156 -0.2102
  972TIP3   OH227110   3.460   7.340   7.413  0.6930 -0.3308  0.7712
  972TIP3    H127111   3.447   7.389   7.495  0.5690 -0.4335  0.8126
  972TIP3    H227112   3.555   7.331   7.406  0.8146  1.3457 -0.0817
  973TIP3   OH227113   3.866   0.377   7.363 -0.1190 -0.1989  0.0622
  973TIP3    H127114   3.942   0.359   7.309  0.1614  0.0939  0.3513
  973TIP3    H227115   3.899   0.435   7.432 -0.1162 -1.8250  1.4705
  974TIP3   OH227116   7.334   0.159   8.838  0.3834 -0.2196 -0.1947
  974TIP3    H127117   7.298   0.238   8.799 -0.3943 -0.7718 -0.6284
  974TIP3    H227118   7.353   0.182   8.928 -0.9128  0.1411  0.0015
  975TIP3   OH227119   2.570   6.766   7.211  0.3558 -0.2950  0.3594
  975TIP3    H127120   2.617   6.829   7.266 -0.3714  0.0591  0.5844
  975TIP3    H227121   2.639   6.717   7.167  1.0743 -2.0299  3.1603
  976TIP3   OH227122   0.665   2.337   6.870  0.4151  0.6395  0.4069
  976TIP3    H127123   0.694   2.407   6.812  1.1781 -0.5250 -0.6659
  976TIP3    H227124   0.624   2.272   6.812  3.1703 -1.6106  0.7307
  977TIP3   OH227125   3.948   2.520   6.799  0.0853  0.1036 -0.2632
  977TIP3    H127126   3.989   2.434   6.803 -0.0915  0.0482  0.6395
  977TIP3    H227127   3.865   2.509   6.845  0.5160  0.9941  0.7577
  978TIP3   OH227128   4.167   5.063   9.534 -0.9857  0.3176 -0.0682
  978TIP3    H127129   4.131   4.988   9.581 -1.7115  0.4960 -0.3239
  978TIP3    H227130   4.091   5.107   9.497 -0.4686  0.4598 -0.9977
  979TIP3   OH227131   7.467   4.406   7.802  0.3730  0.3863  0.0493
  979TIP3    H127132   7.378   4.384   7.773  0.7899 -0.3049 -0.7641
  979TIP3    H227133   7.487   4.488   7.756  1.2900 -1.0569 -2.3103
  980TIP3   OH227134   4.116   0.256   7.249 -0.0475  0.1579 -0.3798
  980TIP3    H127135   4.123   0.340   7.294  1.2591  0.5185 -1.2058
  980TIP3    H227136   4.198   0.211   7.268 -0.8314 -1.0563  0.2492
  981TIP3   OH227137   2.336   0.915   8.796 -0.2570 -0.1723  0.4152
  981TIP3    H127138   2.431   0.906   8.784  0.1451  1.3509  2.1308
  981TIP3    H227139   2.325   1.001   8.836 -2.6300  0.9569 -2.3166
  982TIP3   OH227140   7.650   4.966   7.211 -0.1781 -0.2856  0.7684
  982TIP3    H127141   7.636   4.905   7.138 -0.6282  1.2806 -0.5271
  982TIP3    H227142   7.716   5.027   7.178  0.1709  0.0144  1.9774
  983TIP3   OH227143   0.023   0.096   7.860  0.5733  0.1919  0.2049
  983TIP3    H127144   0.048   0.035   7.929  0.8974  0.5883  0.4433
  983TIP3    H227145   0.032   0.182   7.900 -0.4579  0.3780  0.0619
  984TIP3   OH227146   6.766   3.083   8.819  0.0097  0.4525  0.5624
  984TIP3    H127147   6.802   3.030   8.748  0.2878  0.4695  0.6865
  984TIP3    H227148   6.797   3.040   8.899  0.5468  1.0008  0.6627
  985TIP3   OH227149   1.157   1.099   6.768  0.1534 -0.5771  0.3837
  985TIP3    H127150   1.167   1.195   6.772 -2.6571 -0.1895 -0.0927
  985TIP3    H227151   1.174   1.070   6.858 -1.4715  0.7032  1.1522
  986TIP3   OH227152   6.019   6.117   8.549  0.6965  0.0090 -0.4728
  986TIP3    H127153   6.021   6.157   8.636  1.1465 -3.6143  1.3779
  986TIP3    H227154   6.107   6.083   8.536  0.2056 -0.9103 -1.6436
  987TIP3   OH227155   2.801   0.263   6.582  0.4525  0.1766  0.0124
  987TIP3    H127156   2.717   0.299   6.610 -0.2395 -1.3459 -0.0166
  987TIP3    H227157   2.847   0.244   6.664  1.3708  2.2618  0.0349
  988TIP3   OH227158   7.104   4.334   8.620  0.1910 -0.5941 -0.1913
  988TIP3    H127159   7.192   4.324   8.655  0.4835  0.0254 -0.7311
  988TIP3    H227160   7.116   4.368   8.531 -0.5502 -1.6834 -0.7389
  989TIP3   OH227161   5.908   1.305   8.924 -0.4451  0.3699  0.5731
  989TIP3    H127162   6.000   1.332   8.923 -0.1039 -0.6886  1.5766
  989TIP3    H227163   5.911   1.210   8.936 -1.6715  0.2943  0.3759
  990TIP3   OH227164   1.043   0.548   8.800 -0.6607 -0.5610  0.0835
  990TIP3    H127165   1.009   0.626   8.755  0.9321 -0.5791 -1.2463
  990TIP3    H227166   0.993   0.476   8.762 -0.0895 -0.4592 -0.9097
  991TIP3   OH227167   4.593   2.870   9.092 -0.3066  0.1398  0.3583
  991TIP3    H127168   4.662   2.805   9.103  0.1363  0.8755  2.6661
  991TIP3    H227169   4.527   2.828   9.037  0.5845 -1.7195  0.6462
  992TIP3   OH227170   7.518   4.816   8.952 -0.4847 -0.0628 -0.4778
  992TIP3    H127171   7.601   4.864   8.947 -0.8043  1.0596  2.7510
  992TIP3    H227172   7.533   4.739   8.897  1.1638  2.0794 -3.3188
  993TIP3   OH227173   2.137   1.494   9.045  0.2961 -0.2108 -0.5731
  993TIP3    H127174   2.185   1.575   9.060 -0.8581  0.4600 -0.4122
  993TIP3    H227175   2.074   1.516   8.976  1.2252 -1.4925 -1.8763
  994TIP3   OH227176   6.113   6.644   8.217 -0.5077 -0.0482 -0.1105
  994TIP3    H127177   6.024   6.645   8.180 -0.0299  2.4417 -1.4077
  994TIP3    H227178   6.168   6.613   8.144  0.0576  1.8168 -0.5338
  995TIP3   OH227179   0.006   1.633   8.652 -0.5244  0.2204 -0.6116
  995TIP3    H127180   0.002   1.709   8.710  0.7487  0.5224 -0.8845
  995TIP3    H227181   0.032   1.561   8.709  2.6589  0.8844 -1.0221
  996TIP3   OH227182   7.537   4.630   7.213  0.1070 -0.2719 -0.3594
  996TIP3    H127183   7.490   4.566   7.160 -0.4060  0.5692 -0.9372
  996TIP3    H227184   7.580   4.688   7.150 -0.7461  0.9192  0.1178
  997TIP3   OH227185   2.566   0.591   7.724 -0.0291 -0.0842  0.9931
  997TIP3    H127186   2.619   0.604   7.803  0.4973 -1.3048  0.8607
  997TIP3    H227187   2.630   0.576   7.655 -0.4966  0.7652  0.3644
  998TIP3   OH227188   1.185   0.003   7.207 -0.8331  0.2159 -0.4880
  998TIP3    H127189   1.245   0.028   7.277 -0.7323 -2.1596  0.3410
  998TIP3    H227190   1.229   0.031   7.126 -0.4304  1.9549  0.2762
  999TIP3   OH227191   6.627   7.134   6.893  0.0350 -0.2944 -0.3321
  999TIP3    H127192   6.616   7.219   6.849 -4.0128 -0.5749 -0.2292
  999TIP3    H227193   6.629   7.070   6.822 -2.4554 -0.4296 -0.3682
 1000TIP3   OH227194   5.836   1.437   8.273 -0.3282  0.2197 -0.0313
 1000TIP3    H127195   5.854   1.526   8.243 -1.8281  0.5095 -0.1580
 1000TIP3    H227196   5.837   1.443   8.369 -0.2699  0.3418 -0.0398
 1001TIP3   OH227197   7.035   5.449   9.422  0.0884  1.0352  0.4200
 1001TIP3    H127198   7.013   5.513   9.489 -0.6709 -0.5658  1.7725
 1001TIP3    H227199   7.127   5.427   9.438  0.1079  1.1761  0.4970
 1002TIP3   OH227200   5.529   1.094   7.467 -0.0538  0.6843 -0.2964
 1002TIP3    H127201   5.517   1.156   7.395  0.2674  0.9792 -0.0965
 1002TIP3    H227202   5.458   1.113   7.528 -0.1003  0.6890 -0.3518
 1003TIP3   OH227203   3.005   5.197   9.471  0.3036 -0.2490 -0.1210
 1003TIP3    H127204   3.071   5.161   9.412  0.0528  1.5773 -1.6243
 1003TIP3    H227205   2.940   5.127   9.481  0.5336 -0.7411 -1.7712
 1004TIP3   OH227206   4.862   3.711   9.045 -0.3249 -0.0002 -0.1270
 1004TIP3    H127207   4.825   3.783   8.995 -0.5214  0.5279  0.7497
 1004TIP3    H227208   4.869   3.745   9.135  1.8398 -0.2325 -0.1546
 1005TIP3   OH227209   4.525   6.700   9.213  0.3478 -0.0676 -0.5480
 1005TIP3    H127210   4.584   6.661   9.278 -0.8965 -0.2713  0.4988
 1005TIP3    H227211   4.578   6.765   9.168  1.1234  0.4403  1.0317
 1006TIP3   OH227212   0.208   3.042   7.989 -0.7496  0.0940 -0.0523
 1006TIP3    H127213   0.171   3.081   7.910  2.8467  0.8706 -1.5916
 1006TIP3    H227214   0.261   2.969   7.957 -0.5359 -0.6627  1.8785
 1007TIP3   OH227215   6.491   3.982   9.312  0.3357 -0.1316 -0.2417
 1007TIP3    H127216   6.447   3.909   9.357 -0.0900 -0.4949 -1.2287
 1007TIP3    H227217   6.567   3.941   9.270 -0.4829 -0.2256 -1.6780
 1008TIP3   OH227218   2.329   7.597   8.961  0.3474 -0.2252 -0.1254
 1008TIP3    H127219   2.346   7.688   8.937  2.0612 -0.7954 -1.2934
 1008TIP3    H227220   2.416   7.557   8.967 -0.3074 -1.5477  1.4564
 1009TIP3   OH227221   4.442   4.600   8.874  0.0681  0.4996  0.1158
 1009TIP3    H127222   4.386   4.523   8.862 -0.8008  1.2548 -0.9184
 1009TIP3    H227223   4.382   4.667   8.908  0.7108  0.8450  0.5673
 1010TIP3   OH227224   4.973   7.047   8.752 -0.1632  0.8236  0.2841
 1010TIP3    H127225   5.002   7.023   8.663  0.1333  0.0130  0.5857
 1010TIP3    H227226   4.902   7.109   8.738 -1.0175 -0.2908 -0.5704
 1011TIP3   OH227227   1.959   3.486   8.142 -0.1815  0.4310 -0.0987
 1011TIP3    H127228   1.947   3.559   8.203 -1.1012 -0.4060  0.7701
 1011TIP3    H227229   1.878   3.435   8.150  1.2750 -1.8970  1.0068
 1012TIP3   OH227230   5.216   4.648   7.081  0.1109 -0.3359  0.3662
 1012TIP3    H127231   5.123   4.647   7.105  0.2668  1.3313  1.1702
 1012TIP3    H227232   5.224   4.718   7.016  0.6827 -1.0174 -0.3231
 1013TIP3   OH227233   4.364   0.374   8.867 -0.2153 -0.4429 -0.0330
 1013TIP3    H127234   4.444   0.345   8.911  0.0822 -0.2957 -0.4635
 1013TIP3    H227235   4.327   0.441   8.924  1.0698  0.9805 -0.7868
 1014TIP3   OH227236   4.337   1.711   9.509 -0.4416 -0.0920 -0.0350
 1014TIP3    H127237   4.422   1.711   9.465  0.5066 -1.8596  1.6757
 1014TIP3    H227238   4.319   1.803   9.526  0.8409  0.3565 -0.9441
 1015TIP3   OH227239   5.997   7.088   6.433 -0.0991 -0.4815 -0.2929
 1015TIP3    H127240   6.000   6.993   6.448 -0.4827 -0.2237  1.6428
 1015TIP3    H227241   5.907   7.112   6.455  0.2003  0.4456 -0.0737
 1016TIP3   OH227242   6.661   5.821   7.219 -0.0183 -0.2605  0.5336
 1016TIP3    H127243   6.605   5.864   7.283 -0.4274  0.3421 -0.2140
 1016TIP3    H227244   6.729   5.777   7.271 -0.2462  0.3595  1.3597
 1017TIP3   OH227245   2.427   3.700   8.938 -0.1888  0.2321  0.7366
 1017TIP3    H127246   2.443   3.731   8.849  4.9242 -0.7485  1.0335
 1017TIP3    H227247   2.416   3.779   8.990  2.4777  1.1798 -0.0181
 1018TIP3   OH227248   5.272   2.012   8.067 -0.1173  0.1659 -0.8171
 1018TIP3    H127249   5.351   2.058   8.037 -0.3314  2.4973  1.7786
 1018TIP3    H227250   5.208   2.082   8.079 -1.7498 -1.3549 -0.3424
 1019TIP3   OH227251   4.453   3.434   7.523  0.2535  0.2184 -1.2022
 1019TIP3    H127252   4.537   3.452   7.564 -0.0606 -0.5908 -0.1444
 1019TIP3    H227253   4.429   3.516   7.480  1.2842  0.6473 -0.9914
 1020TIP3   OH227254   0.150   5.690   7.959  0.3607  0.0974 -0.1140
 1020TIP3    H127255   0.063   5.652   7.942  1.4578 -3.0806  0.7233
 1020TIP3    H227256   0.183   5.714   7.873 -0.2715 -1.2696 -0.7638
 1021TIP3   OH227257   0.822   6.260   8.175 -0.0125  0.0814 -0.0448
 1021TIP3    H127258   0.848   6.216   8.256  0.2060 -0.9218 -0.6360
 1021TIP3    H227259   0.726   6.251   8.173  0.1055 -1.5569 -0.7624
 1022TIP3   OH227260   3.062   4.222   9.497 -0.0109  0.0182  0.0048
 1022TIP3    H127261   3.061   4.158   9.568 -0.9638 -2.5445 -2.1549
 1022TIP3    H227262   2.997   4.287   9.523  1.7829  0.8927  2.7912
 1023TIP3   OH227263   0.403   3.543   9.440 -0.6383  0.4378 -0.8680
 1023TIP3    H127264   0.325   3.595   9.460 -1.0038 -0.1562 -0.7168
 1023TIP3    H227265   0.440   3.585   9.362 -0.0375  1.8716  0.1352
 1024TIP3   OH227266   6.737   2.249   6.451  0.5633  0.2245  0.0577
 1024TIP3    H127267   6.721   2.155   6.449 -1.2444  0.5163 -0.8483
 1024TIP3    H227268   6.712   2.275   6.540  1.7278 -0.2337  0.5361
 1025TIP3   OH227269   4.528   3.472   7.886  0.0595  0.2917 -0.2072
 1025TIP3    H127270   4.440   3.509   7.884 -0.3600 -0.6694 -1.8184
 1025TIP3    H227271   4.535   3.430   7.972 -1.5213 -0.6330 -0.5007
 1026TIP3   OH227272   1.629   7.182   6.977 -0.1440 -0.4594  0.2851
 1026TIP3    H127273   1.719   7.155   6.965 -0.9931 -2.8086 -1.5997
 1026TIP3    H227274   1.608   7.232   6.898 -0.9572 -1.4139 -0.1196
 1027TIP3   OH227275   7.466   5.426   8.463  0.3053 -0.5764  0.1662
 1027TIP3    H127276   7.382   5.443   8.506  0.7367  2.1788  0.1410
 1027TIP3    H227277   7.450   5.446   8.371  0.9657  0.0421  0.1732
 1028TIP3   OH227278   7.204   2.418   8.745  0.0006  0.0297 -0.1610
 1028TIP3    H127279   7.237   2.470   8.673 -0.9990  0.1708 -0.5252
 1028TIP3    H227280   7.280   2.406   8.802  1.0107 -0.7519 -1.6053
 1029TIP3   OH227281   6.886   4.186   9.052 -0.2246  0.2866  0.3317
 1029TIP3    H127282   6.909   4.249   8.984  0.2859  0.3728  0.5773
 1029TIP3    H227283   6.824   4.233   9.109  0.3436  0.6619  0.6550
 1030TIP3   OH227284   2.177   1.810   8.042  0.2703  0.1744 -0.7511
 1030TIP3    H127285   2.113   1.740   8.037  1.2320 -0.8238  0.4440
 1030TIP3    H227286   2.234   1.796   7.966  0.1460 -0.0072 -0.8110
 1031TIP3   OH227287   5.296   4.349   9.205 -0.1820 -0.0339  0.5864
 1031TIP3    H127288   5.203   4.357   9.229 -0.5114  0.7601 -0.8199
 1031TIP3    H227289   5.315   4.256   9.215 -1.7053 -0.5679 -0.9436
 1032TIP3   OH227290   3.515   7.291   7.752  0.4037 -0.4000 -0.4788
 1032TIP3    H127291   3.503   7.366   7.695  1.6734 -0.7324 -1.2188
 1032TIP3    H227292   3.608   7.269   7.744  0.5251 -0.7623  1.3358
 1033TIP3   OH227293   4.645   5.189   6.796 -0.1068 -0.5294  0.4782
 1033TIP3    H127294   4.671   5.106   6.757  0.0905 -0.4966  0.5435
 1033TIP3    H227295   4.564   5.169   6.843 -2.4442  0.1227 -2.8299
 1034TIP3   OH227296   6.321   6.039   9.161  0.4093  0.1242 -0.2542
 1034TIP3    H127297   6.414   6.036   9.140  0.2897 -0.8138 -0.6581
 1034TIP3    H227298   6.317   6.026   9.256  0.6425 -0.7077 -0.3533
 1035TIP3   OH227299   4.018   6.354   7.668  0.2276 -0.1576 -0.0187
 1035TIP3    H127300   4.009   6.383   7.577 -1.8328 -0.3012  0.0795
 1035TIP3    H227301   3.981   6.265   7.668  1.9439 -0.9170  0.6296
 1036TIP3   OH227302   1.443   3.368   6.950  0.1884  0.0686 -0.6993
 1036TIP3    H127303   1.451   3.456   6.912 -0.0231  0.2471 -0.3419
 1036TIP3    H227304   1.527   3.353   6.993  0.6303 -0.3521 -1.6680
 1037TIP3   OH227305   0.742   0.445   7.755 -0.1066 -0.4635  0.0052
 1037TIP3    H127306   0.807   0.500   7.799 -0.9325  0.9056 -0.4066
 1037TIP3    H227307   0.697   0.401   7.827  1.1084 -1.2693  0.3039
 1038TIP3   OH227308   2.665   0.867   8.114 -0.4526 -0.1651  0.8158
 1038TIP3    H127309   2.677   0.927   8.187 -1.0889  0.5076  0.3854
 1038TIP3    H227310   2.618   0.919   8.048 -1.2196 -1.2097  0.5200
 1039TIP3   OH227311   1.600   7.571   8.260 -0.7516  0.1756 -0.0631
 1039TIP3    H127312   1.525   7.585   8.202 -0.7721  0.2233 -0.0247
 1039TIP3    H227313   1.623   7.479   8.247 -1.5632 -0.1653  0.8232
 1040TIP3   OH227314   6.742   2.086   7.732 -0.3204 -0.0857  0.2648
 1040TIP3    H127315   6.762   2.125   7.817  1.4159  0.7720 -0.4889
 1040TIP3    H227316   6.763   1.993   7.743  1.5872  0.3030  0.3393
 1041TIP3   OH227317   6.231   3.598   9.130 -0.1251  0.8434  0.3075
 1041TIP3    H127318   6.307   3.562   9.083 -1.0493  0.4130 -0.9315
 1041TIP3    H227319   6.214   3.534   9.199  1.6476  1.8056  1.7086
 1042TIP3   OH227320   2.031   0.061   7.837  0.1581  0.2160  0.0930
 1042TIP3    H127321   2.122   0.066   7.864  0.7353  1.1706 -1.8154
 1042TIP3    H227322   1.994   0.146   7.862  0.0633  0.1904  0.0403
 1043TIP3   OH227323   2.305   6.767   6.797  0.3326  0.1037  0.6151
 1043TIP3    H127324   2.246   6.772   6.722  1.7153 -0.1991 -0.5356
 1043TIP3    H227325   2.292   6.679   6.833 -1.5256  0.7876  1.8080
 1044TIP3   OH227326   7.192   2.705   7.300  0.0768 -0.0566  0.2568
 1044TIP3    H127327   7.163   2.615   7.286 -0.4598  0.3559 -1.4483
 1044TIP3    H227328   7.113   2.752   7.328  0.1575  0.0912  0.2360
 1045TIP3   OH227329   1.792   1.648   8.646  0.1467  0.4407  0.3804
 1045TIP3    H127330   1.842   1.718   8.688 -1.3093  1.9692 -0.2925
 1045TIP3    H227331   1.715   1.693   8.609  0.2534 -1.1556 -1.9942
 1046TIP3   OH227332   6.363   5.452   7.425  0.2039  0.2714  0.3589
 1046TIP3    H127333   6.371   5.513   7.352 -1.0416  0.0640  0.0357
 1046TIP3    H227334   6.355   5.366   7.383  0.0410  0.0902  0.7596
 1047TIP3   OH227335   3.209   1.324   9.411  0.2372  0.1104 -0.0094
 1047TIP3    H127336   3.248   1.410   9.429  0.2695 -0.2496  1.8255
 1047TIP3    H227337   3.145   1.341   9.342  0.4453  1.5608  0.1214
 1048TIP3   OH227338   3.233   7.167   8.602 -0.3586 -0.3256 -0.8802
 1048TIP3    H127339   3.143   7.196   8.588 -0.0581 -0.0381 -2.4276
 1048TIP3    H227340   3.236   7.079   8.564  0.4544  0.4024 -2.6014
 1049TIP3   OH227341   1.433   7.216   8.023  0.3705 -0.3435  0.0856
 1049TIP3    H127342   1.409   7.303   8.054  0.6694 -0.6164  1.1529
 1049TIP3    H227343   1.366   7.194   7.958 -1.3267 -0.4132  1.7630
 1050TIP3   OH227344   1.187   0.408   7.679 -0.1100  0.4759  0.0736
 1050TIP3    H127345   1.094   0.385   7.673 -0.0212  0.2588 -0.5793
 1050TIP3    H227346   1.219   0.400   7.589  0.8679 -0.8083  0.5231
 1051TIP3   OH227347   5.158   5.070   6.921 -0.1303  0.2157 -0.0185
 1051TIP3    H127348   5.243   5.099   6.956 -1.1139  0.2715  2.5626
 1051TIP3    H227349   5.174   4.981   6.892  0.8128  0.2047  0.4733
 1052TIP3   OH227350   1.338   6.618   7.242  0.3687  0.2798 -0.3632
 1052TIP3    H127351   1.299   6.695   7.284 -0.3074  0.1449 -0.7159
 1052TIP3    H227352   1.264   6.577   7.196  0.7717 -0.4512 -0.3644
 1053TIP3   OH227353   1.268   4.267   9.239 -0.2271  0.3321 -0.0383
 1053TIP3    H127354   1.333   4.268   9.169 -1.2872 -2.3656 -1.2037
 1053TIP3    H227355   1.257   4.359   9.263  1.3618  1.1970 -2.2658
 1054TIP3   OH227356   6.687   1.280   7.241  0.0346 -0.4049  0.1905
 1054TIP3    H127357   6.692   1.187   7.219 -0.1090 -0.2644 -0.4496
 1054TIP3    H227358   6.743   1.323   7.176 -1.6691  0.1884 -0.9474
 1055TIP3   OH227359   2.863   2.749   9.227  0.4809  0.3832  0.6854
 1055TIP3    H127360   2.784   2.712   9.266  0.6551  0.2411  0.9070
 1055TIP3    H227361   2.908   2.791   9.300  0.5574  0.5545  0.5394
 1056TIP3   OH227362   0.736   1.846   9.395  0.0379 -0.3307 -0.0613
 1056TIP3    H127363   0.797   1.902   9.347 -1.0356  0.8281 -0.1196
 1056TIP3    H227364   0.656   1.848   9.343 -0.7925  0.0606  1.1821
 1057TIP3   OH227365   7.299   4.685   8.726  0.5612  0.4117 -0.5417
 1057TIP3    H127366   7.393   4.700   8.728  0.5688  0.4422  1.5040
 1057TIP3    H227367   7.289   4.590   8.721  0.6662  0.4492 -1.6929
 1058TIP3   OH227368   5.961   5.402   9.191  0.0758 -0.0378 -0.6123
 1058TIP3    H127369   5.876   5.387   9.150  0.0358  0.2052 -0.6191
 1058TIP3    H227370   5.954   5.489   9.230  0.1131 -0.2705 -0.0823
 1059TIP3   OH227371   0.571   5.554   8.108 -0.4180  0.3796  0.5020
 1059TIP3    H127372   0.628   5.546   8.185 -1.7943  1.7283  1.7417
 1059TIP3    H227373   0.532   5.468   8.099 -1.1343  0.4844  2.1163
 1060TIP3   OH227374   4.516   1.182   7.239 -0.6787  0.0109 -0.5198
 1060TIP3    H127375   4.421   1.184   7.247 -0.6079  0.6478  0.3680
 1060TIP3    H227376   4.537   1.093   7.212 -1.5825  0.1162 -1.5934
 1061TIP3   OH227377   4.458   6.058   7.144 -0.6507  0.3081  0.8311
 1061TIP3    H127378   4.400   5.983   7.129 -0.2413  0.2033 -0.3183
 1061TIP3    H227379   4.544   6.028   7.115 -0.5584  1.3389 -0.0416
 1062TIP3   OH227380   0.110   7.576   7.630  0.8244 -0.2826  0.1071
 1062TIP3    H127381   0.142   7.601   7.717 -0.4373 -1.9247  1.1149
 1062TIP3    H227382   0.014   7.574   7.639  0.6361  0.1395 -1.5139
 1063TIP3   OH227383   5.473   2.678   9.277 -0.9629 -0.2895  0.0216
 1063TIP3    H127384   5.529   2.750   9.305 -1.1572 -0.3126  0.4847
 1063TIP3    H227385   5.496   2.663   9.186 -1.1389  0.5692 -0.1756
 1064TIP3   OH227386   7.158   0.421   7.726  0.0287 -0.0526  0.1793
 1064TIP3    H127387   7.160   0.449   7.635 -2.9531 -2.6132 -0.8731
 1064TIP3    H227388   7.105   0.487   7.771  0.3691  0.5144 -0.2574
 1065TIP3   OH227389   5.714   4.578   9.500  0.4642 -0.5140 -0.1135
 1065TIP3    H127390   5.737   4.657   9.450  1.1871 -0.2226  0.6695
 1065TIP3    H227391   5.761   4.507   9.456  2.4454 -0.0193  1.0870
 1066TIP3   OH227392   3.811   4.819   9.184 -0.3040  0.3281 -0.1221
 1066TIP3    H127393   3.824   4.794   9.092  0.8219 -1.1337  0.4055
 1066TIP3    H227394   3.877   4.769   9.232 -1.2344  0.6571  1.5547
 1067TIP3   OH227395   1.574   6.271   8.021 -0.2560 -1.0044 -0.1050
 1067TIP3    H127396   1.515   6.223   8.080  0.3110 -1.7553 -0.1212
 1067TIP3    H227397   1.521   6.292   7.945 -0.7932 -0.7035  0.3485
 1068TIP3   OH227398   2.088   5.000   7.081 -0.1838  0.2240 -0.0103
 1068TIP3    H127399   2.145   4.925   7.066 -1.8243 -0.9073 -0.9593
 1068TIP3    H227400   2.010   4.981   7.028 -0.0939  3.2776 -1.4367
 1069TIP3   OH227401   4.569   7.656   8.814  0.0273  0.1388 -0.1884
 1069TIP3    H127402   4.501   7.718   8.785 -1.3861 -1.4619 -0.4357
 1069TIP3    H227403   4.639   7.666   8.749 -0.7884  0.4837 -1.0445
 1070TIP3   OH227404   5.671   5.174   9.641  0.5645  0.6456  0.0038
 1070TIP3    H127405   5.765   5.155   9.637  0.0308 -3.0113  0.8386
 1070TIP3    H227406   5.633   5.097   9.684 -2.7879  2.2024  0.1528
 1071TIP3   OH227407   5.654   1.040   8.858 -0.3079  0.2958  0.1526
 1071TIP3    H127408   5.744   1.052   8.888 -0.1614 -1.1754  0.3604
 1071TIP3    H227409   5.601   1.080   8.926  0.1637  1.0695  0.0889
 1072TIP3   OH227410   5.575   6.478   8.191  0.7716  0.1777 -0.0718
 1072TIP3    H127411   5.507   6.500   8.128  0.0691  0.4245  0.7508
 1072TIP3    H227412   5.531   6.479   8.276  1.4509 -1.1924  0.3321
 1073TIP3   OH227413   7.323   1.393   7.145 -0.1577  0.1838  0.2181
 1073TIP3    H127414   7.305   1.413   7.053  0.5741  0.8772  0.2166
 1073TIP3    H227415   7.409   1.430   7.161 -0.8345  1.2834  1.5533
 1074TIP3   OH227416   7.587   3.890   6.963 -0.5281 -0.1855 -0.0681
 1074TIP3    H127417   7.520   3.924   6.905 -0.1734 -0.1802 -0.4791
 1074TIP3    H227418   7.641   3.966   6.985  0.2082 -0.4474 -0.9086
 1075TIP3   OH227419   6.009   6.313   8.361 -0.3038  0.2227 -0.3974
 1075TIP3    H127420   6.012   6.249   8.431  1.7377 -1.5344 -1.9638
 1075TIP3    H227421   5.960   6.270   8.291 -0.0366  0.8821 -1.0038
 1076TIP3   OH227422   4.251   5.179   8.909  0.1817 -0.4363 -0.1706
 1076TIP3    H127423   4.160   5.157   8.929  0.1895  0.0802  0.4793
 1076TIP3    H227424   4.289   5.098   8.875 -0.8645 -0.3221 -1.6942
 1077TIP3   OH227425   5.414   3.162   9.002 -0.2774 -0.0016  0.4804
 1077TIP3    H127426   5.372   3.240   9.038  0.0732  0.1263  0.6118
 1077TIP3    H227427   5.348   3.093   9.012 -0.4640  0.2018  0.6681
 1078TIP3   OH227428   2.004   3.599   7.846 -0.0498  0.0367  0.4060
 1078TIP3    H127429   1.999   3.523   7.788  1.9718 -0.2631  0.5243
 1078TIP3    H227430   1.937   3.583   7.912 -0.7370 -0.8414 -0.4771
 1079TIP3   OH227431   3.071   5.524   8.607 -0.1641  0.2268 -0.1686
 1079TIP3    H127432   3.077   5.432   8.631  1.9435  0.7365  1.5897
 1079TIP3    H227433   3.018   5.564   8.677 -1.3614  0.3395 -1.1005
 1080TIP3   OH227434   6.786   7.279   8.050  0.1001 -0.8381 -0.0597
 1080TIP3    H127435   6.744   7.345   7.994  0.5636 -0.0411  0.5096
 1080TIP3    H227436   6.737   7.198   8.033  0.2895 -0.6418 -1.6794
 1081TIP3   OH227437   0.966   4.376   6.904 -0.1102 -0.3775 -0.4195
 1081TIP3    H127438   0.885   4.427   6.894  1.5148  2.3871 -0.3561
 1081TIP3    H227439   0.978   4.368   6.999 -0.3535 -0.8765 -0.4296
 1082TIP3   OH227440   7.319   5.321   7.010  0.5243  0.2388  0.3943
 1082TIP3    H127441   7.270   5.240   6.996 -0.3867  0.7834  0.3586
 1082TIP3    H227442   7.331   5.326   7.105  0.3529  0.1921  0.4184
 1083TIP3   OH227443   2.547   3.291   9.299 -0.2710 -0.1447 -0.3303
 1083TIP3    H127444   2.634   3.258   9.319 -0.7960 -1.0292  0.5768
 1083TIP3    H227445   2.562   3.379   9.265  0.8452  0.7984  2.3316
 1084TIP3   OH227446   2.151   4.781   8.962  0.6175 -0.3062 -0.1814
 1084TIP3    H127447   2.125   4.819   9.045 -0.7762  0.8583 -1.1094
 1084TIP3    H227448   2.073   4.784   8.907  1.4328 -1.2367 -1.4879
 1085TIP3   OH227449   0.295   2.399   7.787  0.1465 -0.0481 -0.2472
 1085TIP3    H127450   0.307   2.319   7.839  0.5644 -0.0583 -0.3514
 1085TIP3    H227451   0.345   2.382   7.707 -0.2788  0.0709 -0.5389
 1086TIP3   OH227452   1.036   1.202   8.791  0.2982  0.5802  0.3850
 1086TIP3    H127453   0.958   1.151   8.769  2.0327 -2.5923  0.9784
 1086TIP3    H227454   1.046   1.191   8.886  3.5684 -2.7118 -0.1066
 1087TIP3   OH227455   3.871   7.277   8.906  0.3024 -0.2281  0.3351
 1087TIP3    H127456   3.777   7.291   8.893  0.2836  0.1601  0.9034
 1087TIP3    H227457   3.879   7.243   8.995  0.7247 -0.0686  0.3617
 1088TIP3   OH227458   3.332   2.752   9.009 -0.1682 -0.0096 -0.1045
 1088TIP3    H127459   3.377   2.669   9.027  0.2002 -0.2625 -2.0354
 1088TIP3    H227460   3.253   2.728   8.962 -1.0884  0.6285  1.0537
 1089TIP3   OH227461   6.604   2.836   9.153  0.1331 -0.2659  0.2311
 1089TIP3    H127462   6.530   2.798   9.105 -1.6960 -0.8820  3.2875
 1089TIP3    H227463   6.602   2.793   9.238  1.3159  2.8433  1.9916
 1090TIP3   OH227464   5.843   0.376   6.911 -0.0813  0.4935 -0.1333
 1090TIP3    H127465   5.889   0.432   6.974 -0.4694  0.5039  0.1386
 1090TIP3    H227466   5.839   0.429   6.831  1.0309  0.2161 -0.3930
 1091TIP3   OH227467   2.357   0.199   8.967  0.1660 -0.2608 -0.0289
 1091TIP3    H127468   2.270   0.237   8.952 -0.3181 -1.6257 -0.9107
 1091TIP3    H227469   2.408   0.270   9.006 -1.8744  0.0225  2.3306
 1092TIP3   OH227470   6.933   2.486   8.177 -0.4544 -0.0808  0.1170
 1092TIP3    H127471   6.924   2.502   8.083 -3.0437 -0.2954  0.2586
 1092TIP3    H227472   6.877   2.552   8.218 -0.3562 -0.7979  1.4516
 1093TIP3   OH227473   3.764   7.126   9.410 -0.3657  0.3207  0.1456
 1093TIP3    H127474   3.825   7.055   9.431 -1.0479 -0.2553  0.2479
 1093TIP3    H227475   3.814   7.185   9.354 -0.1783 -0.9352 -1.0684
 1094TIP3   OH227476   6.376   0.926   8.528  0.2762  0.3594 -0.0496
 1094TIP3    H127477   6.453   0.891   8.482 -0.3738  0.0867 -0.9668
 1094TIP3    H227478   6.317   0.953   8.458 -0.8685 -0.3215  0.6195
 1095TIP3   OH227479   5.233   5.831   8.328  0.4337  0.2013  0.2099
 1095TIP3    H127480   5.158   5.774   8.315  0.5849  0.0353  0.0548
 1095TIP3    H227481   5.229   5.856   8.421 -0.0748  0.5751  0.0905
 1096TIP3   OH227482   2.458   3.510   8.720  0.1870  0.7580  0.0992
 1096TIP3    H127483   2.440   3.601   8.698  0.4791  0.5620 -0.9792
 1096TIP3    H227484   2.430   3.502   8.812  1.1967  2.2113  0.5744
 1097TIP3   OH227485   6.714   1.425   8.145  0.2179 -0.3676 -0.2234
 1097TIP3    H127486   6.628   1.402   8.110  1.1561 -1.2479 -2.0830
 1097TIP3    H227487   6.701   1.510   8.188 -1.2212  0.3509 -1.9847
 1098TIP3   OH227488   4.257   7.632   8.248 -0.4084 -0.1235  0.3157
 1098TIP3    H127489   4.238   7.604   8.337 -1.5977  0.3944  0.2409
 1098TIP3    H227490   4.350   7.656   8.250 -0.4553  0.0191  1.4518
 1099TIP3   OH227491   1.708   0.712   8.733  0.9025  0.2664 -0.0452
 1099TIP3    H127492   1.779   0.668   8.687  0.0943 -0.2720 -0.8184
 1099TIP3    H227493   1.636   0.716   8.669 -0.5613 -1.2925  1.3794
 1100TIP3   OH227494   2.892   2.649   8.765  0.0751  0.0198  0.1181
 1100TIP3    H127495   2.844   2.590   8.707 -0.3778 -0.4836  0.9730
 1100TIP3    H227496   2.860   2.628   8.853  0.9576  0.5434  0.5908
 1101TIP3   OH227497   1.417   5.407   7.092 -0.0094 -0.4484  0.8340
 1101TIP3    H127498   1.448   5.395   7.002 -0.0911  1.5820  0.4805
 1101TIP3    H227499   1.401   5.319   7.124  2.3652 -1.3785 -0.2977
 1102TIP3   OH227500   0.311   0.518   8.133  0.1502  0.0866 -0.5417
 1102TIP3    H127501   0.402   0.491   8.120 -0.0141  0.6899 -3.7195
 1102TIP3    H227502   0.302   0.527   8.228  3.8658  1.5241 -0.1447
 1103TIP3   OH227503   3.914   6.634   9.347  0.0766 -1.1130 -0.2877
 1103TIP3    H127504   3.913   6.617   9.253 -1.7983 -2.7505 -0.0439
 1103TIP3    H227505   4.000   6.670   9.364  0.9452 -1.9954 -2.4408
 1104TIP3   OH227506   4.218   2.743   9.040 -0.2638 -0.3109 -0.4015
 1104TIP3    H127507   4.230   2.834   9.066 -0.0112  0.4415 -2.9232
 1104TIP3    H227508   4.127   2.724   9.061 -0.4974  0.7326 -0.4211
 1105TIP3   OH227509   1.255   7.252   9.105  0.1757 -0.1107 -0.5633
 1105TIP3    H127510   1.216   7.181   9.157  1.8616 -1.1799 -0.6778
 1105TIP3    H227511   1.197   7.326   9.119 -0.4588 -0.8945  1.3601
 1106TIP3   OH227512   2.219   1.831   9.459 -0.0648 -0.3279 -0.7537
 1106TIP3    H127513   2.298   1.885   9.460  0.5905 -1.2628  0.3543
 1106TIP3    H227514   2.243   1.753   9.408 -0.6427 -0.1114 -1.3795
 1107TIP3   OH227515   3.464   1.847   9.257  0.3275 -0.3543 -0.4209
 1107TIP3    H127516   3.396   1.894   9.208 -0.6763 -1.1358  0.2119
 1107TIP3    H227517   3.477   1.899   9.336  0.4956 -0.1912 -0.5536
 1108TIP3   OH227518   1.906   4.418   7.286 -0.1762 -0.3025  0.1743
 1108TIP3    H127519   1.874   4.385   7.202 -0.1319 -0.0104  0.0426
 1108TIP3    H227520   1.828   4.444   7.334 -0.0683  1.9398 -0.7794
 1109TIP3   OH227521   5.148   4.002   6.653  0.6090  0.0391  0.6100
 1109TIP3    H127522   5.188   3.948   6.721  1.0916  0.3154  0.5479
 1109TIP3    H227523   5.160   4.092   6.684  1.7398  0.2232 -0.3239
 1110TIP3   OH227524   2.532   6.012   7.227 -0.5120 -0.3501  0.3414
 1110TIP3    H127525   2.505   6.081   7.166 -1.1703 -2.1322 -1.4869
 1110TIP3    H227526   2.612   6.046   7.267 -1.6702  2.1270  0.7390
 1111TIP3   OH227527   6.736   4.838   7.798  0.0697 -0.1059  0.2266
 1111TIP3    H127528   6.672   4.878   7.856  0.6249  0.6390  0.3496
 1111TIP3    H227529   6.771   4.911   7.747  1.6928 -0.2731  1.0268
 1112TIP3   OH227530   5.013   3.789   6.542  0.2982 -0.1253  0.1833
 1112TIP3    H127531   4.946   3.782   6.610  0.2469  0.2635  0.1766
 1112TIP3    H227532   5.083   3.840   6.584 -0.3254  1.3504 -0.4997
 1113TIP3   OH227533   6.825   6.876   8.468  0.7616 -1.0409 -0.4445
 1113TIP3    H127534   6.838   6.791   8.510  0.3454 -0.2367  1.4099
 1113TIP3    H227535   6.823   6.856   8.374  1.1326 -3.0004 -0.0863
 1114TIP3   OH227536   6.476   6.625   8.358 -0.0334 -0.9447  0.1127
 1114TIP3    H127537   6.526   6.561   8.407  0.4480  0.4250  1.4854
 1114TIP3    H227538   6.400   6.644   8.413  0.3696  0.4131  0.2416
 1115TIP3   OH227539   2.694   6.928   9.065  0.1936 -0.3690 -0.2705
 1115TIP3    H127540   2.700   6.855   9.126  0.2114  0.4941  0.7995
 1115TIP3    H227541   2.681   6.887   8.979  1.4495 -1.6463  0.1137
 1116TIP3   OH227542   0.317   5.857   7.823 -0.5649 -0.0770  0.4000
 1116TIP3    H127543   0.380   5.913   7.868  0.1828 -0.5199 -0.0720
 1116TIP3    H227544   0.317   5.888   7.733  0.3094 -1.1958 -0.0088
 1117TIP3   OH227545   6.176   3.925   6.776  0.3289 -0.6568 -0.3152
 1117TIP3    H127546   6.110   3.991   6.800 -3.1991 -2.7050 -3.3242
 1117TIP3    H227547   6.230   3.916   6.854 -0.0119  4.4298  0.8691
 1118TIP3   OH227548   6.560   5.709   8.849  0.4602 -0.1236 -0.3136
 1118TIP3    H127549   6.523   5.674   8.768 -0.6801  2.0853 -0.8334
 1118TIP3    H227550   6.625   5.773   8.820 -0.1632  0.9088  0.4674
 1119TIP3   OH227551   5.981   5.584   8.841 -0.4677  0.3647 -0.3525
 1119TIP3    H127552   6.062   5.569   8.891 -1.0772  1.7458  1.1303
 1119TIP3    H227553   5.919   5.520   8.876 -0.3673  0.0939 -0.6618
 1120TIP3   OH227554   6.753   2.637   6.980 -0.0731  0.0348 -0.1528
 1120TIP3    H127555   6.680   2.687   6.942  1.7616  2.4495 -0.7652
 1120TIP3    H227556   6.762   2.561   6.924 -1.4657  0.2325 -0.6805
 1121TIP3   OH227557   6.296   6.250   7.859 -0.3364 -0.4786 -0.4781
 1121TIP3    H127558   6.375   6.299   7.835 -1.4557  1.3375 -0.6159
 1121TIP3    H227559   6.328   6.162   7.881  1.5049 -0.2768 -2.1372
 1122TIP3   OH227560   1.577   0.646   7.224 -0.2545  0.8273 -0.0801
 1122TIP3    H127561   1.564   0.716   7.160  0.1004  2.2528  1.3440
 1122TIP3    H227562   1.659   0.669   7.268  0.7748 -1.4163 -0.6724
 1123TIP3   OH227563   4.208   4.286   7.559 -0.1199 -0.2275 -0.3078
 1123TIP3    H127564   4.145   4.264   7.628 -0.3025  0.8760 -0.0952
 1123TIP3    H227565   4.188   4.225   7.488 -1.4470  0.1078 -0.2530
 1124TIP3   OH227566   0.860   4.457   8.646  0.4032 -0.0335  0.5216
 1124TIP3    H127567   0.925   4.404   8.599 -0.6705  0.9556 -2.3023
 1124TIP3    H227568   0.803   4.392   8.689  1.5367 -0.9998  0.6121
 1125TIP3   OH227569   6.716   3.836   8.802 -0.0036  0.1332 -0.2801
 1125TIP3    H127570   6.704   3.744   8.780 -1.5280  0.1814  0.2764
 1125TIP3    H227571   6.773   3.870   8.733 -0.1740 -1.0084 -1.0004
 1126TIP3   OH227572   6.524   5.344   8.145  0.0661 -0.1027  0.6621
 1126TIP3    H127573   6.517   5.437   8.122  0.9484  0.0392  0.9101
 1126TIP3    H227574   6.445   5.304   8.109  0.1332  0.5819 -0.2941
 1127TIP3   OH227575   2.580   2.475   7.082 -0.5146  0.2232 -0.1893
 1127TIP3    H127576   2.567   2.460   7.176 -1.9867 -0.7072 -0.5060
 1127TIP3    H227577   2.646   2.410   7.057  0.8627  1.3344  0.4118
 1128TIP3   OH227578   0.379   3.564   7.921  0.6109  0.0115 -0.1064
 1128TIP3    H127579   0.375   3.483   7.973 -0.2220  0.8002  1.1085
 1128TIP3    H227580   0.302   3.560   7.865  0.3544  0.1298  0.2312
 1129TIP3   OH227581   4.113   1.640   8.940 -0.1591  0.1319 -0.7096
 1129TIP3    H127582   4.063   1.598   8.870  0.0378 -0.1597 -0.6792
 1129TIP3    H227583   4.060   1.627   9.019 -1.9417  3.1643 -1.2645
 1130TIP3   OH227584   1.775   2.302   8.796  0.1857  0.1976  0.4043
 1130TIP3    H127585   1.757   2.395   8.810  0.8398  0.4227 -0.2113
 1130TIP3    H227586   1.726   2.257   8.865  1.4048  1.1040  1.9139
 1131TIP3   OH227587   0.823   4.179   8.726  0.4961  0.3089 -0.3408
 1131TIP3    H127588   0.800   4.195   8.817  0.4018  1.0570 -0.4846
 1131TIP3    H227589   0.746   4.136   8.688 -0.5958  2.4667 -0.7327
 1132TIP3   OH227590   7.494   0.905   7.024  0.3948 -0.2906  0.4757
 1132TIP3    H127591   7.479   0.970   6.956 -0.5942  0.5506  1.4707
 1132TIP3    H227592   7.438   0.832   7.000  1.3357 -0.7206 -0.5193
 1133TIP3   OH227593   4.766   0.737   7.731 -0.8011 -0.4704 -0.1577
 1133TIP3    H127594   4.695   0.790   7.695 -0.4463  0.1497  0.0317
 1133TIP3    H227595   4.843   0.795   7.729 -1.1843  0.4167  3.5138
 1134TIP3   OH227596   1.667   4.340   7.467  0.6528 -0.1693 -0.6289
 1134TIP3    H127597   1.674   4.427   7.506  0.6313  0.1810 -1.4001
 1134TIP3    H227598   1.635   4.285   7.539  0.3248  0.5257 -0.2297
 1135TIP3   OH227599   6.813   7.175   8.992  0.4133  0.2475 -0.4725
 1135TIP3    H127600   6.788   7.145   8.904 -0.1996 -0.2095 -0.1579
 1135TIP3    H227601   6.737   7.224   9.022 -0.1362 -1.1455  0.5035
 1136TIP3   OH227602   2.194   2.251   6.591  0.4973 -0.1428 -0.3045
 1136TIP3    H127603   2.158   2.340   6.583  0.6534 -0.0889 -0.4367
 1136TIP3    H227604   2.289   2.264   6.587  0.5543 -0.2310  0.5693
 1137TIP3   OH227605   7.654   5.611   7.482 -0.0746  0.0782  0.0814
 1137TIP3    H127606   7.705   5.692   7.478  2.0245 -1.0860  1.2868
 1137TIP3    H227607   7.593   5.624   7.554  1.4539  0.0278  1.4514
 1138TIP3   OH227608   7.431   1.566   7.629 -0.5351  0.6926 -0.1633
 1138TIP3    H127609   7.496   1.590   7.695 -0.1672 -1.7649  0.4728
 1138TIP3    H227610   7.359   1.528   7.679  0.1676 -2.1189 -1.1429
 1139TIP3   OH227611   0.450   2.440   9.484  0.1401  0.9453 -0.3938
 1139TIP3    H127612   0.439   2.367   9.544 -1.4600  1.4740  0.0126
 1139TIP3    H227613   0.435   2.402   9.397 -0.7928  0.7942 -0.1767
 1140TIP3   OH227614   1.731   7.290   8.601 -0.4066 -0.2678  0.0039
 1140TIP3    H127615   1.693   7.227   8.662  2.1631  0.2136  2.2727
 1140TIP3    H227616   1.673   7.366   8.605 -1.0710 -0.8043  0.7093
 1141TIP3   OH227617   2.801   7.327   8.367  0.1780  0.1918  0.0816
 1141TIP3    H127618   2.895   7.311   8.368  0.1984  0.1942  1.8168
 1141TIP3    H227619   2.790   7.407   8.418 -0.6878  0.7825 -0.9977
 1142TIP3   OH227620   6.206   2.371   7.168  0.2670 -0.0938  0.1815
 1142TIP3    H127621   6.138   2.310   7.140  0.1010  0.0727  0.2215
 1142TIP3    H227622   6.225   2.424   7.090 -1.2491  1.3712  0.7377
 1143TIP3   OH227623   0.894   6.173   8.423 -0.4312 -0.2185 -0.0197
 1143TIP3    H127624   0.846   6.092   8.411  0.0976 -0.6483  0.7017
 1143TIP3    H227625   0.868   6.204   8.509 -0.9149  0.5800 -0.4422
 1144TIP3   OH227626   3.102   0.550   9.617  0.2474 -0.4964 -0.5405
 1144TIP3    H127627   3.036   0.489   9.584  0.5143 -0.3127 -1.4266
 1144TIP3    H227628   3.055   0.600   9.685 -0.1270 -1.2865 -0.2035
 1145TIP3   OH227629   7.407   6.256   9.355 -0.2992 -0.3041 -0.4686
 1145TIP3    H127630   7.376   6.300   9.276  0.6485  2.2333  0.4635
 1145TIP3    H227631   7.334   6.262   9.416 -0.8279 -1.7482 -0.9386
 1146TIP3   OH227632   6.303   4.093   8.593 -0.2075 -0.2878  0.0396
 1146TIP3    H127633   6.315   4.143   8.673 -0.3485 -1.6155  0.9298
 1146TIP3    H227634   6.239   4.144   8.542  1.3154  1.5484 -0.1334
 1147TIP3   OH227635   6.659   5.628   9.511  0.1164  0.6046 -0.1795
 1147TIP3    H127636   6.587   5.570   9.486 -0.4825  0.7262  1.1808
 1147TIP3    H227637   6.634   5.714   9.476 -0.8049  0.8171  0.9432
 1148TIP3   OH227638   1.081   7.096   8.788 -0.1026  0.3554 -0.0272
 1148TIP3    H127639   1.094   7.174   8.734  1.3173 -1.2156 -2.1568
 1148TIP3    H227640   1.166   7.052   8.787 -0.9327 -1.3720  0.8025
 1149TIP3   OH227641   6.648   2.964   7.063  0.5304  0.3111  0.5761
 1149TIP3    H127642   6.614   2.910   6.992 -3.1460  2.1324  0.6658
 1149TIP3    H227643   6.687   2.902   7.124 -0.3720 -1.8243 -0.8966
 1150TIP3   OH227644   7.348   1.749   6.829  0.2031 -0.0888 -0.0818
 1150TIP3    H127645   7.393   1.689   6.889  2.4408  0.5701 -1.0023
 1150TIP3    H227646   7.273   1.699   6.797 -0.0288 -1.0816  1.8831
 1151TIP3   OH227647   2.309   0.070   7.870 -0.3325 -0.4388  0.4815
 1151TIP3    H127648   2.363   0.142   7.835 -1.8962  0.6267  0.1821
 1151TIP3    H227649   2.345  -0.009   7.828  1.7569  0.0512  1.2029
 1152TIP3   OH227650   0.729   2.641   7.803  0.0527 -0.6422 -0.3603
 1152TIP3    H127651   0.803   2.588   7.773 -0.2789 -0.7354 -1.0181
 1152TIP3    H227652   0.652   2.587   7.788 -0.0673 -1.1182  1.6056
 1153TIP3   OH227653   5.833   3.532   8.801 -0.1962  0.3445  0.0992
 1153TIP3    H127654   5.904   3.468   8.805  0.1003  0.7092  0.9390
 1153TIP3    H227655   5.812   3.549   8.893 -3.4613 -2.0470  0.0033
 1154TIP3   OH227656   7.260   4.663   7.460  0.0908 -0.2309  0.1649
 1154TIP3    H127657   7.185   4.650   7.518 -0.0803 -1.4276 -0.2967
 1154TIP3    H227658   7.236   4.617   7.379  1.4803 -1.0129  0.1561
 1155TIP3   OH227659   3.108   0.687   9.343  0.2877  0.2352 -0.2195
 1155TIP3    H127660   3.031   0.720   9.389  0.4499 -0.1779  0.3593
 1155TIP3    H227661   3.149   0.626   9.405  0.4576 -0.4043 -0.9495
 1156TIP3   OH227662   7.417   3.663   8.418 -0.1346 -0.4630 -0.0509
 1156TIP3    H127663   7.470   3.736   8.386 -0.2126 -0.3960 -0.0267
 1156TIP3    H227664   7.463   3.630   8.494  0.4544 -1.0971 -0.6612
 1157TIP3   OH227665   3.643   0.925   8.263  0.1842 -0.1719 -0.5240
 1157TIP3    H127666   3.698   0.914   8.186 -1.5167  1.8090 -2.1594
 1157TIP3    H227667   3.558   0.888   8.238 -1.7486  4.1732 -1.4935
 1158TIP3   OH227668   0.718   2.666   8.592 -0.4813 -0.2295  0.4273
 1158TIP3    H127669   0.673   2.731   8.539  1.9867  1.3112  0.0571
 1158TIP3    H227670   0.704   2.694   8.682  0.1019  0.5420  0.2902
 1159TIP3   OH227671   4.549   2.957   7.297  0.4087 -0.3756  0.1798
 1159TIP3    H127672   4.483   3.019   7.328 -0.7605 -1.5426  0.1031
 1159TIP3    H227673   4.541   2.959   7.201  1.7565  0.7932  0.0502
 1160TIP3   OH227674   3.756   2.653   8.766 -0.0612 -0.0659  1.0392
 1160TIP3    H127675   3.760   2.695   8.680  3.8140 -1.4426  0.3252
 1160TIP3    H227676   3.687   2.586   8.757 -0.7125  0.7581 -0.4905
 1161TIP3   OH227677   3.112   2.616   9.253 -0.0908  0.0954  0.0018
 1161TIP3    H127678   3.164   2.678   9.304  0.4222 -0.7981  0.6069
 1161TIP3    H227679   3.048   2.670   9.207  2.5435  1.4961 -2.3342
 1162TIP3   OH227680   6.705   7.570   8.463  0.3624 -0.8324 -0.8815
 1162TIP3    H127681   6.741   7.483   8.442 -0.6438 -1.1830 -1.2400
 1162TIP3    H227682   6.613   7.553   8.484  0.9225 -0.3295  2.5640
 1163TIP3   OH227683   3.786   3.373   8.949 -0.5668 -0.0548  0.3183
 1163TIP3    H127684   3.773   3.279   8.934 -0.5340 -0.3468  2.0060
 1163TIP3    H227685   3.880   3.385   8.942 -0.3993 -0.4538  1.6150
 1164TIP3   OH227686   1.231   3.614   7.430  0.2365  0.5234 -0.1093
 1164TIP3    H127687   1.315   3.658   7.417  1.0493 -0.0061  2.6826
 1164TIP3    H227688   1.252   3.521   7.429 -0.7063  0.3059 -1.5105
 1165TIP3   OH227689   5.724   2.814   7.900  0.3477  0.0597  0.2505
 1165TIP3    H127690   5.691   2.772   7.979  1.5235  0.2953  0.8883
 1165TIP3    H227691   5.720   2.746   7.833 -1.0417 -0.0264  0.3870
 1166TIP3   OH227692   4.931   3.371   7.933  0.1691 -0.3753 -0.1116
 1166TIP3    H127693   4.888   3.426   7.868 -1.6686 -0.5652  0.8731
 1166TIP3    H227694   4.935   3.425   8.012  1.8255 -0.3517 -0.1886
 1167TIP3   OH227695   2.020   0.783   8.437  0.5964 -0.2751 -0.0973
 1167TIP3    H127696   2.056   0.834   8.510  1.4342 -1.6310  0.4961
 1167TIP3    H227697   1.981   0.706   8.480  2.4418 -1.8700 -1.1219
 1168TIP3   OH227698   5.088   5.272   8.078 -0.0885  0.4012 -0.3463
 1168TIP3    H127699   5.003   5.252   8.039  0.2729  2.1673 -2.2088
 1168TIP3    H227700   5.099   5.206   8.146 -2.1351 -0.9728 -1.2416
 1169TIP3   OH227701   4.435   3.467   9.303  0.0294  0.0868 -0.3943
 1169TIP3    H127702   4.507   3.435   9.356  0.2152  0.4449 -0.4277
 1169TIP3    H227703   4.380   3.391   9.288 -1.0471  0.3286  1.9043
 1170TIP3   OH227704   4.812   5.005   8.743 -0.0872  0.7615  0.0337
 1170TIP3    H127705   4.900   5.011   8.780 -0.7445  0.8413  1.6507
 1170TIP3    H227706   4.793   5.093   8.711  0.9386  0.4242 -1.6876
 1171TIP3   OH227707   5.376   6.264   8.546 -0.1508  0.1906 -0.4049
 1171TIP3    H127708   5.332   6.221   8.473 -0.3356 -0.4385  0.0683
 1171TIP3    H227709   5.397   6.351   8.513  1.7387 -0.7761 -1.9752
 1172TIP3   OH227710   1.399   4.551   9.486 -0.7224  0.3649 -0.1097
 1172TIP3    H127711   1.314   4.549   9.442 -2.4308 -1.0317  2.9503
 1172TIP3    H227712   1.424   4.459   9.495  0.6549  0.7138 -0.0618
 1173TIP3   OH227713   2.691   4.827   8.758  0.5196 -0.0461 -0.3230
 1173TIP3    H127714   2.612   4.865   8.718 -0.4795 -0.5136  1.1158
 1173TIP3    H227715   2.744   4.904   8.782  0.4316  0.2797 -1.1229
 1174TIP3   OH227716   5.386   0.832   9.043  0.1460 -0.7395  0.2354
 1174TIP3    H127717   5.314   0.851   8.983 -0.7932 -0.5061  1.4071
 1174TIP3    H227718   5.421   0.918   9.067  1.3863 -0.8782 -0.9752
 1175TIP3   OH227719   7.169   0.123   8.319  0.7935 -0.2479  0.6251
 1175TIP3    H127720   7.224   0.052   8.286  0.0270  0.3969 -2.3598
 1175TIP3    H227721   7.081   0.086   8.322  0.6018  0.1765  0.3542
 1176TIP3   OH227722   3.463   1.566   8.264 -0.2340  0.4341  0.2961
 1176TIP3    H127723   3.464   1.516   8.346  2.3556  0.6431  0.4837
 1176TIP3    H227724   3.538   1.533   8.215 -0.7946  1.4307 -1.3125
 1177TIP3   OH227725   1.729   7.170   7.674  0.6720  0.1447 -0.5541
 1177TIP3    H127726   1.734   7.251   7.622 -1.5208  1.4105  1.0467
 1177TIP3    H227727   1.672   7.113   7.624 -0.4614  0.9007 -0.1667
 1178TIP3   OH227728   5.827   4.702   8.388 -0.2589  0.5728  0.0186
 1178TIP3    H127729   5.882   4.720   8.465 -1.8257  2.0976  0.8616
 1178TIP3    H227730   5.828   4.607   8.379 -0.1536  0.3366  2.0455
 1179TIP3   OH227731   7.572   4.378   8.249  0.6782  0.4276 -0.0616
 1179TIP3    H127732   7.537   4.424   8.173  1.2262 -0.9786 -1.2283
 1179TIP3    H227733   7.548   4.287   8.235 -1.9552  0.4714  3.0870
 1180TIP3   OH227734   7.040   0.405   6.690  0.1304  0.4560 -0.5895
 1180TIP3    H127735   7.125   0.438   6.719  0.2849 -0.7606  0.4266
 1180TIP3    H227736   7.048   0.310   6.698 -1.7899  0.3678  0.8632
 1181TIP3   OH227737   1.014   3.588   7.059  0.1671 -0.2940 -0.4420
 1181TIP3    H127738   1.045   3.497   7.062  0.1399 -0.3118 -0.6389
 1181TIP3    H227739   0.935   3.589   7.113 -1.5968 -1.0972 -2.8298
 1182TIP3   OH227740   6.264   0.962   7.108  0.2729  0.1837 -0.2419
 1182TIP3    H127741   6.238   1.023   7.177  0.6942  0.3159 -0.1930
 1182TIP3    H227742   6.185   0.949   7.056 -0.2780 -0.5551  0.7322
 1183TIP3   OH227743   3.989   5.141   9.121 -0.1616 -0.3399  0.4678
 1183TIP3    H127744   3.973   5.160   9.029 -0.6880 -1.2729  0.3577
 1183TIP3    H227745   3.957   5.218   9.168  2.0788  1.1193 -0.2364
 1184TIP3   OH227746   7.326   4.770   7.964 -0.5751  0.3625 -0.1641
 1184TIP3    H127747   7.415   4.739   7.982  0.0120  1.5998 -0.8390
 1184TIP3    H227748   7.314   4.844   8.024 -0.9683  0.4972 -0.4072
 1185TIP3   OH227749   4.724   7.659   7.988 -0.2219 -0.7127  0.2972
 1185TIP3    H127750   4.635   7.689   7.967  0.2004  0.0949 -0.4142
 1185TIP3    H227751   4.755   7.618   7.908  1.2513  2.0056 -0.6596
 1186TIP3   OH227752   0.007   1.162   7.812  0.4050  0.8432 -0.1372
 1186TIP3    H127753   0.017   1.085   7.756 -0.7284 -0.6776  1.6310
 1186TIP3    H227754   0.026   1.131   7.900 -3.4592  1.5646  1.1828
 1187TIP3   OH227755   7.598   3.443   8.823 -0.5642  0.3507 -0.2549
 1187TIP3    H127756   7.670   3.499   8.850  0.2149 -1.7408  2.3824
 1187TIP3    H227757   7.519   3.496   8.838  0.1162  0.7006  2.4854
 1188TIP3   OH227758   7.142   2.627   6.898  0.1569 -0.5379 -0.3263
 1188TIP3    H127759   7.142   2.575   6.818  1.0797  0.6377 -1.1197
 1188TIP3    H227760   7.230   2.616   6.934 -0.3534 -1.3475  0.7601
 1189TIP3   OH227761   4.351   6.164   8.066  0.1942 -0.4111  0.1180
 1189TIP3    H127762   4.361   6.147   8.159  1.6767 -1.6092 -0.2271
 1189TIP3    H227763   4.266   6.124   8.044  1.0335 -2.5164  0.4655
 1190TIP3   OH227764   4.239   6.993   8.051  0.0800 -0.0578 -0.3255
 1190TIP3    H127765   4.192   7.075   8.037 -1.6154 -1.0615 -0.8230
 1190TIP3    H227766   4.209   6.962   8.136 -0.7193 -1.0246 -0.9260
 1191TIP3   OH227767   3.458   2.983   8.900  0.2011 -0.1164 -0.0665
 1191TIP3    H127768   3.413   2.909   8.941 -0.3174  0.5082  0.5137
 1191TIP3    H227769   3.465   3.048   8.970  0.7866  0.3275 -0.5292
 1192TIP3   OH227770   2.984   0.982   9.753 -0.0839  0.0850 -0.7657
 1192TIP3    H127771   2.929   1.048   9.711 -1.5523  0.3086  1.3479
 1192TIP3    H227772   3.058   1.031   9.787 -1.0228  0.6606  0.5393
 1193TIP3   OH227773   1.636   4.095   7.169  0.9189  0.0311  0.0665
 1193TIP3    H127774   1.590   4.170   7.133 -0.0292  0.2785  1.6900
 1193TIP3    H227775   1.724   4.100   7.131  0.3802  0.9954 -1.1232
 1194TIP3   OH227776   2.159   7.562   9.202 -0.2447 -0.0210 -0.7188
 1194TIP3    H127777   2.219   7.491   9.225  0.2165  0.1516 -1.3758
 1194TIP3    H227778   2.133   7.544   9.112 -1.6872 -0.4400 -0.2564
 1195TIP3   OH227779   4.704   0.574   9.018 -0.6024 -0.6978 -0.2706
 1195TIP3    H127780   4.747   0.565   8.933 -0.8781  0.1684 -0.5082
 1195TIP3    H227781   4.738   0.501   9.070 -1.3503 -1.9764 -1.5110
 1196TIP3   OH227782   1.852   5.557   9.204  0.5576  0.3820 -0.7801
 1196TIP3    H127783   1.918   5.532   9.139  2.8220  1.8832  0.7861
 1196TIP3    H227784   1.893   5.628   9.254 -0.6777 -1.2439  2.8679
 1197TIP3   OH227785   3.892   6.503   9.020  0.1057  0.2155  0.4952
 1197TIP3    H127786   3.864   6.418   8.987  1.6023  0.3763 -1.3382
 1197TIP3    H227787   3.984   6.491   9.044  0.3107  1.2747  0.2860
 1198TIP3   OH227788   6.403   2.620   7.168  0.1655  0.6622 -0.5243
 1198TIP3    H127789   6.398   2.655   7.080 -1.8675 -0.2537 -0.8265
 1198TIP3    H227790   6.482   2.566   7.167 -0.6931 -0.6724 -2.3452
 1199TIP3   OH227791   2.924   1.279   8.893 -0.4478  0.3161  0.5781
 1199TIP3    H127792   2.869   1.202   8.879 -0.2094  0.1458  0.5815
 1199TIP3    H227793   3.013   1.248   8.877 -0.5072  1.0751 -1.4919
 1200TIP3   OH227794   5.899   2.082   8.937  0.0175 -0.3423  0.4560
 1200TIP3    H127795   5.821   2.033   8.910  0.2477 -0.7004  0.4351
 1200TIP3    H227796   5.864   2.161   8.978 -0.3588  1.2552 -2.6979
 1201TIP3   OH227797   5.185   2.045   8.738  0.1660 -0.6551  0.0334
 1201TIP3    H127798   5.256   2.106   8.720  0.2930 -0.2236  1.8005
 1201TIP3    H227799   5.141   2.033   8.654  1.0162  0.7360 -0.6383
 1202TIP3   OH227800   4.654   5.827   9.718  0.2038  0.2576 -0.6535
 1202TIP3    H127801   4.682   5.901   9.664  2.0399  0.1786  0.1068
 1202TIP3    H227802   4.612   5.767   9.657 -0.0279  1.2850 -1.5304
 1203TIP3   OH227803   1.451   0.947   8.065 -0.0096 -0.6812 -0.3757
 1203TIP3    H127804   1.358   0.959   8.044 -0.4929 -0.4238  1.6620
 1203TIP3    H227805   1.498   0.979   7.988 -1.6076 -1.1310 -1.5898
 1204TIP3   OH227806   5.816   6.638   7.208  0.8782 -0.1074  0.3549
 1204TIP3    H127807   5.774   6.575   7.150  0.4357 -0.6288  1.2180
 1204TIP3    H227808   5.895   6.665   7.161  0.3584 -0.2625 -0.6264
 1205TIP3   OH227809   0.151   1.962   8.352 -0.3192 -0.0282  0.5671
 1205TIP3    H127810   0.150   2.050   8.390  0.2208 -0.7522  2.3699
 1205TIP3    H227811   0.238   1.954   8.313 -0.4970  0.3401  0.0746
 1206TIP3   OH227812   5.567   5.630   8.307 -0.2674 -0.0162  0.0003
 1206TIP3    H127813   5.529   5.547   8.279  0.4061 -0.0641 -0.8049
 1206TIP3    H227814   5.551   5.633   8.402  1.0493 -1.8006  0.3247
 1207TIP3   OH227815   0.950   3.389   8.962 -0.6572  0.2216  0.4676
 1207TIP3    H127816   0.894   3.465   8.952 -0.9925 -0.1114 -0.2254
 1207TIP3    H227817   0.890   3.318   8.987 -0.6579 -0.2764 -0.8517
 1208TIP3   OH227818   2.462   2.753   7.603  0.8691  0.2121  0.0368
 1208TIP3    H127819   2.439   2.787   7.516 -1.8288  1.5143  1.1316
 1208TIP3    H227820   2.390   2.783   7.659  0.2657 -4.1105  1.9311
 1209TIP3   OH227821   2.558   1.830   7.387 -0.3643  0.1715 -0.0909
 1209TIP3    H127822   2.574   1.896   7.319 -0.2907 -0.9176 -1.1708
 1209TIP3    H227823   2.592   1.749   7.349 -0.6637 -0.5364  1.1163
 1210TIP3   OH227824   6.660   3.143   7.851 -0.4942  0.2602 -0.1064
 1210TIP3    H127825   6.630   3.224   7.810 -3.0362 -0.8189 -0.5867
 1210TIP3    H227826   6.594   3.078   7.825  1.6863 -2.0900 -0.1563
 1211TIP3   OH227827   0.903   7.085   7.801  0.4043 -0.5009 -0.4986
 1211TIP3    H127828   0.964   7.018   7.833 -0.0372  0.4336  2.7007
 1211TIP3    H227829   0.940   7.167   7.832 -1.5231  0.2546 -0.0779
 1212TIP3   OH227830   1.955   5.648   7.276 -0.1173 -0.4057 -0.5797
 1212TIP3    H127831   1.988   5.676   7.190  1.3880 -0.4371 -0.0328
 1212TIP3    H227832   2.028   5.663   7.336 -1.4089  0.3768  0.8697
 1213TIP3   OH227833   1.235   0.067   7.755 -0.0047  0.2827 -0.3411
 1213TIP3    H127834   1.312   0.068   7.699  0.2291 -1.2179 -0.0804
 1213TIP3    H227835   1.167   0.110   7.703  0.7015  0.6226 -1.0058
 1214TIP3   OH227836   1.846   4.798   9.406  0.4138 -0.0055 -0.6453
 1214TIP3    H127837   1.876   4.768   9.491  0.2441  2.6204  0.4339
 1214TIP3    H227838   1.769   4.743   9.386  1.1776 -1.4681  0.2612
 1215TIP3   OH227839   3.451   0.513   9.006 -0.0785 -0.3019  0.2926
 1215TIP3    H127840   3.505   0.541   8.933  0.7861  0.0775  1.0607
 1215TIP3    H227841   3.508   0.456   9.058 -0.1096  0.7624  1.5634
 1216TIP3   OH227842   1.299   6.751   8.705  0.2683  0.0761 -0.7336
 1216TIP3    H127843   1.373   6.689   8.709 -0.3744 -0.6575  0.3130
 1216TIP3    H227844   1.235   6.708   8.648  0.0307  0.0198 -0.4236
 1217TIP3   OH227845   3.437   5.634   8.171  0.0383  0.1518 -0.3737
 1217TIP3    H127846   3.523   5.624   8.131  0.5975  0.4567  0.7015
 1217TIP3    H227847   3.405   5.545   8.184  0.4113  0.0256 -0.3269
 1218TIP3   OH227848   5.713   6.432   6.989  0.1898  0.1479 -0.1307
 1218TIP3    H127849   5.635   6.393   6.949  0.0979 -0.0574  0.2414
 1218TIP3    H227850   5.781   6.366   6.977  0.1445  0.0578  0.1157
 1219TIP3   OH227851   5.330   6.124   7.450  0.3773 -0.0710  0.3461
 1219TIP3    H127852   5.396   6.130   7.519  0.9735 -1.4423 -0.0665
 1219TIP3    H227853   5.278   6.047   7.473 -0.6789  0.6109  0.3058
 1220TIP3   OH227854   6.399   4.926   9.239 -0.4247 -0.6917 -0.5797
 1220TIP3    H127855   6.369   4.979   9.166  0.2981 -0.1650 -0.5158
 1220TIP3    H227856   6.320   4.897   9.284 -0.8396 -0.0972 -0.9297
 1221TIP3   OH227857   6.088   3.282   7.199  0.4628 -0.1222  0.7495
 1221TIP3    H127858   6.159   3.343   7.182  1.0079 -0.8521  0.3746
 1221TIP3    H227859   6.120   3.226   7.270  0.1306 -0.2512  0.8036
 1222TIP3   OH227860   6.842   7.027   6.991 -0.0393 -0.0066  0.0253
 1222TIP3    H127861   6.912   7.077   6.949 -0.1369  0.1308  0.0255
 1222TIP3    H227862   6.762   7.062   6.953 -0.0556 -1.1590 -1.0520
 1223TIP3   OH227863   3.813   6.671   7.122 -0.2081 -0.2277 -0.7131
 1223TIP3    H127864   3.766   6.643   7.044 -0.3263  0.3828 -0.8654
 1223TIP3    H227865   3.819   6.766   7.114  1.0080 -0.2825 -0.6719
 1224TIP3   OH227866   5.128   2.567   9.330  0.0814 -0.0347 -0.1231
 1224TIP3    H127867   5.113   2.596   9.420  3.1410 -0.3341  0.5852
 1224TIP3    H227868   5.119   2.647   9.278 -1.2425  0.2280  0.4554
 1225TIP3   OH227869   5.927   2.094   7.333 -0.1199 -0.4116  0.2288
 1225TIP3    H127870   5.918   2.190   7.332 -2.2719 -0.4533  2.7713
 1225TIP3    H227871   5.842   2.062   7.306  0.4287 -1.6314 -0.1021
 1226TIP3   OH227872   7.231   2.598   8.517  0.3651  0.1865  0.3654
 1226TIP3    H127873   7.313   2.638   8.545 -0.2980  1.7041  0.2066
 1226TIP3    H227874   7.251   2.560   8.431  1.5684 -1.7947  1.4196
 1227TIP3   OH227875   6.351   5.744   9.028  0.1090 -0.0026 -0.2841
 1227TIP3    H127876   6.296   5.814   8.993 -0.3038  0.4201  1.1518
 1227TIP3    H227877   6.425   5.740   8.967 -1.5062 -0.6736 -2.3457
 1228TIP3   OH227878   3.086   2.720   6.601  0.1917  0.3281 -0.4728
 1228TIP3    H127879   3.031   2.741   6.525  0.5823  1.4176 -0.4659
 1228TIP3    H227880   3.067   2.789   6.665  2.3864  1.4249 -0.9123
 1229TIP3   OH227881   4.392   0.061   7.958  0.1893 -0.5898  0.6013
 1229TIP3    H127882   4.407   0.133   8.019  0.3743 -1.1259  1.1919
 1229TIP3    H227883   4.298   0.045   7.963 -0.3374  1.2990 -1.4568
 1230TIP3   OH227884   6.277   7.286   7.518 -0.1572 -0.5518 -0.2490
 1230TIP3    H127885   6.257   7.325   7.433  1.0013  0.8510  0.0772
 1230TIP3    H227886   6.310   7.199   7.497 -0.6555 -0.5368 -1.1716
 1231TIP3   OH227887   1.223   1.393   8.449  0.5757 -0.2291  0.2550
 1231TIP3    H127888   1.194   1.427   8.534  0.4580 -1.0916  0.5742
 1231TIP3    H227889   1.195   1.459   8.386  0.8698  0.5390  0.9056
 1232TIP3   OH227890   1.002   4.202   9.191  0.1378  0.4468  0.5124
 1232TIP3    H127891   0.972   4.288   9.162 -0.8920  0.4100  1.4187
 1232TIP3    H227892   1.095   4.213   9.208  0.4739  0.8312 -1.3662
 1233TIP3   OH227893   4.766   5.571   8.211 -0.7325  0.7107 -0.3453
 1233TIP3    H127894   4.692   5.632   8.216 -1.2299  0.1140 -0.3829
 1233TIP3    H227895   4.739   5.506   8.147  0.1897  0.9681 -1.0301
 1234TIP3   OH227896   7.153   1.569   8.802  0.3828 -0.2652 -0.0514
 1234TIP3    H127897   7.131   1.662   8.796 -0.6028 -0.5186 -0.4313
 1234TIP3    H227898   7.098   1.536   8.872 -1.2191 -1.1093 -1.6489
 1235TIP3   OH227899   0.767   6.971   8.642 -0.3268 -0.7068 -0.2405
 1235TIP3    H127900   0.850   6.996   8.602 -1.2347  0.7210 -1.3050
 1235TIP3    H227901   0.748   6.884   8.607  1.7099 -2.0254  1.6658
 1236TIP3   OH227902   1.281   2.822   7.560 -0.3990 -0.4017 -0.1776
 1236TIP3    H127903   1.288   2.796   7.652  2.3253 -1.9437 -0.6947
 1236TIP3    H227904   1.198   2.784   7.531 -1.4744  0.3857  1.6552
 1237TIP3   OH227905   7.222   0.481   8.208  0.1913  0.2113  0.0129
 1237TIP3    H127906   7.278   0.479   8.130 -1.1685  0.7340 -1.0278
 1237TIP3    H227907   7.177   0.565   8.203  0.2119  0.3381  1.4856
 1238TIP3   OH227908   2.611   3.335   6.721  0.0393  1.0307 -0.0702
 1238TIP3    H127909   2.632   3.243   6.711  1.2246  1.3078 -0.2506
 1238TIP3    H227910   2.593   3.347   6.814 -0.2140  0.6092 -0.0644
 1239TIP3   OH227911   6.578   1.971   8.561 -0.4388  0.3480  0.4882
 1239TIP3    H127912   6.618   2.037   8.618 -1.1598  0.3095  1.0482
 1239TIP3    H227913   6.618   1.986   8.476  1.4041 -0.2119  1.1970
 1240TIP3   OH227914   2.750   3.561   6.913 -0.7160  0.7283 -0.2811
 1240TIP3    H127915   2.690   3.496   6.950 -0.6474  0.7489 -0.1342
 1240TIP3    H227916   2.695   3.614   6.856 -0.5631 -0.1534 -1.2803
 1241TIP3   OH227917   2.342   6.125   8.032  0.7009 -0.0040  0.1902
 1241TIP3    H127918   2.391   6.087   7.960  2.2900  1.4767  0.4117
 1241TIP3    H227919   2.382   6.211   8.045 -0.3257  0.2480  2.0573
 1242TIP3   OH227920   6.133   1.775   8.863  0.5502  0.8335 -0.3007
 1242TIP3    H127921   6.169   1.863   8.855  1.0221  0.9777  2.6339
 1242TIP3    H227922   6.181   1.724   8.798  3.0062  1.9653  0.5206
 1243TIP3   OH227923   0.514   6.042   8.855 -0.1258 -0.1862 -0.0194
 1243TIP3    H127924   0.577   6.035   8.927 -0.6644 -1.1757  0.3788
 1243TIP3    H227925   0.558   6.002   8.780 -0.1597 -0.6125  0.1834
 1244TIP3   OH227926   4.388   6.626   8.271  0.2661 -0.5148 -0.1709
 1244TIP3    H127927   4.331   6.634   8.194 -2.4180  1.3112  1.8126
 1244TIP3    H227928   4.341   6.565   8.328  0.2878  0.9623  1.4875
 1245TIP3   OH227929   6.237   7.001   8.146  0.0493  0.4598  0.0811
 1245TIP3    H127930   6.189   7.062   8.090  0.3236 -1.9729 -3.1356
 1245TIP3    H227931   6.326   7.037   8.150 -0.1378  1.0141 -0.5170
 1246TIP3   OH227932   2.587   1.646   9.379 -0.1640 -0.3490 -0.3488
 1246TIP3    H127933   2.641   1.567   9.381 -0.5874 -0.6247  0.3285
 1246TIP3    H227934   2.545   1.650   9.465 -0.4933  0.3737 -0.5293
 1247TIP3   OH227935   6.763   5.090   7.637 -0.1342  0.1163  0.3400
 1247TIP3    H127936   6.758   5.156   7.705  0.8864 -0.4659  1.0150
 1247TIP3    H227937   6.675   5.086   7.600 -0.5422  0.8837  1.1986
 1248TIP3   OH227938   6.361   1.673   7.964  0.3778  0.1178  0.4192
 1248TIP3    H127939   6.268   1.651   7.966  0.3568  0.1471 -0.2875
 1248TIP3    H227940   6.394   1.644   8.049 -0.6187  1.6561  1.3924
 1249TIP3   OH227941   6.492   5.709   7.819 -0.2842  0.6450 -0.0652
 1249TIP3    H127942   6.439   5.662   7.754 -0.4736 -0.8936  1.1621
 1249TIP3    H227943   6.569   5.739   7.769  0.0466 -1.3278 -0.8377
 1250TIP3   OH227944   2.024   1.184   7.968 -0.5829 -0.2439  0.1144
 1250TIP3    H127945   1.970   1.251   7.926 -2.0133 -1.4350 -0.0083
 1250TIP3    H227946   2.111   1.224   7.973 -0.9347  0.8665 -1.7141
 1251TIP3   OH227947   2.893   7.544   8.915 -0.4100  0.7033  0.3475
 1251TIP3    H127948   2.966   7.486   8.892 -1.4284 -0.3764 -0.2911
 1251TIP3    H227949   2.893   7.545   9.010  0.9074  1.3470  0.3685
 1252TIP3   OH227950   0.622   5.053   8.634 -0.0337 -0.0291  0.0305
 1252TIP3    H127951   0.589   4.964   8.621  1.4538 -0.3766 -1.8748
 1252TIP3    H227952   0.562   5.108   8.583  1.1931 -0.4572 -1.9982
 1253TIP3   OH227953   0.165   4.809   7.633 -0.1921 -0.1354 -0.1677
 1253TIP3    H127954   0.131   4.862   7.704 -0.4533  0.7535 -0.9393
 1253TIP3    H227955   0.256   4.793   7.656 -0.3556 -0.1047  0.5062
 1254TIP3   OH227956   2.215   3.317   7.853 -0.4139  0.2255  0.0384
 1254TIP3    H127957   2.231   3.386   7.916  0.0633 -0.1784  0.3731
 1254TIP3    H227958   2.234   3.356   7.768 -0.3024  0.5490  0.2136
 1255TIP3   OH227959   3.858   7.419   8.594  0.1664  0.1750  0.0918
 1255TIP3    H127960   3.777   7.443   8.548  0.2564  0.3684  0.0288
 1255TIP3    H227961   3.885   7.336   8.555  1.7780  1.6745 -2.2940
 1256TIP3   OH227962   5.819   2.888   9.075  0.1296 -0.9785  0.3853
 1256TIP3    H127963   5.914   2.893   9.089  0.3064  1.3718 -1.1487
 1256TIP3    H227964   5.795   2.975   9.045 -2.3151 -1.9450 -0.6679
 1257TIP3   OH227965   4.334   2.644   7.582 -0.2629 -0.4545 -0.5106
 1257TIP3    H127966   4.297   2.557   7.565 -0.0891 -0.4130 -1.1462
 1257TIP3    H227967   4.416   2.645   7.531  0.7777 -0.6552  1.0755
 1258TIP3   OH227968   0.139   5.085   8.351 -0.0672 -0.2783 -0.2569
 1258TIP3    H127969   0.045   5.104   8.360 -0.1331 -1.2560  1.8385
 1258TIP3    H227970   0.182   5.145   8.412  0.9055  1.4062 -2.4986
 1259TIP3   OH227971   4.263   6.248   9.326  0.5534  0.3943  0.3283
 1259TIP3    H127972   4.179   6.291   9.339  0.6418  0.6873 -0.0564
 1259TIP3    H227973   4.241   6.160   9.294  0.3584 -0.0365  1.6000
 1260TIP3   OH227974   3.802   5.907   8.489 -0.5400 -0.5525 -0.3193
 1260TIP3    H127975   3.724   5.950   8.524  0.7598  1.4751  0.2867
 1260TIP3    H227976   3.808   5.824   8.535 -1.8154 -0.3134  0.3010
 1261TIP3   OH227977   2.561   0.541   8.354 -0.4240 -0.2328 -0.1173
 1261TIP3    H127978   2.606   0.500   8.281 -0.2881  0.1983 -0.2760
 1261TIP3    H227979   2.479   0.575   8.316  0.7092  2.1356 -0.6367
 1262TIP3   OH227980   4.292   7.525   9.523  0.2398 -0.2088  0.0302
 1262TIP3    H127981   4.287   7.541   9.428  0.3025 -0.4095 -0.0075
 1262TIP3    H227982   4.246   7.599   9.562  0.1272 -0.1760 -0.1636
 1263TIP3   OH227983   6.673   1.947   6.894  0.6244 -0.0559 -0.3037
 1263TIP3    H127984   6.613   1.882   6.858  0.4687 -1.2171  1.9451
 1263TIP3    H227985   6.758   1.927   6.853  0.1418 -0.2738 -1.2343
 1264TIP3   OH227986   0.007   5.198   9.343  0.5146  0.3656  0.2872
 1264TIP3    H127987   0.081   5.251   9.372  1.1907 -1.0367  1.1711
 1264TIP3    H227988  -0.058   5.263   9.315  1.9862  1.6237 -0.3521
 1265TIP3   OH227989   3.753   5.054   7.815  0.2168  0.2284  0.2077
 1265TIP3    H127990   3.717   5.142   7.817 -0.5967 -0.0574 -0.9035
 1265TIP3    H227991   3.847   5.067   7.824 -0.0103  1.0642  1.9507
 1266TIP3   OH227992   4.096   5.197   7.198  0.3000 -0.4871  0.2487
 1266TIP3    H127993   4.037   5.121   7.200  2.7816 -2.5569  1.2307
 1266TIP3    H227994   4.042   5.270   7.228 -2.0238 -1.9915 -0.0168
 1267TIP3   OH227995   5.687   0.494   9.027  0.2845  0.1510  0.4301
 1267TIP3    H127996   5.714   0.586   9.023 -3.2209  1.3982  1.4049
 1267TIP3    H227997   5.724   0.461   9.109 -1.2872  1.8758  1.9240
 1268TIP3   OH227998   5.726   4.202   9.110  0.1488  0.1371 -0.4618
 1268TIP3    H127999   5.689   4.237   9.191  1.2725  0.7274 -0.1761
 1268TIP3    H228000   5.821   4.207   9.124  0.3731  0.9186 -2.0841
 1269TIP3   OH228001   4.390   7.460   7.604  0.1396  0.2872 -0.2432
 1269TIP3    H128002   4.446   7.536   7.591 -0.3602  1.3558  3.0088
 1269TIP3    H228003   4.305   7.486   7.567  0.1472  1.0626  0.2718
 1270TIP3   OH228004   0.029   7.209   6.825 -0.6192  0.0753  0.3849
 1270TIP3    H128005  -0.014   7.136   6.870 -2.2703  1.6278  1.4769
 1270TIP3    H228006   0.119   7.179   6.812 -1.7965 -3.1185 -1.5054
 1271TIP3   OH228007   1.326   3.983   9.135 -0.5166 -0.2805  0.4566
 1271TIP3    H128008   1.350   3.980   9.043  0.3462 -1.5615  0.6895
 1271TIP3    H228009   1.299   4.073   9.150  2.1213  0.7458 -0.3754
 1272TIP3   OH228010   2.712   4.655   7.374  0.0770  0.2885  0.0514
 1272TIP3    H128011   2.729   4.574   7.327  0.9292 -0.4838  1.6120
 1272TIP3    H228012   2.775   4.718   7.339  0.3838 -0.1388 -0.1661
 1273TIP3   OH228013   6.408   5.473   8.660  0.9295  0.0880 -0.2302
 1273TIP3    H128014   6.339   5.491   8.597 -0.0218 -2.5817 -0.0835
 1273TIP3    H228015   6.489   5.477   8.608  0.6150  2.0403 -0.6547
 1274TIP3   OH228016   4.980   1.248   9.256  0.3418  0.3340 -0.6161
 1274TIP3    H128017   5.070   1.247   9.287  0.5115 -0.2821 -1.1002
 1274TIP3    H228018   4.979   1.185   9.184 -0.7117 -0.4071  0.0263
 1275TIP3   OH228019   7.536   2.327   7.750 -0.3158  0.4000 -0.1034
 1275TIP3    H128020   7.595   2.401   7.736 -0.9865  0.8554 -0.5905
 1275TIP3    H228021   7.463   2.364   7.799 -0.1363 -0.1908  0.6244
 1276TIP3   OH228022   3.981   1.188   8.081 -0.5592  0.3058  0.0568
 1276TIP3    H128023   3.960   1.225   8.166  0.5415  1.1180  0.0150
 1276TIP3    H228024   3.900   1.149   8.050 -0.7341 -0.8941  1.8945
 1277TIP3   OH228025   5.635   1.753   7.892 -0.1501  0.1681 -0.5890
 1277TIP3    H128026   5.635   1.828   7.832 -0.1064  2.4528  2.0385
 1277TIP3    H228027   5.560   1.700   7.865 -1.5368  2.3331 -1.3112
 1278TIP3   OH228028   2.585   6.377   8.518  0.1523  0.6254 -0.4661
 1278TIP3    H128029   2.551   6.439   8.454  0.0170  1.3907  0.3153
 1278TIP3    H228030   2.662   6.339   8.476 -1.1807 -0.5605 -1.9481
 1279TIP3   OH228031   6.953   0.097   7.607 -0.4073 -0.0181 -0.4011
 1279TIP3    H128032   6.913   0.160   7.667 -0.3880 -1.7215  1.5133
 1279TIP3    H228033   7.046   0.102   7.625 -0.3319 -0.0903 -0.7594
 1280TIP3   OH228034   6.522   0.064   7.723  0.4728  0.1688  0.2823
 1280TIP3    H128035   6.572   0.074   7.642  0.2557 -1.6133 -0.1228
 1280TIP3    H228036   6.462  -0.009   7.705  0.4265 -0.2751  2.0402
 1281TIP3   OH228037   1.703   3.552   8.771 -0.5821 -0.1676 -0.0495
 1281TIP3    H128038   1.682   3.551   8.864 -0.5401  0.2408 -0.0361
 1281TIP3    H228039   1.779   3.494   8.763  0.1667  0.7315  0.3544
 1282TIP3   OH228040   5.729   2.347   8.180 -0.5602  0.2684  0.3889
 1282TIP3    H128041   5.761   2.315   8.264  1.0044  2.0949  0.5653
 1282TIP3    H228042   5.637   2.371   8.196 -0.2106  0.8407  1.6755
 1283TIP3   OH228043   0.201   4.886   8.149  0.0079 -0.0157  0.5582
 1283TIP3    H128044   0.184   4.978   8.169 -0.8301  0.2379 -1.1871
 1283TIP3    H228045   0.154   4.869   8.067  2.2364 -1.2909 -0.5722
 1284TIP3   OH228046   1.208   4.573   6.275  0.0832 -0.2960 -0.5100
 1284TIP3    H128047   1.260   4.612   6.346 -0.2056  0.1356 -0.5339
 1284TIP3    H228048   1.128   4.625   6.271 -1.4303 -2.3153  1.0386
 1285TIP3   OH228049   1.450   1.839   9.280  0.2848  0.3780 -0.1478
 1285TIP3    H128050   1.524   1.836   9.220  1.2378  0.9115  0.9407
 1285TIP3    H228051   1.398   1.914   9.252  0.2399  0.0892 -0.8333
 1286TIP3   OH228052   2.010   1.412   7.526 -0.2072  0.1657 -0.0146
 1286TIP3    H128053   2.016   1.484   7.463  0.8100  0.4679  0.4112
 1286TIP3    H228054   2.061   1.341   7.486 -1.3110 -0.3847 -0.4926
 1287TIP3   OH228055   7.166   1.404   7.797  0.7784 -0.0299 -0.2722
 1287TIP3    H128056   7.229   1.346   7.840  0.1608 -0.1683  0.4850
 1287TIP3    H228057   7.086   1.352   7.791  0.7084  0.1735 -1.1362
 1288TIP3   OH228058   5.897   3.850   6.616 -0.4727 -0.4312 -0.4718
 1288TIP3    H128059   5.982   3.835   6.576 -0.0887 -1.9385  0.8436
 1288TIP3    H228060   5.900   3.941   6.647 -0.1756  0.2225 -2.3102
 1289TIP3   OH228061   2.343   0.940   7.184  0.1627  0.1245 -0.1404
 1289TIP3    H128062   2.303   0.976   7.263 -0.6270  0.9660 -0.8984
 1289TIP3    H228063   2.290   0.863   7.163  0.5570 -0.2694  0.3194
 1290TIP3   OH228064   6.076   5.136   9.241  0.3861 -0.3556 -0.3536
 1290TIP3    H128065   6.145   5.168   9.298  1.1458 -0.0300 -1.4310
 1290TIP3    H228066   6.027   5.215   9.216 -0.1063 -0.5288  0.0551
 1291TIP3   OH228067   5.484   3.709   7.584 -0.2259 -0.2129 -0.2636
 1291TIP3    H128068   5.539   3.750   7.517 -0.3597 -2.2695 -1.7195
 1291TIP3    H228069   5.408   3.766   7.592  1.0274  1.4673  0.1174
 1292TIP3   OH228070   2.322   2.169   8.831  0.5099  0.0426 -0.1224
 1292TIP3    H128071   2.273   2.089   8.812 -0.5216  0.1871  1.6888
 1292TIP3    H228072   2.282   2.236   8.775 -0.2342 -0.2216  0.0811
 1293TIP3   OH228073   3.379   5.634   8.510 -0.1420 -0.5027 -0.2280
 1293TIP3    H128074   3.324   5.656   8.585 -0.3225 -0.6864 -0.3073
 1293TIP3    H228075   3.385   5.716   8.460  1.5314  0.1617  0.9677
 1294TIP3   OH228076   3.721   0.171   8.762 -0.5563  0.1887  0.6828
 1294TIP3    H128077   3.710   0.238   8.829  2.8458  0.3922  1.2187
 1294TIP3    H228078   3.804   0.193   8.719 -0.7275 -2.0886 -1.0547
 1295TIP3   OH228079   1.004   2.216   7.962  0.7522  0.2181  0.2950
 1295TIP3    H128080   0.928   2.269   7.987 -1.7715 -2.3205 -1.4433
 1295TIP3    H228081   1.033   2.176   8.044 -0.6714  0.1793  0.8017
 1296TIP3   OH228082   2.213   2.667   9.164 -0.6101 -0.1999  0.5250
 1296TIP3    H128083   2.211   2.642   9.072  0.4911 -0.0076  0.4405
 1296TIP3    H228084   2.255   2.593   9.208 -0.8789 -0.1686  0.8458
 1297TIP3   OH228085   0.883   1.787   8.112 -0.2261 -0.1262  0.4035
 1297TIP3    H128086   0.824   1.712   8.105 -0.4923  0.2069 -1.2196
 1297TIP3    H228087   0.838   1.858   8.066  1.0852  0.3446 -0.2119
 1298TIP3   OH228088   2.106   3.879   6.930  0.4439  0.0035  0.0524
 1298TIP3    H128089   2.197   3.905   6.943  1.4461 -2.6295 -1.0385
 1298TIP3    H228090   2.075   3.932   6.857  0.9792  1.1403  0.6378
 1299TIP3   OH228091   5.186   2.726   6.627  0.5483  0.6725  0.3198
 1299TIP3    H128092   5.094   2.732   6.604  0.0283  0.4540  2.1613
 1299TIP3    H228093   5.210   2.635   6.609  0.1643  0.5061  0.6334
 1300TIP3   OH228094   5.440   6.016   9.169 -0.6688 -0.0828  0.1636
 1300TIP3    H128095   5.376   6.061   9.114 -0.1251  1.0290  0.4293
 1300TIP3    H228096   5.472   5.944   9.115  0.5101  1.4926 -1.3343
 1301TIP3   OH228097   4.979   5.234   7.712 -0.2897  0.2960 -0.1250
 1301TIP3    H128098   5.046   5.165   7.715 -0.6287 -0.0048  1.5261
 1301TIP3    H228099   5.022   5.310   7.753 -0.1515  0.8880 -1.3139
 1302TIP3   OH228100   5.268   6.400   7.549 -0.6488 -0.0492 -1.2378
 1302TIP3    H128101   5.347   6.452   7.534  0.7988 -2.1966 -1.5782
 1302TIP3    H228102   5.282   6.321   7.497 -1.9703 -1.4917  0.4738
 1303TIP3   OH228103   6.754   4.034   8.542 -0.1097  0.3223  0.1984
 1303TIP3    H128104   6.664   4.004   8.536  0.5426 -1.9262  0.4421
 1303TIP3    H228105   6.784   4.040   8.451  0.4140 -2.2614  0.1160
 1304TIP3   OH228106   1.423   5.343   8.109  0.4744 -0.3176  0.1822
 1304TIP3    H128107   1.410   5.387   8.025 -0.6491 -0.4831  0.2502
 1304TIP3    H228108   1.443   5.415   8.170 -1.8180  0.2347  0.3877
 1305TIP3   OH228109   3.675   6.715   8.057  0.7264  0.4643  0.3099
 1305TIP3    H128110   3.769   6.725   8.043  0.9994  0.3342  1.9059
 1305TIP3    H228111   3.667   6.662   8.136 -0.7075 -0.9345 -0.7049
 1306TIP3   OH228112   0.364   6.088   8.505 -0.2224  0.2545 -0.1491
 1306TIP3    H128113   0.338   6.008   8.552  0.7436 -0.0763 -0.1689
 1306TIP3    H228114   0.306   6.090   8.429  0.7537 -1.2622 -0.9698
 1307TIP3   OH228115   7.339   3.076   7.923 -0.4348  0.1408  0.3538
 1307TIP3    H128116   7.358   3.055   8.014 -0.4916  1.4074  0.6737
 1307TIP3    H228117   7.244   3.074   7.917 -0.4657  0.7350  0.5128
 1308TIP3   OH228118   7.253   3.731   9.266 -0.3971 -0.3290  1.0393
 1308TIP3    H128119   7.231   3.644   9.299  1.2067 -0.5135  1.7508
 1308TIP3    H228120   7.253   3.787   9.344  1.0760 -0.2561  1.0148
 1309TIP3   OH228121   2.653   2.767   8.495 -0.0486 -0.0975  0.8684
 1309TIP3    H128122   2.560   2.748   8.482  0.6096 -2.6088 -1.0964
 1309TIP3    H228123   2.668   2.849   8.449 -0.7769 -1.2535 -1.6094
 1310TIP3   OH228124   7.348   2.182   6.200  0.0341 -0.1991 -0.0587
 1310TIP3    H128125   7.363   2.234   6.121  1.2114 -0.6539 -0.1572
 1310TIP3    H228126   7.373   2.240   6.272 -1.6497  0.4389  0.0423
 1311TIP3   OH228127   5.562   5.704   7.277 -0.3917  0.4108 -0.2474
 1311TIP3    H128128   5.636   5.732   7.330  0.0197  0.1290 -0.6674
 1311TIP3    H228129   5.511   5.784   7.264 -0.2127  0.5878  0.1209
 1312TIP3   OH228130   0.137   4.500   6.881 -0.4731  0.0593  0.6051
 1312TIP3    H128131   0.056   4.539   6.849  0.5605  0.5750 -1.5861
 1312TIP3    H228132   0.134   4.410   6.847 -0.1875  0.0459  0.6169
 1313TIP3   OH228133   3.964   2.265   8.690 -0.0451 -0.4924 -0.0411
 1313TIP3    H128134   4.025   2.307   8.751 -0.5346 -1.4593  1.1421
 1313TIP3    H228135   4.009   2.269   8.606  0.6656  0.8294  0.3664
 1314TIP3   OH228136   4.513   3.413   8.170 -0.0774  0.1511 -0.0904
 1314TIP3    H128137   4.495   3.323   8.200 -1.6648  0.6307  0.5025
 1314TIP3    H228138   4.559   3.454   8.243  0.9797 -0.2772 -0.5067
 1315TIP3   OH228139   2.055   6.865   7.561 -0.5136  0.4382  0.2644
 1315TIP3    H128140   2.010   6.915   7.493 -0.5484  0.2371  0.1395
 1315TIP3    H228141   2.096   6.932   7.616  2.0443  0.5727 -1.6376
 1316TIP3   OH228142   7.292   2.822   8.193 -0.4955  0.0870 -0.8454
 1316TIP3    H128143   7.278   2.797   8.102  0.2740 -1.3451 -0.6112
 1316TIP3    H228144   7.361   2.888   8.190  0.1149 -0.5555 -1.2665
 1317TIP3   OH228145   7.444   6.656   9.088  0.0679 -0.2155  0.0946
 1317TIP3    H128146   7.520   6.714   9.079 -0.0677 -0.1789 -0.8654
 1317TIP3    H228147   7.380   6.710   9.135  0.2551  0.1190 -0.0252
 1318TIP3   OH228148   3.127   4.475   7.801  0.0773 -0.1013 -0.3783
 1318TIP3    H128149   3.157   4.540   7.864 -0.0881 -0.8164  0.4600
 1318TIP3    H228150   3.208   4.438   7.765  0.1759  0.9013 -1.2428
 1319TIP3   OH228151   4.168   6.998   8.613  0.1286  0.4067  0.1016
 1319TIP3    H128152   4.240   7.043   8.567 -0.1282 -0.0117 -0.7367
 1319TIP3    H228153   4.089   7.042   8.581 -0.0280  0.4144  0.5007
 1320TIP3   OH228154   4.265   0.395   9.188  0.0562 -0.7341 -0.7554
 1320TIP3    H128155   4.305   0.309   9.174  0.8554 -0.3545 -0.8688
 1320TIP3    H228156   4.339   0.453   9.207 -0.3007  0.2520 -2.2359
 1321TIP3   OH228157   2.664   7.483   8.671  0.3152 -0.7713  0.0854
 1321TIP3    H128158   2.604   7.479   8.597 -1.4191 -0.5687  1.4052
 1321TIP3    H228159   2.649   7.570   8.709  1.6139 -0.6357  0.3191
 1322TIP3   OH228160   1.105   3.742   7.980 -0.3904  0.7839  0.0070
 1322TIP3    H128161   1.184   3.791   8.003 -1.0106  1.0804  1.6462
 1322TIP3    H228162   1.033   3.796   8.012 -1.2329  0.1673 -0.7942
 1323TIP3   OH228163   1.963   5.900   7.600 -0.5990 -0.6969 -0.2573
 1323TIP3    H128164   1.874   5.865   7.594 -0.3042 -1.2331 -2.1896
 1323TIP3    H228165   2.019   5.824   7.612 -0.2895 -0.5256 -0.5703
 1324TIP3   OH228166   2.244   5.717   8.155 -0.0795 -0.1951 -0.4933
 1324TIP3    H128167   2.176   5.746   8.094 -0.9372  2.0247  1.3663
 1324TIP3    H228168   2.299   5.794   8.167 -0.5247 -0.2068  2.2223
 1325TIP3   OH228169   6.594   2.531   7.703  0.3818 -0.1365 -0.2464
 1325TIP3    H128170   6.615   2.579   7.623 -1.2487 -0.3157 -0.8090
 1325TIP3    H228171   6.590   2.599   7.771 -1.7100  0.5552 -0.9950
 1326TIP3   OH228172   4.878   4.795   8.525 -0.2819 -0.4807  0.5104
 1326TIP3    H128173   4.846   4.866   8.581 -1.2877 -0.4849 -0.0194
 1326TIP3    H228174   4.970   4.814   8.511 -0.4852  0.6041  0.5673
 1327TIP3   OH228175   1.342   2.085   9.179 -0.0154 -0.0987  0.1900
 1327TIP3    H128176   1.251   2.111   9.196  0.3524  3.4058 -2.1499
 1327TIP3    H228177   1.390   2.115   9.257 -0.5717  0.1953  0.4273
 1328TIP3   OH228178   7.624   3.612   8.035 -0.3456  0.2006 -0.8832
 1328TIP3    H128179   7.659   3.523   8.027  1.0414  0.8558 -3.1765
 1328TIP3    H228180   7.630   3.632   8.128  0.3537 -1.7176 -0.4717
 1329TIP3   OH228181   6.982   4.396   8.887 -0.1601 -0.6798 -0.2311
 1329TIP3    H128182   6.965   4.488   8.868 -2.3860 -1.3207 -1.8166
 1329TIP3    H228183   6.992   4.355   8.801  2.7281 -1.6934  0.4699
 1330TIP3   OH228184   0.411   0.853   9.019 -0.1639  0.7126  0.0820
 1330TIP3    H128185   0.357   0.836   8.942 -0.5883 -0.7092  0.6583
 1330TIP3    H228186   0.438   0.766   9.049  3.5152  1.3804 -0.8686
 1331TIP3   OH228187   1.532   2.353   7.793 -0.4752 -0.3747  0.0266
 1331TIP3    H128188   1.577   2.395   7.719 -2.4287  0.5530 -0.7106
 1331TIP3    H228189   1.541   2.416   7.865 -1.2611  0.1992 -0.3605
 1332TIP3   OH228190   3.412   4.718   9.362  0.6294 -0.7798 -0.5134
 1332TIP3    H128191   3.377   4.698   9.448  0.3285 -0.5972 -0.5922
 1332TIP3    H228192   3.468   4.644   9.341  3.2915  0.5656  1.2080
 1333TIP3   OH228193   4.217   5.564   7.159 -0.3014  0.3355  0.1670
 1333TIP3    H128194   4.200   5.650   7.120 -0.0285  1.3588  2.1921
 1333TIP3    H228195   4.131   5.522   7.162 -0.2958  0.1174 -1.6927
 1334TIP3   OH228196   3.907   2.842   7.549 -0.6968  0.4690  0.1439
 1334TIP3    H128197   3.825   2.882   7.579 -0.6403  1.1606 -0.5900
 1334TIP3    H228198   3.973   2.910   7.563  0.0071 -0.4982  1.8602
 1335TIP3   OH228199   3.401   4.692   8.502  0.2196  0.4456  0.1623
 1335TIP3    H128200   3.365   4.608   8.472  0.9990  1.3753 -3.9371
 1335TIP3    H228201   3.326   4.739   8.538 -0.4882 -1.4372  1.2805
 1336TIP3   OH228202   3.708   4.160   7.560  0.1113  0.4851 -0.3356
 1336TIP3    H128203   3.779   4.129   7.615 -0.8790 -1.3652 -0.0122
 1336TIP3    H228204   3.653   4.212   7.618  0.0389  0.0679 -0.0266
 1337TIP3   OH228205   6.059   3.772   7.714 -0.2577 -0.0509  0.3652
 1337TIP3    H128206   6.009   3.732   7.643 -0.1428  0.6170 -0.1105
 1337TIP3    H228207   5.993   3.812   7.770 -0.4223 -1.4740  1.2320
 1338TIP3   OH228208   4.975   1.453   7.898  0.0073  0.3700  0.1515
 1338TIP3    H128209   5.070   1.460   7.908  0.0402  0.4379 -0.1860
 1338TIP3    H228210   4.943   1.542   7.909 -0.0464  0.3035  0.5436
 1339TIP3   OH228211   5.234   5.070   7.646 -0.5708  0.0799  0.3782
 1339TIP3    H128212   5.305   5.046   7.586 -1.1190  0.3988 -0.4224
 1339TIP3    H228213   5.179   4.991   7.650  0.5552 -0.6508  2.1046
 1340TIP3   OH228214   4.885   5.629   8.587 -0.1663 -0.6410 -0.4012
 1340TIP3    H128215   4.791   5.639   8.574 -0.6389 -1.1274  2.1948
 1340TIP3    H228216   4.917   5.719   8.595 -0.7349 -0.5083  0.5519
 1341TIP3   OH228217   5.304   3.003   6.701 -0.3708 -0.0209  0.1929
 1341TIP3    H128218   5.311   2.910   6.679 -0.9707 -0.9530  3.4393
 1341TIP3    H228219   5.211   3.017   6.715 -0.0984  0.5954  1.4739
 1342TIP3   OH228220   3.578   7.237   9.120 -0.5595  0.0915 -0.5280
 1342TIP3    H128221   3.558   7.163   9.176  0.5160 -0.5787 -1.0009
 1342TIP3    H228222   3.573   7.313   9.177 -2.6493 -0.1955 -0.2415
 1343TIP3   OH228223   6.333   5.967   9.432 -0.1861  0.2929 -0.0389
 1343TIP3    H128224   6.258   5.967   9.491  2.0140 -1.8042  3.0202
 1343TIP3    H228225   6.329   5.882   9.388 -0.5821  0.9553 -1.3480
 1344TIP3   OH228226   7.139   7.605   7.412  0.2891 -0.2584 -0.2550
 1344TIP3    H128227   7.137   7.509   7.411  0.9304 -0.2834  0.3115
 1344TIP3    H228228   7.231   7.627   7.403  0.0660  0.3271 -1.1719
 1345TIP3   OH228229   0.955   1.325   7.088 -0.4284 -0.1489 -0.0260
 1345TIP3    H128230   1.041   1.353   7.056 -0.1169  0.2389  1.0904
 1345TIP3    H228231   0.961   1.336   7.183 -1.3621 -1.1045  0.1593
 1346TIP3   OH228232   3.667   0.357   8.526  0.1400  0.2515 -0.1491
 1346TIP3    H128233   3.709   0.272   8.518 -1.1136 -0.3045 -1.4603
 1346TIP3    H228234   3.585   0.339   8.571  0.7470  1.1236  1.3651
 1347TIP3   OH228235   4.933   3.273   9.137  0.2389 -0.5744  0.2545
 1347TIP3    H128236   4.913   3.339   9.070  1.8759 -1.4688 -1.2231
 1347TIP3    H228237   4.861   3.210   9.130  0.0520 -0.3196 -0.2230
 1348TIP3   OH228238   5.574   6.705   8.397  0.1819  0.2343  0.2903
 1348TIP3    H128239   5.546   6.716   8.306  1.6049  0.3129 -0.1663
 1348TIP3    H228240   5.600   6.794   8.425  0.4162  0.0935  0.5312
 1349TIP3   OH228241   0.826   3.152   9.058 -0.0139  0.4073 -0.2306
 1349TIP3    H128242   0.817   3.214   9.130  0.3302  0.4175 -0.1946
 1349TIP3    H228243   0.747   3.098   9.063  0.4537 -0.2205  0.7534
 1350TIP3   OH228244   1.644   6.738   7.558  0.1244  0.1884 -0.1821
 1350TIP3    H128245   1.668   6.790   7.635  0.4397  0.0504 -0.1858
 1350TIP3    H228246   1.548   6.735   7.560  0.1548 -1.7312  1.5057
 1351TIP3   OH228247   3.130   5.575   8.341  0.4979 -0.0435  0.6934
 1351TIP3    H128248   3.121   5.585   8.436  0.9922  3.5768  0.4930
 1351TIP3    H228249   3.224   5.580   8.325  0.3044  1.2542 -0.1103
 1352TIP3   OH228250   0.738   5.624   6.716 -0.8216 -0.4785 -0.1516
 1352TIP3    H128251   0.791   5.546   6.728  0.3202  0.5469  2.2196
 1352TIP3    H228252   0.801   5.695   6.702 -1.5723  0.5140  1.1666
 1353TIP3   OH228253   4.342   3.615   7.370 -0.3915 -0.3387 -0.1047
 1353TIP3    H128254   4.272   3.554   7.347 -1.4646  0.9149 -0.2697
 1353TIP3    H228255   4.330   3.689   7.311  1.4319 -0.3147 -0.5137
 1354TIP3   OH228256   6.673   4.634   6.472 -0.2654 -0.1983 -0.5280
 1354TIP3    H128257   6.588   4.654   6.511  0.4177 -0.8895  1.3861
 1354TIP3    H228258   6.663   4.546   6.435 -0.1620 -0.5992  0.3867
 1355TIP3   OH228259   2.760   3.847   8.429  0.2366 -0.0523  0.4839
 1355TIP3    H128260   2.771   3.772   8.370 -1.0681  0.7904 -0.9017
 1355TIP3    H228261   2.813   3.825   8.506  0.6006 -1.9837 -0.2605
 1356TIP3   OH228262   6.749   5.772   6.545  0.5323  0.1432  0.5651
 1356TIP3    H128263   6.731   5.695   6.492  0.9989 -0.4040  1.1832
 1356TIP3    H228264   6.667   5.789   6.592  0.4245  0.0409  0.4142
 1357TIP3   OH228265   0.365   5.659   8.776  0.0602 -0.2116 -0.0288
 1357TIP3    H128266   0.443   5.644   8.723 -0.4639  0.3036 -0.9734
 1357TIP3    H228267   0.379   5.745   8.814  0.9745 -1.0639  1.6711
 1358TIP3   OH228268   6.120   7.540   8.464  0.5922  0.4502  0.4359
 1358TIP3    H128269   6.055   7.608   8.446  0.3382  0.2202  0.4825
 1358TIP3    H228270   6.203   7.587   8.467  0.2218  1.0864  2.3565
 1359TIP3   OH228271   2.122   4.276   7.019  0.2317 -0.5955 -0.0345
 1359TIP3    H128272   2.191   4.246   6.960 -0.8647  0.0044 -1.6892
 1359TIP3    H228273   2.129   4.371   7.018 -0.3094 -0.5506  0.1710
 1360TIP3   OH228274   3.554   3.439   9.240  0.3720 -0.1808 -0.0714
 1360TIP3    H128275   3.580   3.389   9.317  0.5942  0.7053  0.4521
 1360TIP3    H228276   3.565   3.380   9.166  0.3767 -0.9693  0.5574
 1361TIP3   OH228277   1.391   0.547   7.784  0.3822 -0.0109 -0.6314
 1361TIP3    H128278   1.437   0.483   7.839 -1.1105 -1.4970 -1.0164
 1361TIP3    H228279   1.314   0.500   7.752 -0.6998  1.9598 -1.0813
 1362TIP3   OH228280   6.804   7.489   8.755  0.0712  0.2391  0.0165
 1362TIP3    H128281   6.756   7.560   8.799 -0.4252  0.1275 -0.3302
 1362TIP3    H228282   6.735   7.435   8.715  0.4792 -0.0432 -0.3169
 1363TIP3   OH228283   3.186   3.580   8.044 -0.1188  0.0233  0.2060
 1363TIP3    H128284   3.212   3.635   8.117 -0.7138 -1.2250  1.3985
 1363TIP3    H228285   3.100   3.615   8.017  0.0196  0.3690  0.2067
 1364TIP3   OH228286   5.871   6.871   8.245  0.2080 -0.0752  0.2771
 1364TIP3    H128287   5.876   6.966   8.254 -1.1094 -0.0516  0.9928
 1364TIP3    H228288   5.928   6.837   8.314  2.0783  0.1686 -1.0787
 1365TIP3   OH228289   7.570   0.535   7.690  0.0054 -0.4231  0.1765
 1365TIP3    H128290   7.662   0.510   7.676  0.1759  0.2184  0.1255
 1365TIP3    H228291   7.536   0.469   7.750  0.8042 -0.0423  1.0635
 1366TIP3   OH228292   5.622   3.866   6.670  0.2930 -0.0217 -0.0763
 1366TIP3    H128293   5.601   3.958   6.687 -0.8030  0.0967 -1.7941
 1366TIP3    H228294   5.708   3.868   6.629 -0.9786  0.6365 -2.9879
 1367TIP3   OH228295   2.902   3.412   7.512  0.3167 -0.1607 -0.1157
 1367TIP3    H128296   2.889   3.369   7.428 -1.5586 -0.2750  0.2020
 1367TIP3    H228297   2.814   3.430   7.545  1.0021  2.0576  0.7227
 1368TIP3   OH228298   2.032   1.687   7.418 -0.3081  0.0539  0.0441
 1368TIP3    H128299   1.970   1.684   7.345 -1.2370  0.3445  0.8068
 1368TIP3    H228300   2.049   1.780   7.431  1.0300 -0.0554 -0.7543
 1369TIP3   OH228301   5.916   2.587   8.943  0.0605 -0.1491 -0.0386
 1369TIP3    H128302   5.979   2.532   8.897 -0.6594 -1.0970  0.0832
 1369TIP3    H228303   5.967   2.632   9.009  0.4958 -1.4845  0.5588
 1370TIP3   OH228304   5.767   1.447   9.113  0.5759  0.4270 -0.2553
 1370TIP3    H128305   5.827   1.377   9.086  0.0492 -0.3295  0.4858
 1370TIP3    H228306   5.824   1.524   9.124  1.6687 -0.5714  1.6607
 1371TIP3   OH228307   4.884   3.024   6.669  0.0825 -0.5544 -0.4119
 1371TIP3    H128308   4.881   2.932   6.642  2.5551 -0.5685 -0.8554
 1371TIP3    H228309   4.944   3.026   6.743  0.9901  0.8340 -1.1351
 1372TIP3   OH228310   5.037   3.641   7.733 -0.3119  0.0276 -0.2583
 1372TIP3    H128311   4.961   3.589   7.710  0.3555 -1.1228  0.0852
 1372TIP3    H228312   5.007   3.697   7.804 -0.9624 -0.0552 -0.4617
 1373TIP3   OH228313   2.575   1.753   8.218  0.1216 -0.4649 -0.3117
 1373TIP3    H128314   2.577   1.730   8.125  1.7865 -1.0248 -0.1688
 1373TIP3    H228315   2.483   1.772   8.236 -0.1946 -0.0688 -2.1332
 1374TIP3   OH228316   6.966   0.126   9.227  0.6522 -0.0794  0.2877
 1374TIP3    H128317   6.913   0.176   9.290  0.6807 -0.7852  0.8857
 1374TIP3    H228318   6.941   0.035   9.242  1.5091 -0.3527  0.0668
 1375TIP3   OH228319   7.117   7.076   9.067  0.8266 -0.0649  0.1067
 1375TIP3    H128320   7.024   7.083   9.047  1.2195 -0.0309 -1.9174
 1375TIP3    H228321   7.153   7.162   9.044  1.8404 -1.0366 -2.2827
 1376TIP3   OH228322   5.647   3.051   7.816 -0.2689 -0.0061 -0.5655
 1376TIP3    H128323   5.618   3.018   7.731  0.6670  0.1213 -0.9440
 1376TIP3    H228324   5.658   2.973   7.870 -0.7515 -0.0957 -0.5962
 1377TIP3   OH228325   3.163   4.874   9.352  0.2163 -0.3130 -0.0828
 1377TIP3    H128326   3.231   4.807   9.360  0.8797  0.2322 -0.9673
 1377TIP3    H228327   3.185   4.921   9.272 -0.9658  0.1571 -0.1495
 1378TIP3   OH228328   6.982   4.614   7.517 -0.7823  0.3718 -0.0924
 1378TIP3    H128329   6.940   4.573   7.593  0.9727  0.6526  1.0871
 1378TIP3    H228330   6.926   4.591   7.443 -1.4140 -1.6858  0.9607
 1379TIP3   OH228331   5.638   3.302   7.937  0.8905  0.0548 -0.1110
 1379TIP3    H128332   5.619   3.214   7.904 -1.1449 -0.6052  2.4829
 1379TIP3    H228333   5.557   3.351   7.920  2.1829  1.6902 -2.0260
 1380TIP3   OH228334   0.673   4.892   6.860 -0.6912  0.0927  0.2408
 1380TIP3    H128335   0.722   4.820   6.819  1.8114  0.9050  1.6162
 1380TIP3    H228336   0.673   4.961   6.794  0.6681  0.3183  0.4527
 1381TIP3   OH228337   1.158   7.023   9.224  0.0648 -0.1038  0.1443
 1381TIP3    H128338   1.197   6.994   9.307 -2.5945  0.2688  1.6544
 1381TIP3    H228339   1.128   6.943   9.182  3.7697 -0.5907 -1.9035
 1382TIP3   OH228340   4.025   0.605   8.092 -0.0711 -0.1429  0.1044
 1382TIP3    H128341   3.933   0.615   8.114 -0.2779 -0.6175 -0.5221
 1382TIP3    H228342   4.046   0.683   8.040 -0.4809 -0.6780 -0.8934
 1383TIP3   OH228343   1.257   0.503   7.115  0.0546 -0.2608 -0.0119
 1383TIP3    H128344   1.300   0.440   7.057  1.0123 -0.7148  1.1717
 1383TIP3    H228345   1.173   0.462   7.136  0.4135 -0.8589  0.2639
 1384TIP3   OH228346   2.985   2.794   8.380 -0.0343 -0.0311  0.0271
 1384TIP3    H128347   3.052   2.727   8.396  1.0185  1.1938  0.8943
 1384TIP3    H228348   2.947   2.811   8.466  0.1593  0.9396 -0.0675
 1385TIP3   OH228349   5.891   1.755   7.803 -0.2388 -0.2618 -0.1511
 1385TIP3    H128350   5.811   1.719   7.840  0.4611 -0.6876  0.9814
 1385TIP3    H228351   5.932   1.681   7.758  1.1244 -0.9544  2.0514
 1386TIP3   OH228352   1.988   3.882   7.192 -0.2167 -0.3452 -0.4595
 1386TIP3    H128353   2.030   3.968   7.194 -0.4198 -0.2568  1.8086
 1386TIP3    H228354   2.013   3.846   7.107  1.1522  1.3050 -0.8238
 1387TIP3   OH228355   2.518   2.787   8.797 -0.2065  0.0719  0.2607
 1387TIP3    H128356   2.610   2.797   8.820 -0.3481 -1.4321  1.6495
 1387TIP3    H228357   2.504   2.693   8.794 -1.6753  0.2793 -0.0811
 1388TIP3   OH228358   2.161   5.150   8.032 -0.0070 -0.0679  0.0150
 1388TIP3    H128359   2.219   5.082   7.998  2.4662  2.7482 -1.8784
 1388TIP3    H228360   2.194   5.169   8.120  0.0757 -0.4725  0.0707
 1389TIP3   OH228361   3.516   6.145   7.077 -0.6332 -0.2275  0.5390
 1389TIP3    H128362   3.516   6.070   7.016  3.2063 -0.4832  0.6068
 1389TIP3    H228363   3.518   6.104   7.164  0.8554 -0.1396  0.5850
 1390TIP3   OH228364   3.244   1.318   8.819  0.9927 -0.1187 -0.0330
 1390TIP3    H128365   3.306   1.318   8.892  1.4006 -0.5968 -0.3701
 1390TIP3    H228366   3.299   1.316   8.741  0.5613 -0.9063 -0.3373
 1391TIP3   OH228367   4.604   5.096   8.155 -0.3616 -0.4869  0.2036
 1391TIP3    H128368   4.512   5.089   8.131 -1.1148  1.8116  2.0658
 1391TIP3    H228369   4.603   5.131   8.244  2.3352 -1.0683  0.5487
 1392TIP3   OH228370   1.860   2.738   8.141  0.5185 -0.4416 -0.1068
 1392TIP3    H128371   1.778   2.699   8.110  1.0016 -0.5989 -1.2283
 1392TIP3    H228372   1.837   2.829   8.161  0.0535 -0.5079 -0.3253
 1393TIP3   OH228373   4.160   7.355   6.503  0.1923  0.4859  0.4442
 1393TIP3    H128374   4.134   7.447   6.505  0.0257  0.4334  0.9861
 1393TIP3    H228375   4.254   7.357   6.489  0.2100  0.7489  0.5905
 1394TIP3   OH228376   3.417   2.213   8.921 -0.0211  0.1042 -0.3783
 1394TIP3    H128377   3.410   2.160   8.842  1.1478 -0.7859  0.0734
 1394TIP3    H228378   3.504   2.254   8.915  0.5899 -0.8871  0.9361
 1395TIP3   OH228379   0.332   4.790   8.854  0.5983 -0.3636  0.1330
 1395TIP3    H128380   0.402   4.749   8.804  0.0287  0.6552 -1.5895
 1395TIP3    H228381   0.260   4.800   8.791 -0.6864 -0.3545  1.5490
 1396TIP3   OH228382   6.115   4.650   7.832  0.1775 -0.2252  0.2921
 1396TIP3    H128383   6.148   4.598   7.759  0.4042 -2.0753  1.6350
 1396TIP3    H228384   6.030   4.682   7.802  0.4236 -0.6429 -0.9029
 1397TIP3   OH228385   4.811   6.813   9.151  0.8398  0.7401  0.1594
 1397TIP3    H128386   4.833   6.720   9.151  0.0500  0.5340 -0.9310
 1397TIP3    H228387   4.888   6.856   9.115  1.1932  0.5124  0.6293
 1398TIP3   OH228388   2.298   1.490   8.370 -0.0950 -0.6164  0.1756
 1398TIP3    H128389   2.210   1.458   8.392 -0.2184 -0.6836 -0.3987
 1398TIP3    H228390   2.356   1.417   8.393 -0.1457 -0.4421  0.8869
 1399TIP3   OH228391   2.912   0.854   9.510  0.2215  0.5125 -0.0685
 1399TIP3    H128392   2.889   0.933   9.462 -2.5801 -0.6639 -0.8839
 1399TIP3    H228393   2.930   0.884   9.599  1.7914  2.2998 -0.9412
 1400TIP3   OH228394   5.611   1.532   8.890  0.0759  0.2611  0.1801
 1400TIP3    H128395   5.630   1.485   8.809 -1.7362  0.4300 -0.3797
 1400TIP3    H228396   5.680   1.505   8.950  0.7489 -0.8219 -1.0360
 1401TIP3   OH228397   4.138   3.437   7.326 -0.1813  0.3784 -0.7808
 1401TIP3    H128398   4.133   3.357   7.379  2.6811 -0.3938 -1.4826
 1401TIP3    H228399   4.140   3.406   7.236 -0.1213  1.3314 -1.1180
 1402TIP3   OH228400   1.920   4.440   7.632  0.7206  0.0138 -0.3931
 1402TIP3    H128401   1.955   4.406   7.549  0.4720 -0.1117 -0.4473
 1402TIP3    H228402   1.834   4.475   7.609  1.5373  2.0049 -0.6364
 1403TIP3   OH228403   6.347   1.595   7.692 -0.4167  0.1572 -0.2071
 1403TIP3    H128404   6.274   1.655   7.704  0.6458  1.3883  0.4156
 1403TIP3    H228405   6.394   1.598   7.776  1.2186  0.6507 -1.0783
 1404TIP3   OH228406   2.349   7.353   9.188  0.0207  0.2451 -0.4452
 1404TIP3    H128407   2.307   7.325   9.107  0.2585 -0.8669 -0.1973
 1404TIP3    H228408   2.432   7.305   9.190 -0.6237 -0.8897  1.1696
 1405TIP3   OH228409   5.925   5.988   7.463  0.3281  0.7211 -0.1047
 1405TIP3    H128410   5.871   6.050   7.415  0.6737  1.8149  0.8765
 1405TIP3    H228411   5.942   6.030   7.547 -1.5101 -1.7276  1.6738
 1406TIP3   OH228412   6.227   2.264   7.435 -0.1288  0.1992 -0.2107
 1406TIP3    H128413   6.189   2.320   7.367  0.2523  0.8779  0.1287
 1406TIP3    H228414   6.322   2.268   7.420 -0.1658 -1.8106 -1.3097
 1407TIP3   OH228415   1.921   3.310   8.420 -0.0748  0.3072 -0.0072
 1407TIP3    H128416   1.849   3.370   8.442 -0.2119  0.5902 -1.1694
 1407TIP3    H228417   1.914   3.297   8.325  1.2284  0.0982 -0.0963
 1408TIP3   OH228418   0.228   5.284   7.391  0.5659 -0.0976 -0.7074
 1408TIP3    H128419   0.228   5.198   7.434  0.5025  0.2675  0.0397
 1408TIP3    H228420   0.302   5.280   7.331  0.4366 -0.7500 -0.8378
 1409TIP3   OH228421   5.115   0.507   7.499  0.3829  0.5963 -0.2110
 1409TIP3    H128422   5.069   0.487   7.417  1.3801 -2.4757 -0.1823
 1409TIP3    H228423   5.123   0.602   7.500  0.2079  0.7752 -3.6169
 1410TIP3   OH228424   1.627   6.489   8.953  0.0201 -0.3232 -0.1651
 1410TIP3    H128425   1.649   6.582   8.945 -0.2741 -0.2397 -0.0114
 1410TIP3    H228426   1.712   6.444   8.957  0.2693  0.1783  2.7260
 1411TIP3   OH228427   1.747   1.441   7.323 -0.2569 -0.5779 -0.0523
 1411TIP3    H128428   1.780   1.446   7.413 -2.4948  0.6274  0.7774
 1411TIP3    H228429   1.775   1.523   7.282  0.4923 -0.9887 -0.3882
 1412TIP3   OH228430   5.783   2.237   8.410  0.2577 -0.0295 -0.0640
 1412TIP3    H128431   5.820   2.208   8.494  1.3994  0.2286 -0.4605
 1412TIP3    H228432   5.780   2.158   8.357  1.7523  0.2175 -0.5600
 1413TIP3   OH228433   3.309   0.210   8.521  0.0808 -0.4161  0.1741
 1413TIP3    H128434   3.239   0.181   8.580 -0.0508 -0.0459  0.1988
 1413TIP3    H228435   3.371   0.255   8.577 -0.8058  1.3237 -0.1789
 1414TIP3   OH228436   5.578   4.032   8.133  0.0268  0.3019  0.2830
 1414TIP3    H128437   5.539   3.969   8.193 -1.2095  1.2215  0.4960
 1414TIP3    H228438   5.643   3.982   8.083  0.1810 -0.7569  1.5054
 1415TIP3   OH228439   0.753   5.897   9.210 -0.2434 -0.0213 -0.3963
 1415TIP3    H128440   0.828   5.845   9.180 -0.8419 -0.7135 -0.7291
 1415TIP3    H228441   0.765   5.903   9.305  0.8331  0.8451 -0.5706
 1416TIP3   OH228442   0.063   1.053   8.283  0.3630  0.1251  0.1737
 1416TIP3    H128443  -0.006   0.988   8.271  0.3516  0.4623 -1.9811
 1416TIP3    H228444   0.018   1.137   8.271  0.5913  0.5156  1.8376
 1417TIP3   OH228445   1.693   0.985   8.992  0.0531  0.3085 -0.2444
 1417TIP3    H128446   1.714   1.062   9.044 -0.0475  0.8025 -0.9279
 1417TIP3    H228447   1.650   1.019   8.914  0.1486 -0.4305 -0.6314
 1418TIP3   OH228448   0.082   0.377   8.031  0.1165 -0.2950  0.2967
 1418TIP3    H128449   0.137   0.432   8.087 -1.1995  1.0765  0.2951
 1418TIP3    H228450   0.144   0.333   7.973  1.1789  2.0081 -0.4234
 1419TIP3   OH228451   5.038   2.394   8.923 -0.0630  0.2595  0.5733
 1419TIP3    H128452   4.971   2.329   8.903  1.0438 -0.9487  0.6844
 1419TIP3    H228453   5.076   2.418   8.838  0.2659 -0.0515  0.6322
 1420TIP3   OH228454   5.494   5.374   8.226  0.3600  0.3766 -0.0483
 1420TIP3    H128455   5.517   5.331   8.143  0.4778  0.9572 -0.3248
 1420TIP3    H228456   5.398   5.379   8.225  0.3973  1.2194 -0.5941
 1421TIP3   OH228457   7.345   6.198   7.795  0.2020 -0.0690  0.0026
 1421TIP3    H128458   7.361   6.105   7.811 -0.7995 -0.1145  0.8572
 1421TIP3    H228459   7.377   6.242   7.874  0.7000  0.3115 -0.4123
 1422TIP3   OH228460   3.891   0.445   8.943  0.0218  0.1589 -0.1351
 1422TIP3    H128461   3.937   0.529   8.939  1.7235 -0.7427 -0.4313
 1422TIP3    H228462   3.960   0.379   8.941 -1.2806 -1.2759 -0.1890
 1423TIP3   OH228463   1.780   4.987   7.651 -0.3729  0.0600 -0.1218
 1423TIP3    H128464   1.776   5.079   7.678 -2.0027  0.6891 -2.2726
 1423TIP3    H228465   1.738   4.939   7.723  1.7757  0.7532  1.6991
 1424TIP3   OH228466   0.322   1.217   9.516 -0.1711  0.8840 -0.3793
 1424TIP3    H128467   0.377   1.173   9.581 -0.6625  1.1787  0.2399
 1424TIP3    H228468   0.385   1.253   9.453  0.3650  1.3576  0.4065
 1425TIP3   OH228469   2.747   7.442   6.786  0.7131  0.4843 -0.3585
 1425TIP3    H128470   2.684   7.372   6.773  0.9151  0.0656  0.7764
 1425TIP3    H228471   2.831   7.404   6.764  0.6479  0.8589 -1.2811
 1426TIP3   OH228472   3.009   2.920   9.366  0.1202 -0.2794  0.9737
 1426TIP3    H128473   3.021   2.996   9.309 -1.5994 -0.1441  0.7650
 1426TIP3    H228474   3.099   2.894   9.388  0.7692  1.5247  0.7009
 1427TIP3   OH228475   7.580   3.375   6.806  0.1744 -0.2886  0.6815
 1427TIP3    H128476   7.497   3.376   6.855 -1.8640  2.7104 -2.4183
 1427TIP3    H228477   7.631   3.446   6.844  0.6494 -0.9874  1.4038
 1428TIP3   OH228478   7.647   3.380   7.678  0.3478 -0.3202 -0.1364
 1428TIP3    H128479   7.559   3.379   7.717  0.1655  1.7200 -0.3569
 1428TIP3    H228480   7.631   3.392   7.584  0.8480 -1.1104 -0.3219
 1429TIP3   OH228481   4.338   2.359   8.655  0.0570 -0.4395  0.0444
 1429TIP3    H128482   4.333   2.275   8.701 -3.0120  0.7265  2.1604
 1429TIP3    H228483   4.312   2.338   8.565 -0.7402 -1.7680  0.5513
 1430TIP3   OH228484   2.923   5.803   8.685 -0.3294 -0.0244  0.3939
 1430TIP3    H128485   2.916   5.803   8.780  1.5078  0.4399  0.5589
 1430TIP3    H228486   2.913   5.895   8.660 -1.3354 -0.2058  0.0617
 1431TIP3   OH228487   0.604   2.942   8.565 -0.0326  0.0761 -0.1912
 1431TIP3    H128488   0.551   2.989   8.501 -0.8724  0.4047  0.7334
 1431TIP3    H228489   0.541   2.890   8.615  0.6647 -0.5086  0.0979
 1432TIP3   OH228490   5.828   7.594   8.785 -0.5657 -0.2215  0.3867
 1432TIP3    H128491   5.849   7.685   8.760 -0.1338 -0.5951 -0.6690
 1432TIP3    H228492   5.872   7.581   8.869  2.8621 -0.6954 -1.3123
 1433TIP3   OH228493   6.102   4.616   7.367 -0.2444  0.2730 -0.1689
 1433TIP3    H128494   6.088   4.526   7.399 -0.0952 -0.6144 -2.4031
 1433TIP3    H228495   6.179   4.647   7.415  0.2783 -1.1670 -0.0154
 1434TIP3   OH228496   0.712   5.353   8.757 -0.4561 -0.3226  0.1424
 1434TIP3    H128497   0.631   5.325   8.801 -0.1550 -0.1702  0.8125
 1434TIP3    H228498   0.755   5.272   8.731 -0.8121 -0.4059 -0.2075
 1435TIP3   OH228499   6.390   6.753   7.702 -0.2662 -1.1245 -0.5029
 1435TIP3    H128500   6.309   6.779   7.746  0.9099  1.9621  0.1267
 1435TIP3    H228501   6.420   6.676   7.750 -1.4351 -0.6591  1.0676
 1436TIP3   OH228502   3.279   6.779   8.241 -0.4861 -0.1894  0.4106
 1436TIP3    H128503   3.291   6.687   8.219  2.2730  0.7862 -3.1406
 1436TIP3    H228504   3.327   6.790   8.323  0.7940 -1.6062 -0.1031
 1437TIP3   OH228505   6.274   6.091   8.540 -0.3441 -0.3223 -0.0709
 1437TIP3    H128506   6.359   6.054   8.564 -0.7915 -0.3248  1.5986
 1437TIP3    H228507   6.291   6.136   8.457  1.0092 -1.3044 -0.3689
 1438TIP3   OH228508   7.317   6.288   8.300 -0.6854  0.2538 -0.8719
 1438TIP3    H128509   7.260   6.219   8.336 -1.1261  1.0726  0.0402
 1438TIP3    H228510   7.278   6.370   8.331  0.1522  0.8962 -1.4762
 1439TIP3   OH228511   4.816   5.301   9.153 -0.1060 -0.2720  0.8029
 1439TIP3    H128512   4.781   5.344   9.231  2.6705  0.0008  2.0044
 1439TIP3    H228513   4.853   5.372   9.100 -3.8646 -0.1224 -2.0620
 1440TIP3   OH228514   5.363   4.983   7.953 -0.0720 -0.0981 -0.5009
 1440TIP3    H128515   5.404   4.968   7.868  0.3629 -0.3152 -0.2545
 1440TIP3    H228516   5.389   4.909   8.007 -1.0253 -0.3913 -0.4164
 1441TIP3   OH228517   5.751   3.811   8.125 -0.8366  0.2586 -0.1914
 1441TIP3    H128518   5.736   3.729   8.172 -2.2448  1.2828  1.2091
 1441TIP3    H228519   5.846   3.813   8.111 -0.6510 -1.1180  0.6418
 1442TIP3   OH228520   6.085   2.648   9.166 -0.0820  0.4597 -0.0719
 1442TIP3    H128521   6.142   2.679   9.095 -0.6582 -0.8260 -1.1437
 1442TIP3    H228522   6.136   2.579   9.209 -0.3637  0.1153 -0.2853
 1443TIP3   OH228523   6.552   5.379   8.432  0.3336  0.0826  0.0871
 1443TIP3    H128524   6.555   5.290   8.466  1.8409 -0.4203 -1.2247
 1443TIP3    H228525   6.513   5.370   8.345  1.1102  0.5960 -0.3205
 1444TIP3   OH228526   3.419   4.202   7.546  0.0983 -0.5979  0.0423
 1444TIP3    H128527   3.469   4.195   7.465  0.3550 -1.6370  0.2778
 1444TIP3    H228528   3.354   4.270   7.529 -0.9321 -1.9468 -1.6058
 1445TIP3   OH228529   4.568   4.092   7.521 -0.2707 -0.7912 -0.0994
 1445TIP3    H128530   4.656   4.125   7.539  0.0816 -1.9866  0.5136
 1445TIP3    H228531   4.514   4.126   7.593  0.2945 -2.2559  1.0870
 1446TIP3   OH228532   5.938   6.951   7.959 -0.0975 -0.4504  0.3780
 1446TIP3    H128533   5.952   7.045   7.971 -0.3062 -0.4029  0.2602
 1446TIP3    H228534   5.912   6.919   8.045  2.1801 -0.8177  0.9941
 1447TIP3   OH228535   2.966   1.450   7.848  0.6742 -0.0401 -0.3184
 1447TIP3    H128536   3.020   1.521   7.881 -0.3545  0.6447 -0.0572
 1447TIP3    H228537   3.007   1.370   7.881  0.9336  0.5183  0.7311
 1448TIP3   OH228538   4.960   5.507   7.809 -0.2456 -0.0891  0.2107
 1448TIP3    H128539   4.955   5.506   7.714  1.2310  1.0877  0.0777
 1448TIP3    H228540   4.870   5.492   7.838 -0.8574  0.2786 -1.3796
 1449TIP3   OH228541   0.595   0.062   7.848 -0.3213 -0.0095 -0.3168
 1449TIP3    H128542   0.504   0.034   7.836 -0.5806  1.5261 -2.4849
 1449TIP3    H228543   0.618   0.105   7.766  1.0326  3.2587  1.5526
 1450TIP3   OH228544   6.571   7.352   7.588 -0.2688  0.1706  0.2897
 1450TIP3    H128545   6.532   7.299   7.518 -0.9630  1.8298 -0.6388
 1450TIP3    H228546   6.661   7.366   7.561 -0.3105  0.1486  0.1409
 1451TIP3   OH228547   2.784   6.731   9.242  0.5693  0.1285 -0.7544
 1451TIP3    H128548   2.731   6.659   9.275  0.1163  1.4207  1.6020
 1451TIP3    H228549   2.833   6.694   9.169 -2.0673 -1.6367 -1.7387
 1452TIP3   OH228550   6.839   1.420   8.657 -0.3302  0.5063 -0.1172
 1452TIP3    H128551   6.769   1.399   8.719  0.1945 -1.1609 -0.0372
 1452TIP3    H228552   6.799   1.409   8.571  0.2034 -2.2406 -0.1188
 1453TIP3   OH228553   2.379   1.498   8.051 -0.2591 -0.2367  0.2425
 1453TIP3    H128554   2.320   1.486   7.976 -0.0496  0.5481 -0.0626
 1453TIP3    H228555   2.321   1.512   8.126 -0.4686 -0.6390  0.1548
 1454TIP3   OH228556   1.920   0.969   8.790  0.1880 -0.0525  0.2997
 1454TIP3    H128557   1.907   1.063   8.806  0.3910  0.8635 -3.7268
 1454TIP3    H228558   1.851   0.926   8.840  0.7383  2.0397  3.1387
 1455TIP3   OH228559   4.002   0.496   9.249  0.8280 -0.1673  0.4527
 1455TIP3    H128560   4.093   0.466   9.248  0.8173 -0.2827  1.6430
 1455TIP3    H228561   3.952   0.422   9.213  1.2109 -0.0105 -0.4380
 1456TIP3   OH228562   2.950   5.747   8.242  0.4440 -0.7752 -0.0491
 1456TIP3    H128563   3.007   5.677   8.276  0.1611 -0.8322  0.3178
 1456TIP3    H228564   2.985   5.827   8.282 -1.0991 -1.0563  2.0453
 1457TIP3   OH228565   0.817   0.504   9.112  0.4357  0.1954  0.2404
 1457TIP3    H128566   0.794   0.555   9.035 -0.3957  0.7161  0.8209
 1457TIP3    H228567   0.912   0.496   9.108  0.4410  0.5521 -0.6181
 1458TIP3   OH228568   4.372   0.705   7.319 -0.2108 -0.9150  0.0917
 1458TIP3    H128569   4.438   0.701   7.388  1.0102  1.8270 -0.7920
 1458TIP3    H228570   4.410   0.657   7.246  1.7953  2.0776 -1.0333
 1459TIP3   OH228571   2.940   7.072   7.636  0.5495 -0.1468  0.1744
 1459TIP3    H128572   3.029   7.060   7.667  0.3452 -2.4055  0.0609
 1459TIP3    H228573   2.938   7.029   7.551  0.1534  2.7600 -1.4105
 1460TIP3   OH228574   5.052   6.943   9.191 -0.1901 -0.2000 -0.1292
 1460TIP3    H128575   5.129   6.910   9.236  0.0890 -0.9012 -1.1044
 1460TIP3    H228576   5.086   6.999   9.121 -0.5174 -1.1640 -1.0878
 1461TIP3   OH228577   7.549   1.586   7.882  0.4826  0.3330  0.1832
 1461TIP3    H128578   7.516   1.656   7.938 -1.0609  0.2869 -0.6033
 1461TIP3    H228579   7.624   1.551   7.929  2.1673  3.3518  0.0032
 1462TIP3   OH228580   5.297   3.705   8.962 -0.1268  0.0962 -0.4663
 1462TIP3    H128581   5.319   3.668   8.877 -0.5854  1.8330 -1.3933
 1462TIP3    H228582   5.205   3.682   8.976  0.0864 -0.6117 -0.1915
 1463TIP3   OH228583   4.864   6.213   7.366  0.0598 -0.2136  0.0550
 1463TIP3    H128584   4.859   6.160   7.286 -1.9739  1.2274 -0.8397
 1463TIP3    H228585   4.842   6.301   7.338 -0.6367  0.3528  2.2169
 1464TIP3   OH228586   7.222   4.025   7.755  0.4147  0.0897 -0.2793
 1464TIP3    H128587   7.162   3.962   7.717  0.8081 -0.5190  0.0755
 1464TIP3    H228588   7.187   4.041   7.843  0.0873  0.6880 -0.5134
 1465TIP3   OH228589   7.192   1.129   8.303 -0.2304 -0.0426 -0.4005
 1465TIP3    H128590   7.159   1.180   8.377  0.8746  0.8907 -0.5259
 1465TIP3    H228591   7.183   1.038   8.331 -1.7436  0.2221  0.0369
 1466TIP3   OH228592   3.297   5.316   9.468  0.6293  0.0902 -0.4524
 1466TIP3    H128593   3.229   5.283   9.527  0.5143  0.5257 -0.3401
 1466TIP3    H228594   3.287   5.264   9.389  0.5419 -0.2423 -0.2239
 1467TIP3   OH228595   0.860   2.423   9.173  0.5935 -0.2063 -0.5507
 1467TIP3    H128596   0.847   2.345   9.118  0.0204 -0.9428  0.5941
 1467TIP3    H228597   0.800   2.488   9.137  0.4349 -0.5805 -0.9773
 1468TIP3   OH228598   6.464   1.322   8.651 -0.2415 -0.8026 -0.2538
 1468TIP3    H128599   6.377   1.322   8.692  0.2080  0.1816  0.7436
 1468TIP3    H228600   6.525   1.330   8.724  0.6382 -0.1248 -1.0354
 1469TIP3   OH228601   7.056   4.824   9.234 -0.0863 -0.3098  0.1841
 1469TIP3    H128602   7.141   4.862   9.212  0.6140 -2.6076 -1.3677
 1469TIP3    H228603   6.999   4.849   9.161 -0.3205 -0.1502  0.4179
 1470TIP3   OH228604   0.101   2.584   7.811 -1.0158 -0.5509  0.0002
 1470TIP3    H128605   0.143   2.502   7.835 -1.0913 -0.9188 -1.0845
 1470TIP3    H228606   0.142   2.650   7.867  0.1853 -1.0846 -0.2389
 1471TIP3   OH228607   2.504   4.446   7.516 -0.2470 -0.2594  0.1756
 1471TIP3    H128608   2.515   4.541   7.513 -0.6077 -0.0925  2.2885
 1471TIP3    H228609   2.583   4.411   7.476 -0.1839  0.9209 -0.7782
 1472TIP3   OH228610   4.263   4.379   8.665  0.4798  0.1866 -0.4258
 1472TIP3    H128611   4.297   4.344   8.582 -0.7526 -1.3895 -0.3147
 1472TIP3    H228612   4.193   4.439   8.639  0.7993  0.5098 -0.5475
 1473TIP3   OH228613   0.317   6.021   7.607  0.7938 -0.0069  0.6384
 1473TIP3    H128614   0.312   6.114   7.628 -1.3986  0.3945 -1.2407
 1473TIP3    H228615   0.388   6.014   7.543  0.8364  0.4342  0.6406
 1474TIP3   OH228616   2.757   6.021   7.700 -0.1290 -0.5058  0.1941
 1474TIP3    H128617   2.713   6.033   7.616 -1.0523 -1.2490  0.5517
 1474TIP3    H228618   2.719   5.941   7.736 -1.0045  0.6947  2.0807
 1475TIP3   OH228619   4.255   3.926   8.180  0.4705  0.0722 -0.5271
 1475TIP3    H128620   4.308   3.972   8.244 -1.2611  1.2938  0.1111
 1475TIP3    H228621   4.301   3.844   8.164  0.6238 -0.6089  2.8144
 1476TIP3   OH228622   5.534   4.194   9.576  0.3621 -0.3101  0.6442
 1476TIP3    H128623   5.499   4.108   9.597 -1.0933 -0.1159 -0.8019
 1476TIP3    H228624   5.616   4.199   9.626  0.4974 -2.5149  0.7583
 1477TIP3   OH228625   2.963   1.234   6.654  0.4913 -0.1577  0.3352
 1477TIP3    H128626   3.037   1.278   6.696  1.4779  0.0785 -1.5115
 1477TIP3    H228627   2.986   1.141   6.658 -0.3047 -0.3157  1.8738
 1478TIP3   OH228628   1.278   1.942   7.718  0.6844  0.0885  0.3534
 1478TIP3    H128629   1.290   2.036   7.702 -1.8350  0.1448 -1.8435
 1478TIP3    H228630   1.193   1.936   7.761  0.0086 -1.2666 -1.1008
 1479TIP3   OH228631   1.836   2.366   8.099  0.0410 -0.7099 -0.0618
 1479TIP3    H128632   1.858   2.389   8.189  1.4167 -0.5897 -0.4019
 1479TIP3    H228633   1.753   2.409   8.082  1.4605  2.2938  0.0112
 1480TIP3   OH228634   7.166   0.479   7.469  0.4464  0.2674 -0.0223
 1480TIP3    H128635   7.242   0.535   7.453  0.2208  0.6199  0.1291
 1480TIP3    H228636   7.164   0.419   7.394  0.6560  0.5025 -0.2164
 1481TIP3   OH228637   5.422   3.726   9.615 -0.2641  0.0163 -0.2859
 1481TIP3    H128638   5.477   3.648   9.623  1.6605  1.3222 -0.1225
 1481TIP3    H228639   5.357   3.702   9.548  0.4350 -1.6191 -0.4408
 1482TIP3   OH228640   6.187   1.326   8.656  0.2386 -0.4422  0.0623
 1482TIP3    H128641   6.095   1.348   8.638 -0.2772 -2.4022  0.0250
 1482TIP3    H228642   6.212   1.269   8.582  1.0697 -0.9451  0.7147
 1483TIP3   OH228643   4.760   6.256   7.077  0.0869  0.1187  0.1933
 1483TIP3    H128644   4.669   6.272   7.103 -0.4315 -0.8887 -0.8986
 1483TIP3    H228645   4.762   6.164   7.051  1.1050  0.4577 -1.0485
 1484TIP3   OH228646   7.628   7.638   6.973 -0.1103 -0.3615 -0.5602
 1484TIP3    H128647   7.598   7.597   6.892 -1.0177 -1.1503  0.1558
 1484TIP3    H228648   7.571   7.602   7.041  0.9315 -0.0614  0.5022
 1485TIP3   OH228649   0.761   0.225   7.392 -0.2677  0.0586  0.4722
 1485TIP3    H128650   0.827   0.268   7.448 -0.7794  1.7286 -0.1471
 1485TIP3    H228651   0.763   0.274   7.311 -1.7888 -0.3200  0.1791
 1486TIP3   OH228652   0.177   1.862   6.348 -0.0130  0.2255 -0.1632
 1486TIP3    H128653   0.128   1.788   6.384  0.5705 -0.2362 -0.3139
 1486TIP3    H228654   0.109   1.925   6.323 -0.4912 -0.0711  0.3652
 1487TIP3   OH228655   1.641   0.780   7.003  0.7277 -0.0773  0.6933
 1487TIP3    H128656   1.649   0.724   6.925  0.7760  0.7100  0.1250
 1487TIP3    H228657   1.728   0.778   7.043  0.7946 -0.2262  0.5435
 1488TIP3   OH228658   2.267   5.087   8.864 -0.1816 -0.3072  0.1675
 1488TIP3    H128659   2.219   5.032   8.802 -1.0728  0.6083  0.0206
 1488TIP3    H228660   2.306   5.156   8.810 -0.1426 -0.0606  0.5066
 1489TIP3   OH228661   1.796   4.140   6.893 -0.3005  0.3954  0.7288
 1489TIP3    H128662   1.789   4.049   6.865  0.1599  0.1150  1.5033
 1489TIP3    H228663   1.871   4.174   6.845 -1.5898  0.9370 -1.0123
 1490TIP3   OH228664   4.685   5.982   9.465  0.4392  0.1014  0.1161
 1490TIP3    H128665   4.771   6.014   9.493  0.3274  1.4301 -0.9181
 1490TIP3    H228666   4.676   6.015   9.376 -0.0087 -2.3434 -0.8183
 1491TIP3   OH228667   6.680   3.319   9.113  0.6127 -0.3775 -0.1223
 1491TIP3    H128668   6.645   3.231   9.133  1.0746 -1.1475 -2.4193
 1491TIP3    H228669   6.616   3.357   9.053  1.5760 -0.0814 -0.9805
 1492TIP3   OH228670   3.706   6.305   8.007 -0.0201 -0.1083 -0.0793
 1492TIP3    H128671   3.688   6.239   7.941  2.3014  0.8828 -1.8759
 1492TIP3    H228672   3.738   6.256   8.083 -1.2186 -1.1776 -0.2427
 1493TIP3   OH228673   4.915   4.988   8.222  0.6734 -0.2876  0.1944
 1493TIP3    H128674   4.900   5.011   8.130  2.8216 -2.4175 -0.7864
 1493TIP3    H228675   4.957   5.065   8.260 -0.1744  0.5902 -0.5845
 1494TIP3   OH228676   7.185   7.240   6.413  0.3918 -0.1509 -0.2438
 1494TIP3    H128677   7.139   7.164   6.448  0.6998 -0.2933 -0.1457
 1494TIP3    H228678   7.116   7.298   6.381  0.1925 -1.1584 -1.7541
 1495TIP3   OH228679   3.199   3.657   8.901  0.0193 -0.0288  0.4253
 1495TIP3    H128680   3.256   3.604   8.957 -0.7253 -0.1144  1.1249
 1495TIP3    H228681   3.132   3.596   8.870  0.8321 -0.1513 -1.1837
 1496TIP3   OH228682   5.259   6.688   7.314  0.0127  0.1564 -0.2798
 1496TIP3    H128683   5.290   6.640   7.237 -2.0679 -1.7320 -0.0559
 1496TIP3    H228684   5.167   6.663   7.322 -0.8141  3.1649  0.7491
 1497TIP3   OH228685   3.206   0.392   9.060  0.8359  0.5554 -0.0827
 1497TIP3    H128686   3.161   0.471   9.030  0.1285 -0.5154 -2.0973
 1497TIP3    H228687   3.298   0.405   9.034  0.5987  0.4841 -1.0027
 1498TIP3   OH228688   5.163   6.090   7.143 -0.3529  0.0797  0.2409
 1498TIP3    H128689   5.218   6.127   7.073 -0.7406 -0.7068 -0.4909
 1498TIP3    H228690   5.170   6.154   7.214 -2.3965  2.5421 -1.5859
 1499TIP3   OH228691   7.323   1.852   7.350 -0.3968 -0.0434 -0.2632
 1499TIP3    H128692   7.296   1.847   7.442  0.5927 -2.1058 -0.0112
 1499TIP3    H228693   7.327   1.760   7.322 -2.3145  0.5525 -2.9135
 1500TIP3   OH228694   2.377   5.680   7.868 -0.2700  0.3806 -0.1161
 1500TIP3    H128695   2.388   5.774   7.851  1.4680  0.2569  0.1705
 1500TIP3    H228696   2.313   5.676   7.939  0.7751  1.4478  0.9408
 1501TIP3   OH228697   5.869   7.671   7.239 -0.3669 -0.2983  0.1834
 1501TIP3    H128698   5.944   7.729   7.250  0.0202 -1.0350  1.6281
 1501TIP3    H228699   5.834   7.659   7.327 -2.6000  0.5275 -0.5100
 1502TIP3   OH228700   2.573   6.988   8.488 -0.5061  0.1413 -0.1900
 1502TIP3    H128701   2.556   6.919   8.553 -2.2877  0.4275 -0.3133
 1502TIP3    H228702   2.490   7.034   8.479 -0.6084 -0.4241 -3.3271
 1503TIP3   OH228703   2.434   7.557   7.139  0.1881  0.1178  0.1420
 1503TIP3    H128704   2.448   7.473   7.095 -0.2088 -0.1017  0.4384
 1503TIP3    H228705   2.364   7.541   7.201 -1.6342  1.2535 -1.4820
 1504TIP3   OH228706   1.340   3.441   7.257 -0.0320 -0.4492  0.3846
 1504TIP3    H128707   1.339   3.466   7.165 -0.9824 -0.8850  0.2739
 1504TIP3    H228708   1.426   3.400   7.269  0.9091  1.3351  0.1846
 1505TIP3   OH228709   6.548   5.112   8.489  0.6498  0.3279  0.5882
 1505TIP3    H128710   6.605   5.034   8.485  1.4185  0.8524  1.0886
 1505TIP3    H228711   6.461   5.078   8.469  1.0505 -0.5865  0.3088
 1506TIP3   OH228712   5.412   6.697   6.801 -0.5677  0.2996 -0.0876
 1506TIP3    H128713   5.339   6.699   6.738  0.3517  1.4945 -1.1835
 1506TIP3    H228714   5.467   6.624   6.771 -0.3426  0.6074 -0.4337
 1507TIP3   OH228715   4.210   5.031   9.230 -0.3039 -0.1759 -0.1600
 1507TIP3    H128716   4.132   5.048   9.177 -0.3905 -0.8336 -0.2421
 1507TIP3    H228717   4.193   5.077   9.312 -0.8460 -0.4404 -0.1201
 1508TIP3   OH228718   1.887   6.351   9.010 -0.7286 -0.1219  0.0104
 1508TIP3    H128719   1.862   6.259   9.015  0.7069 -0.4575  1.7858
 1508TIP3    H228720   1.880   6.384   9.099  0.4971  1.0150 -0.2739
 1509TIP3   OH228721   0.527   0.027   8.879 -0.2437 -0.1700 -0.3975
 1509TIP3    H128722   0.579  -0.054   8.887  0.3095  0.0414 -1.5611
 1509TIP3    H228723   0.492   0.023   8.790 -1.2124  0.3045 -0.0489
 1510TIP3   OH228724   1.681   4.293   8.275  0.3169 -0.1764 -0.2229
 1510TIP3    H128725   1.697   4.367   8.334 -2.1003  1.8103 -1.8443
 1510TIP3    H228726   1.604   4.250   8.312  0.3554 -0.4884 -0.5056
 1511TIP3   OH228727   1.461   5.716   7.721 -0.5161  0.1265  0.1815
 1511TIP3    H128728   1.503   5.784   7.774 -1.7787  1.8183 -0.8817
 1511TIP3    H228729   1.367   5.727   7.736 -0.8211 -0.4579 -1.0710
 1512TIP3   OH228730   2.277   6.096   9.242  0.5065  0.3852  0.2713
 1512TIP3    H128731   2.217   6.115   9.314 -0.5059  1.1573 -0.7455
 1512TIP3    H228732   2.254   6.007   9.214  0.0235  0.5772  0.0590
 1513TIP3   OH228733   4.472   5.510   8.360 -0.1544  0.2347 -0.4657
 1513TIP3    H128734   4.517   5.590   8.385 -1.0804  0.9213 -0.9492
 1513TIP3    H228735   4.379   5.531   8.367 -0.4116 -0.7043 -0.8693
 1514TIP3   OH228736   5.474   0.853   6.660  0.2245  0.4289 -0.2104
 1514TIP3    H128737   5.510   0.771   6.626 -0.5665 -0.9474  2.0218
 1514TIP3    H228738   5.467   0.838   6.755 -1.7677  2.3710  0.0184
 1515TIP3   OH228739   0.157   7.170   8.360 -0.4917 -0.1740 -0.2974
 1515TIP3    H128740   0.229   7.141   8.305 -0.1986  2.6956 -1.6108
 1515TIP3    H228741   0.192   7.245   8.408 -1.8024 -0.4629  1.2060
 1516TIP3   OH228742   5.604   3.830   7.097  0.9920 -0.2157 -0.0077
 1516TIP3    H128743   5.672   3.837   7.030  0.3990 -1.1316 -0.7336
 1516TIP3    H228744   5.567   3.742   7.084  1.1412 -0.5693  1.7837
 1517TIP3   OH228745   1.021   4.365   7.174  0.1957  0.2847  0.1413
 1517TIP3    H128746   1.018   4.415   7.256  1.2783 -0.1590  0.4697
 1517TIP3    H228747   1.068   4.285   7.197  1.0071  0.4054 -1.0352
 1518TIP3   OH228748   0.319   7.431   7.365 -0.3718  0.7055 -0.1186
 1518TIP3    H128749   0.300   7.365   7.432  0.2379 -0.2296 -0.8435
 1518TIP3    H228750   0.247   7.424   7.302 -1.0747  1.7518  0.5251
 1519TIP3   OH228751   4.835   0.165   9.456  0.5857 -0.0582  0.2256
 1519TIP3    H128752   4.801   0.113   9.529  1.7217  0.2652  1.0096
 1519TIP3    H228753   4.914   0.120   9.429  0.9046  0.5658  0.0916
 1520TIP3   OH228754   6.480   6.401   7.739 -0.1256  0.8657  0.1884
 1520TIP3    H128755   6.513   6.472   7.795  1.6095  0.9949 -0.9062
 1520TIP3    H228756   6.424   6.444   7.675  1.3925  1.4206 -0.8462
 1521TIP3   OH228757   0.759   5.975   6.735 -0.0608 -0.4816 -0.0656
 1521TIP3    H128758   0.665   5.982   6.720  0.0531  0.9608 -0.2528
 1521TIP3    H228759   0.791   6.066   6.735  0.9538 -0.7334  2.5079
 1522TIP3   OH228760   3.027   2.928   8.958 -0.1655  0.4132 -0.2984
 1522TIP3    H128761   3.080   2.888   8.888  1.6249  1.6494  0.3045
 1522TIP3    H228762   2.940   2.889   8.946  0.5131 -0.6829 -2.1566
 1523TIP3   OH228763   7.172   6.276   7.269  0.3482 -0.1751  0.2513
 1523TIP3    H128764   7.228   6.353   7.281 -1.2735  1.1912 -0.5844
 1523TIP3    H228765   7.196   6.243   7.183 -1.1284  1.3267 -0.7832
 1524TIP3   OH228766   6.559   1.711   8.623  0.1164  0.6673  0.0156
 1524TIP3    H128767   6.586   1.801   8.603  0.5896  0.4488 -0.3481
 1524TIP3    H228768   6.488   1.721   8.686  0.1506  1.2989 -0.0374
 1525TIP3   OH228769   4.110   4.474   7.197 -0.0488  0.5833 -0.6066
 1525TIP3    H128770   4.112   4.518   7.111 -1.3819  0.6564 -0.6257
 1525TIP3    H228771   4.022   4.435   7.201  0.1525  0.2361  0.5574
 1526TIP3   OH228772   4.976   6.495   7.491 -0.6584 -0.1567  0.1549
 1526TIP3    H128773   4.896   6.454   7.459  1.0331 -3.0737 -0.6833
 1526TIP3    H228774   4.995   6.564   7.427 -1.5271 -0.6674 -0.6802
 1527TIP3   OH228775   1.310   5.668   6.797 -0.0588  0.4904  0.0634
 1527TIP3    H128776   1.338   5.669   6.888 -0.9513 -1.0384  0.4007
 1527TIP3    H228777   1.339   5.583   6.764  0.8119  1.2718 -1.2929
 1528TIP3   OH228778   7.093   4.751   7.076 -0.1630 -0.0505  0.6083
 1528TIP3    H128779   7.001   4.736   7.098 -0.3775  0.8682  0.3642
 1528TIP3    H228780   7.093   4.777   6.984  0.2026  1.1523  0.9264
 1529TIP3   OH228781   2.285   6.263   8.419 -0.6432  0.5583 -0.0704
 1529TIP3    H128782   2.259   6.346   8.460 -1.3553  1.0044 -1.3519
 1529TIP3    H228783   2.207   6.235   8.370 -0.2305 -0.5873 -0.1026
 1530TIP3   OH228784   4.592   1.654   9.355  0.3028  0.2097  0.1915
 1530TIP3    H128785   4.647   1.579   9.333  1.8928  1.0959  0.9368
 1530TIP3    H228786   4.654   1.725   9.373 -1.0873  1.2790  1.0384
 1531TIP3   OH228787   2.901   2.886   8.623 -0.1971 -0.3534 -0.1926
 1531TIP3    H128788   2.813   2.893   8.586 -0.9038  2.6760  1.6985
 1531TIP3    H228789   2.892   2.821   8.693 -0.9030 -0.1782 -0.1073
 1532TIP3   OH228790   5.153   0.748   7.644  0.5134  0.2307  0.1574
 1532TIP3    H128791   5.211   0.807   7.692 -0.3544  0.9013  0.4028
 1532TIP3    H228792   5.068   0.791   7.645  0.0907 -0.5482 -0.5402
 1533TIP3   OH228793   6.472   4.362   7.605  0.3833 -0.0016  0.0612
 1533TIP3    H128794   6.517   4.333   7.684  0.9055 -1.0063 -0.5981
 1533TIP3    H228795   6.437   4.282   7.566  0.0454  0.4975 -0.6805
 1534TIP3   OH228796   0.556   3.997   9.211 -0.1611  0.6074  0.2339
 1534TIP3    H128797   0.640   3.952   9.200 -0.8899 -1.3270  2.0141
 1534TIP3    H228798   0.491   3.927   9.217 -1.5516  1.9344  1.6441
 1535TIP3   OH228799   2.145   7.151   8.258  0.1369 -0.1584 -0.2496
 1535TIP3    H128800   2.093   7.180   8.183  0.0267  0.4199  0.0367
 1535TIP3    H228801   2.236   7.158   8.229  0.0557 -1.7343 -0.9473
 1536TIP3   OH228802   2.900   6.255   7.609  0.3594  0.1150  0.2186
 1536TIP3    H128803   2.962   6.209   7.552  0.3106 -0.6088  0.7388
 1536TIP3    H228804   2.843   6.186   7.643  0.8086  0.4360  1.6810
 1537TIP3   OH228805   1.208   3.253   6.851 -0.4710 -0.2802 -0.4919
 1537TIP3    H128806   1.298   3.263   6.880 -0.2035 -2.3196 -0.4529
 1537TIP3    H228807   1.178   3.342   6.833  1.2366  0.5147  0.3760
 1538TIP3   OH228808   0.117   0.007   8.746  0.1842  0.0907 -0.2328
 1538TIP3    H128809   0.155   0.018   8.833  0.6569 -0.8908 -0.3069
 1538TIP3    H228810   0.034   0.054   8.750  0.1163 -0.1005  0.8104
 1539TIP3   OH228811   2.295   6.862   8.280 -0.2345 -0.1902  0.3165
 1539TIP3    H128812   2.217   6.901   8.321 -0.0157  0.5112  0.0780
 1539TIP3    H228813   2.349   6.937   8.255 -0.0978 -0.6238 -0.7413
 1540TIP3   OH228814   5.938   5.337   7.079 -0.6953  0.7190  0.3314
 1540TIP3    H128815   5.964   5.269   7.141 -2.0854 -1.3609 -1.2188
 1540TIP3    H228816   5.975   5.308   6.996 -1.3447  1.8566 -0.3807
 1541TIP3   OH228817   2.081   4.776   7.924 -0.1032 -0.0406 -0.2346
 1541TIP3    H128818   2.101   4.844   7.989  1.5883 -0.3559 -0.3799
 1541TIP3    H228819   2.087   4.694   7.972 -0.1098 -0.2064 -0.5154
 1542TIP3   OH228820   7.154   1.666   7.928 -0.3397  0.1594  0.3679
 1542TIP3    H128821   7.059   1.665   7.939 -0.6106 -1.6788 -1.6207
 1542TIP3    H228822   7.175   1.582   7.888  2.0374  0.8705 -0.0480
 1543TIP3   OH228823   0.039   4.189   8.480  0.8155 -0.4016 -0.5521
 1543TIP3    H128824   0.090   4.217   8.556  0.6188  0.6595 -0.7935
 1543TIP3    H228825   0.092   4.218   8.405  0.2226  0.0531 -0.8057
 1544TIP3   OH228826   1.379   2.986   7.916  0.1520 -0.0777 -0.3053
 1544TIP3    H128827   1.369   3.081   7.924  4.1587  0.5836 -1.0063
 1544TIP3    H228828   1.437   2.962   7.988 -0.1510 -1.8653 -0.6121
 1545TIP3   OH228829   4.791   3.891   8.834  0.3320  0.1779  0.6441
 1545TIP3    H128830   4.703   3.928   8.829  0.0419  0.2511  4.1649
 1545TIP3    H228831   4.848   3.960   8.800 -0.7267  1.5152  1.4629
 1546TIP3   OH228832   7.239   4.070   9.271  0.3466  0.3196 -0.4394
 1546TIP3    H128833   7.177   4.055   9.200 -0.4454  0.2304  0.2422
 1546TIP3    H228834   7.255   4.164   9.270  1.3265  0.1591 -1.5101
 1547TIP3   OH228835   0.801   5.894   8.396  0.6621 -0.1955 -0.2739
 1547TIP3    H128836   0.839   5.860   8.315  1.9850 -0.6173  0.4816
 1547TIP3    H228837   0.713   5.857   8.398  0.7967 -0.6126 -1.2560
 1548TIP3   OH228838   2.236   0.404   6.681  0.6549 -0.4097 -0.6578
 1548TIP3    H128839   2.195   0.333   6.731  1.8187 -0.9909 -0.4890
 1548TIP3    H228840   2.297   0.359   6.623  0.4038  0.3733 -1.5390
 1549TIP3   OH228841   6.534   3.732   7.719  0.0575  0.7345  0.4409
 1549TIP3    H128842   6.462   3.794   7.735 -0.3929  0.2908  0.1321
 1549TIP3    H228843   6.505   3.679   7.645  1.5516  1.8720 -1.0371
 1550TIP3   OH228844   4.914   0.292   6.779 -0.3401 -0.6518  0.0148
 1550TIP3    H128845   4.906   0.280   6.684 -0.1356  2.4090 -0.4776
 1550TIP3    H228846   4.999   0.252   6.801  0.4712  0.1655 -1.4521
 1551TIP3   OH228847   4.624   6.270   8.113  0.1615 -0.4435 -0.3161
 1551TIP3    H128848   4.533   6.240   8.110 -0.3623  1.1355 -1.5005
 1551TIP3    H228849   4.642   6.301   8.024  2.2477 -1.7408 -0.4065
 1552TIP3   OH228850   4.064   3.657   8.846  0.0938  0.1623  0.4468
 1552TIP3    H128851   4.033   3.747   8.858  0.1544  0.1102  1.0304
 1552TIP3    H228852   4.085   3.651   8.753  0.3782  0.8446  0.4603
 1553TIP3   OH228853   1.669   1.048   7.020  0.1607 -0.3756  0.5425
 1553TIP3    H128854   1.634   0.959   7.009  1.2742 -0.7795  0.0798
 1553TIP3    H228855   1.682   1.079   6.930 -1.4348  0.7729  0.6817
 1554TIP3   OH228856   7.588   6.060   8.395  0.5108  0.5855 -0.2830
 1554TIP3    H128857   7.621   6.005   8.465 -0.4152 -2.1242 -1.8440
 1554TIP3    H228858   7.494   6.043   8.392  0.4412  1.0614 -1.7988
 1555TIP3   OH228859   1.993   5.892   6.551 -0.0847  0.3308 -0.0032
 1555TIP3    H128860   1.999   5.864   6.642 -0.0479  0.5511  0.0636
 1555TIP3    H228861   2.002   5.812   6.500 -1.2706  0.0527  0.2150
 1556TIP3   OH228862   6.095   2.467   8.536  0.2367 -0.5151 -0.5522
 1556TIP3    H128863   6.002   2.443   8.528  0.0275  0.0460  0.0964
 1556TIP3    H228864   6.137   2.425   8.461 -0.8306  0.5840 -1.8105
 1557TIP3   OH228865   1.397   5.948   7.468 -0.1710  0.0611  0.4131
 1557TIP3    H128866   1.361   5.864   7.439 -0.2687 -0.3491  1.6526
 1557TIP3    H228867   1.370   5.955   7.560  1.7681  0.3504  1.0126
 1558TIP3   OH228868   5.740   2.699   6.735  0.0544 -0.4718 -0.5603
 1558TIP3    H128869   5.646   2.690   6.749 -0.1828  1.0793 -0.9253
 1558TIP3    H228870   5.778   2.622   6.777 -1.3513 -1.0016 -0.1933
 1559TIP3   OH228871   4.620   5.756   8.520  0.2418 -0.3855  0.3415
 1559TIP3    H128872   4.550   5.788   8.577 -0.0144 -0.9916  0.3803
 1559TIP3    H228873   4.680   5.830   8.512 -0.8939  0.5016 -0.4995
 1560TIP3   OH228874   7.093   5.801   9.245  0.0208  0.0857  0.0251
 1560TIP3    H128875   7.019   5.743   9.263 -0.9970  0.8762 -1.3331
 1560TIP3    H228876   7.069   5.884   9.287  0.8911 -0.1076  0.9212
 1561TIP3   OH228877   0.688   6.704   8.550  0.2493  0.4254 -0.6603
 1561TIP3    H128878   0.639   6.681   8.629  0.2292  0.3781 -0.6864
 1561TIP3    H228879   0.693   6.623   8.500 -1.9884  1.0053 -1.9694
 1562TIP3   OH228880   6.166   1.949   9.100  0.4654 -0.2593  0.3836
 1562TIP3    H128881   6.120   1.886   9.045  2.5166 -1.3396 -0.1780
 1562TIP3    H228882   6.237   1.982   9.044  1.0714  0.5036  1.5675
 1563TIP3   OH228883   1.834   6.755   9.199 -0.1032  0.0389 -0.1464
 1563TIP3    H128884   1.868   6.830   9.247  1.1223 -0.9772  0.6205
 1563TIP3    H228885   1.783   6.794   9.128  0.9771  1.5968 -0.1233
 1564TIP3   OH228886   4.012   4.739   7.816 -0.0439 -0.2259  0.0849
 1564TIP3    H128887   4.075   4.674   7.848  1.0214  1.3901  1.4288
 1564TIP3    H228888   4.050   4.770   7.734 -1.4212 -2.4441 -1.4908
 1565TIP3   OH228889   5.314   0.489   8.671  0.5583 -0.0754 -0.5255
 1565TIP3    H128890   5.376   0.532   8.730 -1.0412  1.4489  0.1295
 1565TIP3    H228891   5.274   0.561   8.622  0.2689 -1.1363 -1.9030
 1566TIP3   OH228892   6.074   7.189   8.019 -0.4524  0.5483 -0.2180
 1566TIP3    H128893   6.089   7.281   7.994  1.2530  0.2022 -0.5510
 1566TIP3    H228894   6.035   7.195   8.106 -3.6869  1.6750 -1.5755
 1567TIP3   OH228895   2.477   0.171   8.229 -0.1056  0.3016  0.3155
 1567TIP3    H128896   2.491   0.170   8.324  0.7294 -0.3764  0.1968
 1567TIP3    H228897   2.542   0.110   8.195  0.4649  1.4783 -0.8032
 1568TIP3   OH228898   0.249   6.927   7.778 -0.4246  0.4888 -0.0916
 1568TIP3    H128899   0.335   6.949   7.744  0.1214  0.6353  1.2994
 1568TIP3    H228900   0.201   6.892   7.703  1.8702 -2.6590 -0.2483
 1569TIP3   OH228901   3.303   4.756   7.543  0.3578 -0.6790  0.5813
 1569TIP3    H128902   3.326   4.695   7.613 -0.7349 -2.0291 -0.1927
 1569TIP3    H228903   3.218   4.791   7.568  0.3047 -0.5955  0.2837
 1570TIP3   OH228904   3.923   0.337   6.832  0.0864 -0.1227 -0.3177
 1570TIP3    H128905   3.905   0.353   6.925 -1.5462 -0.4434 -0.5541
 1570TIP3    H228906   3.971   0.254   6.831 -2.3692 -1.6236  0.0895
 1571TIP3   OH228907   2.696   2.148   8.378 -0.1320  0.6463 -0.3597
 1571TIP3    H128908   2.677   2.114   8.291 -0.4010  0.3883 -0.2023
 1571TIP3    H228909   2.770   2.207   8.366  0.7707 -0.4924 -0.5243
 1572TIP3   OH228910   4.711   6.706   8.690 -0.0738  0.8786  0.2612
 1572TIP3    H128911   4.707   6.802   8.696  0.1702  0.9128 -0.0969
 1572TIP3    H228912   4.770   6.689   8.616  1.7144  0.4472  1.6966
 1573TIP3   OH228913   3.823   5.292   9.281 -0.3210 -0.0265  0.6044
 1573TIP3    H128914   3.833   5.379   9.320  1.2588  0.1978 -0.2176
 1573TIP3    H228915   3.732   5.269   9.298 -0.4639  1.2944  1.8385
 1574TIP3   OH228916   1.834   1.132   9.410 -0.5357 -0.3481  0.2129
 1574TIP3    H128917   1.809   1.040   9.419 -2.9518  0.2331 -0.0815
 1574TIP3    H228918   1.804   1.174   9.490 -2.5399  0.7724 -1.0475
 1575TIP3   OH228919   5.085   1.598   8.802 -0.1696  0.1509 -0.3996
 1575TIP3    H128920   5.111   1.512   8.770  1.6441  0.5052  0.0058
 1575TIP3    H228921   5.009   1.622   8.749  1.0796 -0.4441 -2.5642
 1576TIP3   OH228922   5.915   4.756   7.562  0.1316  0.0540  0.3079
 1576TIP3    H128923   5.899   4.849   7.547  2.0531  0.1101 -1.9503
 1576TIP3    H228924   5.979   4.731   7.495 -2.0726 -3.4704 -0.7832
 1577TIP3   OH228925   1.048   0.923   8.821 -0.4676 -0.6282 -0.2649
 1577TIP3    H128926   1.006   0.876   8.750 -0.1856  0.9812 -1.5573
 1577TIP3    H228927   1.134   0.947   8.787 -1.0934  1.9536 -0.2294
 1578TIP3   OH228928   4.791   0.510   7.881  0.0631  0.5085 -0.0419
 1578TIP3    H128929   4.803   0.597   7.843 -0.8407  0.5990 -0.1316
 1578TIP3    H228930   4.806   0.522   7.975  2.0909  0.3264 -0.3066
 1579TIP3   OH228931   1.064   1.433   7.678 -0.0328 -0.2096  0.4673
 1579TIP3    H128932   1.035   1.516   7.715 -0.7250 -0.2167 -0.0501
 1579TIP3    H228933   1.105   1.456   7.595 -1.2259 -0.4736 -0.2170
 1580TIP3   OH228934   0.705   0.149   9.136  0.2435  0.0554  0.3425
 1580TIP3    H128935   0.709   0.055   9.149 -0.1703  0.1008  0.8192
 1580TIP3    H228936   0.789   0.172   9.097  0.0179 -0.6299 -0.5765
 1581TIP3   OH228937   6.080   5.236   7.300 -0.3111 -0.1967  0.2517
 1581TIP3    H128938   6.075   5.184   7.381 -2.7519  0.0695  0.3468
 1581TIP3    H228939   6.170   5.223   7.269  0.0445 -2.0731  1.8398
 1582TIP3   OH228940   1.189   3.401   9.155  0.0072  0.3070  0.4956
 1582TIP3    H128941   1.259   3.458   9.122  0.6333 -0.5960  0.2043
 1582TIP3    H228942   1.115   3.418   9.096  0.8304 -0.6411 -0.8776
 1583TIP3   OH228943   6.679   3.443   9.396 -0.3255 -0.3536 -0.1106
 1583TIP3    H128944   6.683   3.388   9.318 -0.1821 -0.0291 -0.3362
 1583TIP3    H228945   6.760   3.424   9.444  0.2801  0.4996 -0.7672
 1584TIP3   OH228946   4.036   0.205   9.185  0.3795  0.2352 -0.0227
 1584TIP3    H128947   4.083   0.186   9.103  0.6525 -1.9838  0.5842
 1584TIP3    H228948   4.045   0.125   9.237 -2.8550  0.2282  0.7255
 1585TIP3   OH228949   4.847   2.729   9.207  0.0450  0.2484  0.3137
 1585TIP3    H128950   4.911   2.714   9.138  0.1132 -0.2579  0.4817
 1585TIP3    H228951   4.895   2.779   9.273 -0.3036  1.6058 -0.4389
 1586TIP3   OH228952   3.703   2.924   7.257  0.1429 -0.0932  0.2214
 1586TIP3    H128953   3.741   3.005   7.292 -1.8052  1.4392 -1.0282
 1586TIP3    H228954   3.624   2.910   7.310 -0.0733 -0.6377 -0.2378
 1587TIP3   OH228955   5.590   5.559   7.600  0.0291  0.5259  0.3689
 1587TIP3    H128956   5.647   5.622   7.555 -1.1088  2.2362  1.2127
 1587TIP3    H228957   5.592   5.585   7.692 -1.4207  0.1216  0.5546
 1588TIP3   OH228958   1.493   4.682   7.977  0.6473  0.0842  0.3955
 1588TIP3    H128959   1.468   4.773   7.960  1.8852  0.9076  2.6168
 1588TIP3    H228960   1.589   4.684   7.977  0.6837 -1.1642  0.8227
 1589TIP3   OH228961   2.688   1.196   8.566 -0.3100 -0.7167  0.1535
 1589TIP3    H128962   2.737   1.155   8.494  2.2902  1.1519  0.7069
 1589TIP3    H228963   2.725   1.158   8.645 -1.3445 -0.8688  0.5836
 1590TIP3   OH228964   0.159   1.027   7.996 -0.1429  0.0584 -0.2157
 1590TIP3    H128965   0.140   1.025   8.090 -0.6801  0.7038 -0.3015
 1590TIP3    H228966   0.193   0.940   7.976  0.2233  0.0037  0.6260
 1591TIP3   OH228967   4.599   4.547   7.687  0.7169  0.6896  0.2919
 1591TIP3    H128968   4.666   4.615   7.676 -0.1751  1.8782  1.8072
 1591TIP3    H228969   4.525   4.577   7.634  1.2287 -0.4571 -1.1234
 1592TIP3   OH228970   6.410   2.339   7.827 -0.0418  0.5419  0.5610
 1592TIP3    H128971   6.326   2.378   7.852 -0.1138  0.4940  0.3980
 1592TIP3    H228972   6.445   2.398   7.760 -0.7847 -0.3560 -0.6826
 1593TIP3   OH228973   3.276   7.497   8.626 -0.0011 -0.1376  0.3098
 1593TIP3    H128974   3.324   7.511   8.707 -0.4200  1.7527  0.2897
 1593TIP3    H228975   3.340   7.455   8.567  0.9205  0.2752  0.9859
 1594TIP3   OH228976   1.357   2.156   6.969 -0.1606 -0.5627 -0.7950
 1594TIP3    H128977   1.263   2.167   6.980 -0.4067  0.4242 -3.2149
 1594TIP3    H228978   1.380   2.085   7.030 -1.8620  1.1276  2.0578
 1595TIP3   OH228979   7.443   1.920   8.872  0.3694  0.0673  0.0341
 1595TIP3    H128980   7.423   1.827   8.874 -1.2458  0.2013 -3.0552
 1595TIP3    H228981   7.390   1.959   8.941 -0.7980 -1.0510 -0.2111
 1596TIP3   OH228982   4.761   0.923   7.449 -0.2898  0.2303 -0.2738
 1596TIP3    H128983   4.856   0.931   7.440 -0.1435  1.1532  1.5105
 1596TIP3    H228984   4.730   0.903   7.361  1.4306  1.2782 -1.1798
 1597TIP3   OH228985   2.729   4.308   7.389 -0.3533 -0.0788 -0.1780
 1597TIP3    H128986   2.818   4.323   7.423  0.1136 -0.1817 -1.3160
 1597TIP3    H228987   2.707   4.220   7.419 -0.1978  0.0627  0.3688
 1598TIP3   OH228988   6.160   0.064   7.580 -0.6483  0.6029 -0.1758
 1598TIP3    H128989   6.211  -0.017   7.575  0.2579  1.2223 -1.7747
 1598TIP3    H228990   6.198   0.120   7.513 -0.9885  2.5298  1.1732
 1599TIP3   OH228991   1.551   2.207   8.603 -0.3642 -0.2217  0.0133
 1599TIP3    H128992   1.506   2.290   8.614  1.4082  1.1329 -2.0583
 1599TIP3    H228993   1.513   2.170   8.523 -0.6578 -1.0860  0.5435
 1600TIP3   OH228994   1.329   5.943   8.669  0.7501  0.0736 -0.1929
 1600TIP3    H128995   1.336   6.030   8.631 -0.0327 -0.5034 -1.7543
 1600TIP3    H228996   1.249   5.907   8.632  0.5785 -0.9884  1.1306
 1601TIP3   OH228997   1.386   1.767   8.664  0.0401 -0.0769 -0.1878
 1601TIP3    H128998   1.367   1.844   8.610  0.5144  1.8583  2.1935
 1601TIP3    H228999   1.312   1.762   8.725  1.5615  0.6765  1.8751
 1602TIP3   OH229000   5.808   7.136   7.487 -0.4867  0.4511  0.0421
 1602TIP3    H129001   5.767   7.176   7.564 -0.4812  1.6872 -0.5676
 1602TIP3    H229002   5.763   7.176   7.412 -0.2142 -0.4211 -0.6079
 1603TIP3   OH229003   6.804   6.838   8.937  0.1171  0.4640 -0.0119
 1603TIP3    H129004   6.875   6.775   8.947  1.4217  1.7752 -0.6402
 1603TIP3    H229005   6.785   6.866   9.027  0.6088  0.3367  0.1364
 1604TIP3   OH229006   3.810   6.068   9.480  0.1015 -0.0403 -0.1328
 1604TIP3    H129007   3.759   5.987   9.483  1.3134 -1.0772 -3.2855
 1604TIP3    H229008   3.746   6.137   9.499 -1.2493 -1.5795  1.3004
 1605TIP3   OH229009   1.386   3.397   7.554  0.4624 -0.1273  0.2892
 1605TIP3    H129010   1.455   3.460   7.533  0.1608  0.4186  0.9141
 1605TIP3    H229011   1.404   3.372   7.645  1.2348 -1.7880 -0.2748
 1606TIP3   OH229012   6.765   0.762   8.640 -0.2475  0.3877  0.1152
 1606TIP3    H129013   6.816   0.682   8.627  0.9594  1.2571 -0.8455
 1606TIP3    H229014   6.706   0.742   8.712  1.2598 -0.7940  1.0865
 1607TIP3   OH229015   7.073   3.514   7.611 -0.3086 -0.0400 -0.2648
 1607TIP3    H129016   7.080   3.561   7.528  0.2902 -1.0686 -0.8275
 1607TIP3    H229017   7.161   3.478   7.625  0.4706  2.5346  2.3535
 1608TIP3   OH229018   2.392   6.944   9.018 -0.4549 -0.1254 -0.2892
 1608TIP3    H129019   2.323   6.951   9.083 -0.8258  0.7478 -0.7554
 1608TIP3    H229020   2.473   6.936   9.069 -0.9039 -1.3538  0.2576
 1609TIP3   OH229021   1.073   6.635   8.131 -0.5737 -0.3066  0.2286
 1609TIP3    H129022   1.161   6.656   8.100 -1.0065 -0.1192 -0.9571
 1609TIP3    H229023   1.023   6.616   8.051 -1.3927 -1.2840  0.9351
 1610TIP3   OH229024   5.452   3.690   7.993  0.4524  0.4316 -0.3578
 1610TIP3    H129025   5.474   3.624   8.058  1.1355  0.5725 -0.4346
 1610TIP3    H229026   5.436   3.640   7.913 -2.4220  0.0621  0.3415
 1611TIP3   OH229027   4.444   0.600   9.069  0.4702  0.0298  0.0250
 1611TIP3    H129028   4.518   0.566   9.019  0.9506  2.2350 -0.9026
 1611TIP3    H229029   4.481   0.673   9.119 -0.7570  0.1342  0.8135
 1612TIP3   OH229030   3.010   1.617   8.114 -0.2367  0.5969  0.1333
 1612TIP3    H129031   3.105   1.610   8.105 -0.2771  1.3988 -1.3712
 1612TIP3    H229032   2.992   1.587   8.202  1.1740 -1.7550 -0.2916
 1613TIP3   OH229033   3.213   0.371   9.363 -0.3482  0.4792 -0.2683
 1613TIP3    H129034   3.249   0.283   9.369  0.5251  0.8126 -0.4627
 1613TIP3    H229035   3.219   0.394   9.270  0.5894  1.1987 -0.0512
 1614TIP3   OH229036   0.635   3.934   8.282  0.3166 -0.3858  0.0279
 1614TIP3    H129037   0.673   3.894   8.360  0.4067 -1.0606 -0.3591
 1614TIP3    H229038   0.564   3.875   8.256 -0.7696  0.6532  0.5125
 1615TIP3   OH229039   4.713   0.331   8.577  0.5511 -0.1545  0.1345
 1615TIP3    H129040   4.761   0.311   8.657  0.5769 -1.0303 -0.0834
 1615TIP3    H229041   4.637   0.381   8.606  0.4105 -0.7101  0.7509
 1616TIP3   OH229042   0.452   2.451   9.044 -0.4206  0.5413 -0.1285
 1616TIP3    H129043   0.518   2.506   9.085 -1.7011  0.9870  1.4330
 1616TIP3    H229044   0.466   2.364   9.082 -0.0788  0.3791 -0.6080
 1617TIP3   OH229045   0.906   1.790   8.844  0.1665  0.3845  0.3025
 1617TIP3    H129046   0.819   1.794   8.884  0.2786 -0.3884  0.6297
 1617TIP3    H229047   0.889   1.799   8.750 -0.1720  1.2901  0.4362
 1618TIP3   OH229048   3.062   2.635   8.082  0.4404 -0.1262 -0.1185
 1618TIP3    H129049   3.142   2.687   8.077  1.8044 -2.1748 -1.0442
 1618TIP3    H229050   3.089   2.552   8.122 -1.3573 -0.6456  0.1222
 1619TIP3   OH229051   2.727   0.145   7.058 -0.0816  0.0015 -0.2768
 1619TIP3    H129052   2.664   0.216   7.063  1.4432  1.4018  0.0384
 1619TIP3    H229053   2.784   0.158   7.134  0.1768 -1.6400 -0.1495
 1620TIP3   OH229054   0.608   6.647   8.083 -0.1726 -0.4808  0.4585
 1620TIP3    H129055   0.521   6.660   8.120  0.0238  0.1767  0.6888
 1620TIP3    H229056   0.659   6.721   8.115  0.7630 -1.4269  1.2073
 1621TIP3   OH229057   4.421   4.284   9.033  0.0237 -0.1216 -0.3413
 1621TIP3    H129058   4.412   4.216   9.099 -0.5924  1.9072  1.8027
 1621TIP3    H229059   4.509   4.272   8.998  0.0768 -1.7346  0.2810
 1622TIP3   OH229060   1.830   4.434   8.533  0.2911  0.3673  0.5547
 1622TIP3    H129061   1.896   4.386   8.583 -0.1963 -0.9080  0.0424
 1622TIP3    H229062   1.875   4.463   8.454  0.2185 -0.6681  0.1145
 1623TIP3   OH229063   5.719   2.342   7.328 -0.0302  0.1010 -0.3190
 1623TIP3    H129064   5.709   2.279   7.399  1.4894 -0.2652 -0.3883
 1623TIP3    H229065   5.676   2.421   7.360  1.6793  0.3544  1.5887
 1624TIP3   OH229066   2.727   2.327   9.054 -0.1076 -0.0126 -0.0591
 1624TIP3    H129067   2.752   2.272   8.979 -2.1586 -0.3773 -0.5414
 1624TIP3    H229068   2.732   2.416   9.021  0.3116 -0.0943 -0.2189
 1625TIP3   OH229069   3.008   6.584   7.848 -0.4379  0.0036  0.3813
 1625TIP3    H129070   3.052   6.499   7.840 -0.7382 -0.0865 -0.3901
 1625TIP3    H229071   3.008   6.601   7.942  2.2617  0.5615  0.3651
 1626TIP3   OH229072   2.019   4.759   8.511 -0.0178  0.2504  0.4856
 1626TIP3    H129073   2.074   4.816   8.457 -0.7247  0.5099  0.0190
 1626TIP3    H229074   2.004   4.682   8.457 -0.1525  0.1993  0.5950
 1627TIP3   OH229075   4.256   6.441   7.811  0.0379 -0.1430 -0.3577
 1627TIP3    H129076   4.313   6.367   7.791 -1.6328 -1.7918  0.7380
 1627TIP3    H229077   4.172   6.419   7.772  0.1988  2.6374 -2.6975
 1628TIP3   OH229078   7.007   2.979   9.161 -0.9828 -0.5061 -0.0208
 1628TIP3    H129079   7.099   2.954   9.165 -1.1539 -1.1278  0.1001
 1628TIP3    H229080   7.009   3.075   9.158 -0.3679 -0.4720  0.9837
 1629TIP3   OH229081   6.293   7.621   9.206 -0.1030  0.2570  0.4597
 1629TIP3    H129082   6.377   7.644   9.247 -0.0468  3.7951 -1.2588
 1629TIP3    H229083   6.316   7.560   9.136  0.8327  0.1734  0.8266
 1630TIP3   OH229084   6.363   6.290   6.696  0.3385 -0.5136 -0.0119
 1630TIP3    H129085   6.292   6.351   6.716  0.6297 -0.7254  1.8043
 1630TIP3    H229086   6.418   6.337   6.633 -2.3595 -1.0560 -3.0306
 1631TIP3   OH229087   5.269   5.305   9.498 -0.6264  0.1944 -0.0898
 1631TIP3    H129088   5.257   5.235   9.562  1.2826 -0.1309 -0.0180
 1631TIP3    H229089   5.270   5.260   9.413 -1.0226  0.3424 -0.1724
 1632TIP3   OH229090   6.208   4.666   9.604 -0.4152  0.6469  0.2820
 1632TIP3    H129091   6.298   4.635   9.604 -0.1140  1.4843 -0.0355
 1632TIP3    H229092   6.171   4.634   9.686  0.0849  0.0704  0.2877
 1633TIP3   OH229093   3.937   7.580   8.325  0.0465  0.0274  0.0901
 1633TIP3    H129094   3.940   7.583   8.420 -2.3650 -0.3308  0.2268
 1633TIP3    H229095   3.970   7.493   8.302  0.2257 -0.0432  0.6034
 1634TIP3   OH229096   4.796   6.423   8.698  0.1289 -0.1229 -0.2630
 1634TIP3    H129097   4.748   6.503   8.719  0.6121  0.4668 -1.3580
 1634TIP3    H229098   4.742   6.379   8.632 -0.2030 -0.7831  0.4304
 1635TIP3   OH229099   3.235   0.456   8.364  0.8343 -0.2765 -0.6657
 1635TIP3    H129100   3.174   0.491   8.428 -0.2462  0.3625 -1.9890
 1635TIP3    H229101   3.265   0.373   8.402  0.1730  0.0406  0.6075
 1636TIP3   OH229102   7.497   6.792   7.234 -0.7050  0.5085  0.2811
 1636TIP3    H129103   7.420   6.849   7.234 -2.8516 -2.1933  1.9136
 1636TIP3    H229104   7.561   6.840   7.288 -1.7201  2.1426  0.1197
 1637TIP3   OH229105   0.634   2.205   8.748  0.4908 -0.4701 -0.2824
 1637TIP3    H129106   0.582   2.284   8.758  1.6083  0.3869 -0.9929
 1637TIP3    H229107   0.591   2.156   8.678  0.3995  0.0422 -0.5889
 1638TIP3   OH229108   6.976   4.267   7.583 -0.0022 -0.6534  0.0552
 1638TIP3    H129109   6.897   4.311   7.552  0.0386 -0.6203 -0.0017
 1638TIP3    H229110   6.959   4.174   7.569  0.6105 -0.5573 -1.4650
 1639TIP3   OH229111   5.584   4.371   7.770  0.1555 -0.0022 -0.4213
 1639TIP3    H129112   5.600   4.444   7.830 -0.8458 -0.0040 -0.1399
 1639TIP3    H229113   5.546   4.302   7.825  1.6613 -0.9893 -0.5593
 1640TIP3   OH229114   2.164   6.082   6.860 -0.6143  0.5166  0.2418
 1640TIP3    H129115   2.154   6.135   6.781  1.0960  1.0929  0.3812
 1640TIP3    H229116   2.123   5.998   6.838 -1.3957  1.1374 -0.7478
 1641TIP3   OH229117   1.530   5.506   7.545  0.5874  0.0779  0.4409
 1641TIP3    H129118   1.618   5.528   7.512  0.4746  0.2694  0.2632
 1641TIP3    H229119   1.508   5.580   7.602  0.4315  0.1605  0.2733
 1642TIP3   OH229120   5.745   0.231   8.119 -0.2488  0.2575  0.4517
 1642TIP3    H129121   5.739   0.252   8.213  0.4927 -0.4259  0.6667
 1642TIP3    H229122   5.665   0.182   8.100 -0.1856 -0.0002  0.8399
 1643TIP3   OH229123   5.012   4.439   8.261  0.2485  0.3386  0.4795
 1643TIP3    H129124   4.945   4.467   8.199 -0.1018 -1.0966  0.1527
 1643TIP3    H229125   5.081   4.504   8.254 -0.7262  1.3768  0.1851
 1644TIP3   OH229126   3.629   1.159   8.398  0.4757  0.1051  0.2223
 1644TIP3    H129127   3.657   1.227   8.337  0.0379 -0.3509 -0.5193
 1644TIP3    H229128   3.623   1.080   8.343  0.1880 -0.3437  0.8911
 1645TIP3   OH229129   0.444   0.268   8.991  0.6694  0.6510 -0.0351
 1645TIP3    H129130   0.485   0.188   8.957  0.9631  0.3743  0.9526
 1645TIP3    H229131   0.513   0.309   9.043 -0.1034  0.5157  1.1083
 1646TIP3   OH229132   1.436   2.444   8.607  0.2287  0.3003  0.0947
 1646TIP3    H129133   1.483   2.492   8.539  1.0688  0.2798  0.6432
 1646TIP3    H229134   1.352   2.489   8.615 -0.8376 -1.0358 -2.4967
 1647TIP3   OH229135   1.122   1.812   9.365  0.3423  0.3810 -0.1231
 1647TIP3    H129136   1.187   1.758   9.320  0.7703  0.6153  0.2084
 1647TIP3    H229137   1.049   1.752   9.383  1.6133 -0.6142  2.0364
 1648TIP3   OH229138   2.338   7.421   7.630  0.2554 -0.2160 -0.2487
 1648TIP3    H129139   2.276   7.373   7.575 -0.5845 -1.1889  1.4807
 1648TIP3    H229140   2.293   7.501   7.653  0.0268 -0.4601  0.1702
 1649TIP3   OH229141   0.566   1.505   7.140  0.0092  0.6508 -0.2124
 1649TIP3    H129142   0.570   1.499   7.235  0.5830  0.1424 -0.2603
 1649TIP3    H229143   0.475   1.487   7.118 -0.1973  1.1294  0.2649
 1650TIP3   OH229144   3.436   1.772   9.584 -0.1993  0.1855  0.2997
 1650TIP3    H129145   3.354   1.772   9.534 -0.4261 -0.8664  0.6446
 1650TIP3    H229146   3.483   1.695   9.554  0.3086  0.3428  0.6754
 1651TIP3   OH229147   7.436   0.512   7.442  0.3054  0.1320 -0.7074
 1651TIP3    H129148   7.479   0.570   7.380  0.9680  0.8921  0.4162
 1651TIP3    H229149   7.491   0.516   7.521 -0.0843 -1.3876 -0.3213
 1652TIP3   OH229150   3.405   1.080   7.897  0.1918 -0.2268 -0.2681
 1652TIP3    H129151   3.324   1.081   7.847  0.7279 -1.7984 -1.2438
 1652TIP3    H229152   3.389   1.018   7.968  0.2768  0.0570 -0.0001
 1653TIP3   OH229153   0.049   2.696   7.470  0.0312 -0.8512  0.2923
 1653TIP3    H129154   0.092   2.759   7.412  0.0383  0.7277  1.8860
 1653TIP3    H229155   0.066   2.730   7.558 -0.3251 -2.9043  1.2163
 1654TIP3   OH229156   4.562   7.639   9.151 -0.0878  0.3129  0.1562
 1654TIP3    H129157   4.626   7.677   9.091  0.6092 -1.2188 -0.0953
 1654TIP3    H229158   4.512   7.578   9.097 -1.3447  0.9884  0.5089
 1655TIP3   OH229159   0.465   2.151   7.387  0.5840  0.1791  0.4328
 1655TIP3    H129160   0.530   2.140   7.317  1.3479  0.8462  1.0064
 1655TIP3    H229161   0.505   2.109   7.463 -0.3585 -0.7812  0.4232
 1656TIP3   OH229162   7.619   6.674   7.848  0.2593  0.2434  0.0607
 1656TIP3    H129163   7.603   6.596   7.902  0.5978 -0.0982 -0.3180
 1656TIP3    H229164   7.603   6.644   7.758 -1.2908  1.0726  0.0421
 1657TIP3   OH229165   1.053   0.915   7.659  0.2958  0.3743  0.1982
 1657TIP3    H129166   1.074   0.887   7.748  1.3340 -2.1609 -0.7685
 1657TIP3    H229167   1.106   0.859   7.603 -1.7670  0.5754 -2.1002
 1658TIP3   OH229168   7.553   0.506   6.874  0.4769  0.6568 -0.3769
 1658TIP3    H129169   7.636   0.498   6.827  0.2787  1.5998 -0.9065
 1658TIP3    H229170   7.500   0.564   6.820  1.1464  3.9918  2.1988
 1659TIP3   OH229171   7.299   2.326   9.349  0.0423 -0.2603  0.1395
 1659TIP3    H129172   7.345   2.248   9.320  0.7326 -0.2648  1.1850
 1659TIP3    H229173   7.368   2.386   9.377 -0.4933  0.6212 -0.3742
 1660TIP3   OH229174   1.632   6.779   7.260  0.1816 -0.6987  0.1964
 1660TIP3    H129175   1.686   6.771   7.338  0.1137 -0.3076  0.2864
 1660TIP3    H229176   1.549   6.816   7.291  1.1093  2.1466 -0.4070
 1661TIP3   OH229177   2.094   7.508   8.926 -0.4810 -0.4597 -0.0833
 1661TIP3    H129178   2.056   7.570   8.864  0.1554  0.3590  0.3234
 1661TIP3    H229179   2.184   7.539   8.939 -0.0835 -1.5883 -0.0207
 1662TIP3   OH229180   6.271   5.050   8.754  0.2094 -0.2150  0.2225
 1662TIP3    H129181   6.271   5.032   8.849  0.7433 -2.0670 -0.0894
 1662TIP3    H229182   6.229   5.136   8.746  3.9050  2.0981  2.4775
 1663TIP3   OH229183   0.965   6.485   8.711 -0.2814  0.1118  0.3354
 1663TIP3    H129184   1.015   6.468   8.791  0.8493 -1.8243 -0.6986
 1663TIP3    H229185   1.001   6.568   8.678  1.0476 -0.3657  0.5192
 1664TIP3   OH229186   0.417   2.391   8.759  0.1278 -0.3312  0.3556
 1664TIP3    H129187   0.414   2.430   8.846 -0.0588 -2.9303  1.5965
 1664TIP3    H229188   0.329   2.404   8.724  0.2159  0.7609  0.4948
 1665TIP3   OH229189   3.854   3.021   7.054 -0.0158  0.3368 -0.3400
 1665TIP3    H129190   3.863   2.931   7.083 -0.5465  0.3349 -0.1740
 1665TIP3    H229191   3.768   3.049   7.087  0.3647  1.0715  0.0796
 1666TIP3   OH229192   0.816   6.264   8.673 -1.1046  0.1110 -0.5738
 1666TIP3    H129193   0.851   6.353   8.681  0.6278 -0.3984 -1.8477
 1666TIP3    H229194   0.722   6.276   8.658 -0.6586  1.8375 -2.4014
 1667TIP3   OH229195   1.819   2.701   7.158  0.5985 -0.0160 -0.6330
 1667TIP3    H129196   1.890   2.750   7.198  0.9433 -0.7722 -0.3015
 1667TIP3    H229197   1.774   2.765   7.102  1.4461  0.5031 -0.7398
 1668TIP3   OH229198   7.032   4.617   8.269 -0.1701 -0.0412 -0.2547
 1668TIP3    H129199   7.120   4.596   8.300 -0.3134 -0.8125 -0.3448
 1668TIP3    H229200   6.974   4.584   8.338 -0.4009  0.1788 -0.3423
 1669TIP3   OH229201   6.330   4.753   7.485  0.5311 -0.0070 -0.3230
 1669TIP3    H129202   6.391   4.817   7.449  1.6747 -1.5696 -1.3387
 1669TIP3    H229203   6.327   4.772   7.579  1.1171  1.2905 -0.5512
 1670TIP3   OH229204   1.788   1.909   7.464  0.2035 -0.4931  0.4013
 1670TIP3    H129205   1.823   1.970   7.400 -1.5876  0.8896  0.6683
 1670TIP3    H229206   1.779   1.961   7.544 -3.5612 -0.2744  0.0307
 1671TIP3   OH229207   0.071   7.428   7.253 -0.0959  0.1000  0.7069
 1671TIP3    H129208   0.015   7.417   7.330  0.0261  1.6919  1.0536
 1671TIP3    H229209   0.069   7.343   7.209 -2.9426  0.1555  0.5750
 1672TIP3   OH229210   7.404   3.192   7.272 -0.3008  0.0330 -0.0703
 1672TIP3    H129211   7.362   3.276   7.256 -2.4375 -1.0051 -0.1711
 1672TIP3    H229212   7.496   3.214   7.289 -0.9781  2.4446  0.8215
 1673TIP3   OH229213   3.481   1.778   7.915 -0.0956 -0.3821  0.6202
 1673TIP3    H129214   3.440   1.768   8.002 -1.0415 -0.3587  0.1867
 1673TIP3    H229215   3.486   1.688   7.882  0.9646 -0.4721  1.0046
 1674TIP3   OH229216   6.413   5.578   8.048 -0.3876  0.5473 -0.1883
 1674TIP3    H129217   6.438   5.616   7.964 -0.4303  3.2670  0.9231
 1674TIP3    H229218   6.318   5.588   8.052 -0.2979  1.2455  0.5095
 1675TIP3   OH229219   6.406   3.907   6.977 -0.0477 -0.1484 -0.7490
 1675TIP3    H129220   6.400   3.827   7.029 -0.1169  0.4132  0.1285
 1675TIP3    H229221   6.480   3.892   6.919  0.3238 -0.6169 -0.1723
 1676TIP3   OH229222   3.986   3.879   7.126  0.1982  0.2102 -0.1837
 1676TIP3    H129223   4.004   3.885   7.032 -3.2142 -1.0930 -1.0833
 1676TIP3    H229224   3.910   3.935   7.139 -1.7106 -2.4686  0.9596
 1677TIP3   OH229225   2.332   4.411   9.016  0.2454  0.0085  0.1769
 1677TIP3    H129226   2.400   4.444   9.075  0.0034  0.7790  0.0295
 1677TIP3    H229227   2.370   4.420   8.929  0.4602 -0.7914  0.1744
 1678TIP3   OH229228   2.672   7.608   8.215 -0.2937 -0.0408  0.4869
 1678TIP3    H129229   2.605   7.553   8.255  1.3642 -1.6929  1.1356
 1678TIP3    H229230   2.742   7.614   8.281  1.7127 -1.3143 -1.3821
 1679TIP3   OH229231   1.091   3.031   7.749  0.0109 -0.0182 -0.1491
 1679TIP3    H129232   1.098   2.942   7.783 -0.9755  0.3286  1.0186
 1679TIP3    H229233   1.169   3.075   7.781 -0.1618 -0.1071  0.3969
 1680TIP3   OH229234   4.186   7.422   9.113 -0.2967  0.1962  0.1436
 1680TIP3    H129235   4.162   7.412   9.021 -0.3775  2.2494 -0.1167
 1680TIP3    H229236   4.278   7.396   9.117 -0.4139 -0.3201 -0.4201
 1681TIP3   OH229237   5.724   3.250   8.724 -0.0898 -0.1899 -0.8279
 1681TIP3    H129238   5.752   3.332   8.764 -0.3929 -0.3488 -0.2760
 1681TIP3    H229239   5.701   3.194   8.798 -0.4350 -0.5731 -1.2184
 1682TIP3   OH229240   7.005   5.366   7.577 -0.0492  0.2689 -0.0435
 1682TIP3    H129241   7.040   5.280   7.550 -0.6770  0.1945 -0.6393
 1682TIP3    H229242   7.075   5.404   7.629  0.6012 -0.2323 -0.5230
 1683TIP3   OH229243   4.488   3.883   8.839 -0.1192  0.1791  0.4049
 1683TIP3    H129244   4.482   3.830   8.759  0.0283  1.0741 -0.2204
 1683TIP3    H229245   4.446   3.966   8.815  0.6241  0.7387  1.0092
 1684TIP3   OH229246   7.641   5.602   8.590 -0.5968 -0.4075  0.3452
 1684TIP3    H129247   7.651   5.525   8.646 -0.4084 -0.0398  0.8245
 1684TIP3    H229248   7.594   5.570   8.513  0.1222 -1.1612  0.2003
 1685TIP3   OH229249   5.725   0.271   8.817  0.0418  0.8909 -0.1270
 1685TIP3    H129250   5.636   0.295   8.842 -0.8363 -2.2260  0.1649
 1685TIP3    H229251   5.767   0.246   8.899  0.8224  1.2474 -0.4082
 1686TIP3   OH229252   0.925   6.899   8.906  0.6109  1.0157  0.1067
 1686TIP3    H129253   0.851   6.955   8.932 -1.5219 -1.2978 -0.5631
 1686TIP3    H229254   0.962   6.942   8.829 -0.9033  1.5988 -0.3332
 1687TIP3   OH229255   5.581   0.509   7.671  0.0337 -0.2838 -0.2676
 1687TIP3    H129256   5.622   0.448   7.608 -0.1797  0.0076 -0.6940
 1687TIP3    H229257   5.603   0.473   7.757 -0.4116 -1.1866 -0.5177
 1688TIP3   OH229258   2.350   0.562   6.957 -0.2168  0.0819  0.1903
 1688TIP3    H129259   2.370   0.572   6.864 -2.3364 -0.5983 -0.3772
 1688TIP3    H229260   2.324   0.471   6.967  2.0675 -0.4720  1.9311
 1689TIP3   OH229261   7.621   6.341   8.342  0.0941  0.3523  0.5113
 1689TIP3    H129262   7.555   6.367   8.279 -0.2049  1.0447  1.1030
 1689TIP3    H229263   7.588   6.258   8.378 -0.1067  0.3392  0.2956
 1690TIP3   OH229264   2.119   5.976   8.143 -0.0857  0.0287 -0.1589
 1690TIP3    H129265   2.086   5.914   8.078  1.8577 -1.7222  0.4217
 1690TIP3    H229266   2.195   6.016   8.103  1.2996 -1.2653  1.0240
 1691TIP3   OH229267   3.620   3.267   8.662  0.8107  0.1843 -0.6671
 1691TIP3    H129268   3.659   3.254   8.576  0.1065 -0.6299 -0.8766
 1691TIP3    H229269   3.560   3.193   8.673  0.1559  0.8064  0.1010
 1692TIP3   OH229270   3.834   6.214   8.218 -0.1304  0.2418 -0.6277
 1692TIP3    H129271   3.895   6.286   8.204 -1.4612  1.0424 -2.7521
 1692TIP3    H229272   3.839   6.197   8.312  1.3932  2.0352 -0.3176
 1693TIP3   OH229273   0.208   6.921   7.217  0.4641  0.7129 -0.3993
 1693TIP3    H129274   0.164   6.930   7.133 -0.3600 -0.6015 -0.1412
 1693TIP3    H229275   0.144   6.954   7.281 -1.1526 -2.9899  0.1865
 1694TIP3   OH229276   0.364   3.525   7.419  0.0692  0.0053 -0.4447
 1694TIP3    H129277   0.413   3.468   7.359 -1.0803  0.4332 -1.8723
 1694TIP3    H229278   0.307   3.576   7.361  1.1361  2.7495  0.7342
 1695TIP3   OH229279   2.959   6.766   6.634  0.4620  0.0025  0.0473
 1695TIP3    H129280   3.012   6.811   6.700 -1.2420  0.7965  0.9386
 1695TIP3    H229281   2.877   6.745   6.679 -0.8161  0.6771 -1.8190
 1696TIP3   OH229282   6.690   5.869   8.356  0.0498  0.6687 -0.2580
 1696TIP3    H129283   6.677   5.783   8.316 -0.8993  1.6799 -2.2701
 1696TIP3    H229284   6.668   5.856   8.448  0.0598 -1.2561 -0.4790
 1697TIP3   OH229285   5.853   4.357   7.125  0.4927  0.2805  0.3075
 1697TIP3    H129286   5.836   4.442   7.084 -2.6734 -0.4234 -0.0368
 1697TIP3    H229287   5.847   4.294   7.054 -0.1140 -0.5043  1.0400
 1698TIP3   OH229288   0.679   1.362   7.821 -0.5861  0.1832 -0.0725
 1698TIP3    H129289   0.592   1.327   7.841  0.1543 -0.1088  3.2822
 1698TIP3    H229290   0.737   1.286   7.827  0.2182  0.8271  0.5532
 1699TIP3   OH229291   4.381   6.625   8.657  0.7842 -0.0287  0.2743
 1699TIP3    H129292   4.453   6.614   8.718  2.8533  0.7897 -1.8408
 1699TIP3    H229293   4.415   6.686   8.591 -1.7796  0.2000 -0.9695
 1700TIP3   OH229294   3.813   3.111   9.337 -0.1971 -0.7844 -0.1761
 1700TIP3    H129295   3.775   3.058   9.407 -2.0057 -1.7552 -1.7910
 1700TIP3    H229296   3.745   3.114   9.270  0.2130  2.8020 -0.6121
 1701TIP3   OH229297   5.857   4.690   8.701  0.1603 -0.0305  0.0528
 1701TIP3    H129298   5.869   4.646   8.785  1.4252 -1.5142 -0.8500
 1701TIP3    H229299   5.940   4.732   8.684  0.5536 -1.2408 -1.2378
 1702TIP3   OH229300   5.810   2.714   7.485  0.1912  0.5653  0.0055
 1702TIP3    H129301   5.897   2.734   7.449  0.6723 -0.4805  0.5327
 1702TIP3    H229302   5.772   2.800   7.505  2.6592  1.1206  3.3915
 1703TIP3   OH229303   3.566   5.233   9.375  0.1665  0.0296 -0.4752
 1703TIP3    H129304   3.533   5.146   9.357 -0.0920  0.1519 -0.5976
 1703TIP3    H229305   3.541   5.250   9.466  1.4047 -0.5588 -0.0028
 1704TIP3   OH229306   2.538   1.056   8.298 -0.0203 -0.3832  0.5476
 1704TIP3    H129307   2.445   1.041   8.318 -0.0841 -0.1760  0.4040
 1704TIP3    H229308   2.547   1.151   8.300 -0.0499 -0.3550 -0.5544
 1705TIP3   OH229309   4.043   0.675   8.576  0.5334 -0.2790  0.2246
 1705TIP3    H129310   4.009   0.735   8.510  1.7780  1.3448  0.9779
 1705TIP3    H229311   3.969   0.618   8.597  0.1901 -1.0198 -2.6928
 1706TIP3   OH229312   2.321   4.109   8.276 -0.3527 -0.1087  0.1692
 1706TIP3    H129313   2.390   4.049   8.246  0.2462  1.4427 -1.7075
 1706TIP3    H229314   2.288   4.067   8.356 -0.0361 -2.9910 -1.0581
 1707TIP3   OH229315   0.155   7.266   7.840 -0.5242  0.9799 -0.5430
 1707TIP3    H129316   0.154   7.332   7.909  1.3222  1.9935 -1.4122
 1707TIP3    H229317   0.113   7.189   7.879 -1.4361  2.1952  0.9690
 1708TIP3   OH229318   5.189   3.302   8.796  0.4159 -0.1369 -0.0212
 1708TIP3    H129319   5.218   3.293   8.887  2.4787 -1.3070 -0.7284
 1708TIP3    H229320   5.127   3.231   8.783 -2.6882  2.0674  1.3559
 1709TIP3   OH229321   2.902   5.233   7.948  0.5763 -0.6611 -0.1148
 1709TIP3    H129322   2.909   5.325   7.973 -1.1886 -0.0398 -1.6515
 1709TIP3    H229323   2.989   5.210   7.916  0.9720  0.5779  0.0149
 1710TIP3   OH229324   5.452   0.117   8.098  0.5695 -0.7095  0.2832
 1710TIP3    H129325   5.400   0.095   8.020 -0.6349  1.6221  0.3415
 1710TIP3    H229326   5.422   0.054   8.164 -0.6783 -0.7737 -0.3024
 1711TIP3   OH229327   0.354   1.792   9.238 -0.0824  0.0234 -0.7538
 1711TIP3    H129328   0.393   1.705   9.245  0.4487  0.3959  1.8465
 1711TIP3    H229329   0.410   1.839   9.177  0.1081 -1.1982 -1.5467
 1712TIP3   OH229330   1.691   5.535   8.961 -0.4589  0.5934  0.3340
 1712TIP3    H129331   1.602   5.552   8.990 -1.1854  2.3636 -2.5366
 1712TIP3    H229332   1.736   5.620   8.971  1.1314 -0.3600  2.1266
 1713TIP3   OH229333   1.169   4.527   9.332  0.0060 -0.1846  0.1078
 1713TIP3    H129334   1.187   4.613   9.293 -1.7661 -0.9541 -2.6878
 1713TIP3    H229335   1.077   4.531   9.357  0.1508 -0.9957  0.7861
 1714TIP3   OH229336   6.344   4.832   8.392  0.1452  0.2537  0.1909
 1714TIP3    H129337   6.282   4.759   8.387  2.0332 -1.4823  1.0223
 1714TIP3    H229338   6.349   4.866   8.303 -0.7437 -0.6352 -0.2111
 1715TIP3   OH229339   0.905   1.077   7.244  0.0902  0.1752  0.3887
 1715TIP3    H129340   0.917   1.171   7.257 -0.7894  0.3834 -0.1629
 1715TIP3    H229341   0.962   1.055   7.170  0.4840  0.2209  0.6764
 1716TIP3   OH229342   1.852   7.648   8.565 -0.1477 -0.2127 -0.4287
 1716TIP3    H129343   1.766   7.634   8.525 -0.1119 -1.3804 -0.1280
 1716TIP3    H229344   1.839   7.627   8.657  0.3751  0.0036 -0.3034
 1717TIP3   OH229345   7.318   6.020   7.077 -0.4434  0.7255  0.1047
 1717TIP3    H129346   7.405   6.026   7.117  1.6789 -4.4206 -2.7924
 1717TIP3    H229347   7.326   6.069   6.995 -1.5430  2.9089  1.1960
 1718TIP3   OH229348   5.645   3.871   7.365 -0.0402  0.0165 -0.0347
 1718TIP3    H129349   5.692   3.952   7.346  1.9090 -1.2971 -1.2473
 1718TIP3    H229350   5.639   3.826   7.281  2.1329 -2.6305  1.0301
 1719TIP3   OH229351   7.151   2.572   9.448 -0.1739  0.3078 -0.4869
 1719TIP3    H129352   7.191   2.499   9.400 -0.5709 -0.2093 -0.0382
 1719TIP3    H229353   7.062   2.543   9.466 -0.5917  1.2393 -1.0035
 1720TIP3   OH229354   3.875   5.512   8.477  0.3676  0.0085  0.2720
 1720TIP3    H129355   3.799   5.562   8.508  0.2226  0.4509 -0.7714
 1720TIP3    H229356   3.950   5.556   8.517  0.0633 -0.8326  1.8502
 1721TIP3   OH229357   6.451   6.626   8.917  0.0380 -0.2388 -0.8829
 1721TIP3    H129358   6.472   6.719   8.929 -0.2264 -0.4611  2.3289
 1721TIP3    H229359   6.371   6.626   8.866 -0.4045  1.3706 -0.2694
 1722TIP3   OH229360   0.212   6.091   8.290  0.1754  0.3320  0.6220
 1722TIP3    H129361   0.227   6.009   8.243 -0.4750  0.4378  0.2223
 1722TIP3    H229362   0.125   6.081   8.329  0.4258  0.5155  1.2489
 1723TIP3   OH229363   6.315   3.091   8.691  0.3360 -0.4482  0.0488
 1723TIP3    H129364   6.234   3.138   8.713  1.5328  3.3875 -2.6851
 1723TIP3    H229365   6.310   3.078   8.596  2.6492 -0.6879 -0.1029
 1724TIP3   OH229366   1.478   6.037   8.879 -0.2700  0.4948 -0.8216
 1724TIP3    H129367   1.444   5.988   8.803 -1.0329 -0.9533  0.3818
 1724TIP3    H229368   1.454   5.983   8.954  1.1271  1.5165  0.4143
 1725TIP3   OH229369   0.504   2.136   9.475 -0.7501  0.2059  0.4356
 1725TIP3    H129370   0.542   2.055   9.508 -1.6349 -0.7362 -0.7771
 1725TIP3    H229371   0.579   2.193   9.459 -0.1101 -0.3933  1.2261
 1726TIP3   OH229372   0.358   7.517   7.775 -0.2704  0.5905 -0.6612
 1726TIP3    H129373   0.373   7.546   7.685 -1.2967 -1.0346 -1.3865
 1726TIP3    H229374   0.276   7.469   7.772  0.7311 -1.3594  0.6968
 1727TIP3   OH229375   6.943   4.875   7.327 -0.2194  0.1120  0.1068
 1727TIP3    H129376   6.951   4.781   7.337 -0.9210 -0.1091 -1.1813
 1727TIP3    H229377   6.872   4.887   7.263  0.8431  1.4496 -0.8994
 1728TIP3   OH229378   5.696   6.148   7.959 -0.3475  0.0299  0.1271
 1728TIP3    H129379   5.758   6.083   7.927  0.8541  0.6183  1.1632
 1728TIP3    H229380   5.717   6.228   7.910 -0.9123 -0.0040 -0.1765
 1729TIP3   OH229381   4.779   6.760   7.790  0.1401  0.0166  0.1228
 1729TIP3    H129382   4.754   6.778   7.700 -0.3071 -1.0338  0.0314
 1729TIP3    H229383   4.822   6.841   7.819  0.8718  0.1346 -1.2279
 1730TIP3   OH229384   0.175   0.025   8.278 -0.0235  0.4011 -0.1222
 1730TIP3    H129385   0.085  -0.005   8.289 -0.0140  0.7264  0.9517
 1730TIP3    H229386   0.227  -0.037   8.330  0.3642  0.2929 -0.6288
 1731TIP3   OH229387   4.691   1.189   7.480 -0.7677  0.2134 -0.1981
 1731TIP3    H129388   4.734   1.104   7.470  0.0679  0.7965 -1.9823
 1731TIP3    H229389   4.613   1.184   7.424 -0.8394  0.5560 -0.1358
 1732TIP3   OH229390   1.708   6.891   7.760  0.3275  0.0524  0.6700
 1732TIP3    H129391   1.764   6.948   7.709  0.1885 -0.4377 -0.0371
 1732TIP3    H229392   1.714   6.925   7.850 -0.2736  1.5920  0.1605
 1733TIP3   OH229393   7.016   6.912   7.637 -0.2437 -0.4518 -0.6205
 1733TIP3    H129394   6.981   6.826   7.614 -1.1142 -0.2826  0.0181
 1733TIP3    H229395   7.019   6.913   7.733  0.5418 -0.0713 -0.6411
 1734TIP3   OH229396   7.354   2.450   7.946 -0.2657  0.4504 -0.2513
 1734TIP3    H129397   7.413   2.526   7.943 -1.2267  1.2519  0.4084
 1734TIP3    H229398   7.301   2.464   8.025  0.0917 -1.3511  0.3592
 1735TIP3   OH229399   6.815   5.069   6.727 -0.1242  0.2647  0.1195
 1735TIP3    H129400   6.832   5.078   6.633 -0.0748 -0.6033  0.0440
 1735TIP3    H229401   6.879   5.127   6.768 -0.7774  1.4037 -0.4169
 1736TIP3   OH229402   7.193   5.276   7.914 -0.2608  0.6787  0.1524
 1736TIP3    H129403   7.170   5.192   7.874 -0.9067  1.1647 -0.5191
 1736TIP3    H229404   7.178   5.263   8.007  1.8703 -0.6832  0.3792
 1737TIP3   OH229405   5.041   4.261   7.976  0.0068 -0.1933 -0.1259
 1737TIP3    H129406   5.098   4.332   7.947  1.1520 -0.6254  0.9641
 1737TIP3    H229407   5.100   4.187   7.988 -0.9285 -0.8930  0.2225
 1738TIP3   OH229408   2.955   4.985   8.112 -0.1841 -0.7258 -0.2794
 1738TIP3    H129409   3.016   4.963   8.182 -1.1998 -0.7132  0.6261
 1738TIP3    H229410   2.939   5.078   8.122 -0.4022 -0.7419 -0.4776
 1739TIP3   OH229411   6.946   3.033   6.742  0.0247 -0.7684  0.7622
 1739TIP3    H129412   6.930   3.074   6.657  3.6575  0.2306  0.3969
 1739TIP3    H229413   6.922   2.941   6.729 -0.4116 -0.4337 -1.0590
 1740TIP3   OH229414   7.514   5.337   7.855 -0.1435  0.0610 -0.3350
 1740TIP3    H129415   7.531   5.262   7.798  3.5692 -0.4511  1.1467
 1740TIP3    H229416   7.456   5.302   7.923 -0.2456 -0.8279 -0.8555
 1741TIP3   OH229417   0.261   7.545   7.073  0.0986  0.0596  0.3438
 1741TIP3    H129418   0.175   7.522   7.108 -0.5808  1.5145 -0.2642
 1741TIP3    H229419   0.291   7.467   7.027 -0.2479 -0.9365  1.7538
 1742TIP3   OH229420   1.862   4.065   9.351  0.1564  0.3580  0.3333
 1742TIP3    H129421   1.881   4.122   9.276  0.0689 -0.5732 -0.4196
 1742TIP3    H229422   1.948   4.049   9.391  0.4190 -0.3666 -0.4919
 1743TIP3   OH229423   3.295   2.821   9.329 -0.3901 -0.5213  0.0042
 1743TIP3    H129424   3.295   2.895   9.269 -0.3326 -1.2186 -0.8672
 1743TIP3    H229425   3.387   2.797   9.339 -0.4153 -0.5350  0.2154
 1744TIP3   OH229426   1.170   3.454   9.437 -0.0828  0.1729 -0.4694
 1744TIP3    H129427   1.163   3.540   9.479  1.2354  0.4442 -0.7644
 1744TIP3    H229428   1.188   3.473   9.345  0.6514 -0.4095 -0.4585
 1745TIP3   OH229429   2.354   2.446   9.261  0.1274 -0.3721 -0.2477
 1745TIP3    H129430   2.418   2.389   9.303 -0.4854 -0.1498  1.0292
 1745TIP3    H229431   2.287   2.386   9.227 -0.4304 -0.4567  0.9459
 1746TIP3   OH229432   1.684   4.990   7.407 -0.1285  0.2477 -1.2380
 1746TIP3    H129433   1.717   4.973   7.495 -2.7338 -1.3784 -0.4486
 1746TIP3    H229434   1.683   5.086   7.400 -3.4041  0.7352  2.1542
 1747TIP3   OH229435   4.672   1.563   8.601 -0.0089  0.1624  0.9944
 1747TIP3    H129436   4.764   1.572   8.577 -0.6153  0.9858 -1.2761
 1747TIP3    H229437   4.635   1.650   8.589 -1.0327 -0.0509  2.3064
 1748TIP3   OH229438   0.889   6.179   7.557  0.2232  0.1483 -0.2486
 1748TIP3    H129439   0.858   6.252   7.504  1.3955  0.1494 -0.9680
 1748TIP3    H229440   0.828   6.176   7.631  0.0934  1.7860 -0.2499
 1749TIP3   OH229441   3.247   1.101   9.795 -0.1094 -0.7731 -0.4465
 1749TIP3    H129442   3.256   1.071   9.704 -1.9399 -0.5154 -0.7620
 1749TIP3    H229443   3.333   1.134   9.819  0.9344 -2.6473 -1.4214
 1750TIP3   OH229444   1.355   7.005   8.720  0.4278 -0.3546 -0.2785
 1750TIP3    H129445   1.331   6.913   8.715 -0.8596 -0.0380 -0.3527
 1750TIP3    H229446   1.430   7.008   8.779 -0.0781 -1.3425  0.4261
 1751TIP3   OH229447   5.455   7.121   9.135  0.4858  0.0947  0.4352
 1751TIP3    H129448   5.497   7.072   9.205  0.6677  0.4729  0.5951
 1751TIP3    H229449   5.515   7.113   9.060  0.1295 -0.5885  0.2179
 1752TIP3   OH229450   5.286   0.083   7.872  0.0241  0.1559  0.2395
 1752TIP3    H129451   5.223   0.022   7.835  1.3652 -0.4526 -1.1562
 1752TIP3    H229452   5.352   0.094   7.804  0.5290  2.1461  0.9552
 1753TIP3   OH229453   5.124   1.747   8.458 -0.5269  0.2871 -0.3018
 1753TIP3    H129454   5.134   1.842   8.445 -1.0070  0.4557  0.4394
 1753TIP3    H229455   5.061   1.740   8.530 -0.3197 -0.5953 -0.1951
 1754TIP3   OH229456   0.579   3.368   9.072  0.0062  0.1007  0.1196
 1754TIP3    H129457   0.582   3.280   9.032 -0.7425 -0.7021  1.7226
 1754TIP3    H229458   0.635   3.361   9.149  0.4856  1.2620 -0.1104
 1755TIP3   OH229459   4.361   3.659   8.169  0.3598 -0.1741  0.1096
 1755TIP3    H129460   4.363   3.635   8.076 -1.8911 -0.6835  0.1345
 1755TIP3    H229461   4.322   3.584   8.213 -0.7557  0.9483  1.1239
 1756TIP3   OH229462   1.205   5.156   7.655 -0.1286 -0.0338 -0.1684
 1756TIP3    H129463   1.299   5.139   7.652 -0.1917 -0.6017  0.6699
 1756TIP3    H229464   1.165   5.075   7.625 -0.3657  0.0309 -0.0293
 1757TIP3   OH229465   4.428   5.860   9.428 -0.0811 -0.1663  0.1946
 1757TIP3    H129466   4.506   5.912   9.447  0.1033 -0.2805 -0.2467
 1757TIP3    H229467   4.460   5.785   9.378 -0.7175  0.9956 -2.1264
 1758TIP3   OH229468   6.663   3.228   8.128  0.0356 -0.1618 -0.1972
 1758TIP3    H129469   6.634   3.196   8.043  0.3826 -0.0625 -0.3541
 1758TIP3    H229470   6.585   3.267   8.167 -0.3426 -0.9749 -0.1050
 1759TIP3   OH229471   6.327   6.002   6.683 -0.4386  0.1367  0.6636
 1759TIP3    H129472   6.247   5.952   6.671  0.4712 -1.1745 -0.0994
 1759TIP3    H229473   6.301   6.093   6.667 -1.2345 -0.5209 -2.3062
 1760TIP3   OH229474   2.193   3.402   8.309  0.3260  0.4484  0.1862
 1760TIP3    H129475   2.129   3.434   8.246  0.4137  0.7736  0.2547
 1760TIP3    H229476   2.151   3.414   8.394  0.2009 -0.0038  0.1899
 1761TIP3   OH229477   7.267   5.699   7.261  0.1368 -0.0744  0.2966
 1761TIP3    H129478   7.245   5.609   7.282 -0.1940 -0.0839 -0.0804
 1761TIP3    H229479   7.316   5.731   7.337  1.8923 -1.1423 -0.3353
 1762TIP3   OH229480   6.903   2.578   7.608 -0.0870  0.4205 -0.1113
 1762TIP3    H129481   6.870   2.489   7.611  0.3810  0.1914 -1.2011
 1762TIP3    H229482   6.837   2.627   7.558  0.9562  0.0548 -1.9202
 1763TIP3   OH229483   5.877   2.794   6.507  0.2663 -0.0050 -0.0172
 1763TIP3    H129484   5.952   2.735   6.498 -1.1394 -1.9367  0.2350
 1763TIP3    H229485   5.832   2.763   6.586 -0.9853  0.8614 -0.3730
 1764TIP3   OH229486   1.947   0.380   8.381  0.3980  0.2703  0.2105
 1764TIP3    H129487   2.023   0.419   8.338  0.4835 -1.4231 -1.2784
 1764TIP3    H229488   1.878   0.383   8.315 -0.4633  0.5707  1.0985
 1765TIP3   OH229489   5.208   0.028   8.308 -0.7450  0.0151 -0.1232
 1765TIP3    H129490   5.190   0.024   8.402 -0.3082 -1.7085 -0.0782
 1765TIP3    H229491   5.288  -0.023   8.296  0.4898  2.0862 -1.1677
 1766TIP3   OH229492   5.927   4.930   9.369  0.3853  0.0694 -0.0522
 1766TIP3    H129493   5.906   5.004   9.311  1.7374  0.2743 -0.3089
 1766TIP3    H229494   6.015   4.904   9.343  1.4511  0.8049  2.5603
 1767TIP3   OH229495   4.055   0.040   8.938 -0.1204  0.3046 -0.6328
 1767TIP3    H129496   4.046   0.100   8.864 -1.2735  0.5698 -0.2896
 1767TIP3    H229497   4.054  -0.047   8.898 -0.3840  0.4536 -0.9546
 1768TIP3   OH229498   6.541   1.936   9.172  0.1979 -0.0781  0.0823
 1768TIP3    H129499   6.605   1.926   9.101  0.1599  0.9480 -0.1203
 1768TIP3    H229500   6.589   1.982   9.241  0.0674 -0.5530  0.4900
 1769TIP3   OH229501   1.430   4.861   8.920 -0.5934  0.3980 -0.0506
 1769TIP3    H129502   1.341   4.853   8.887 -1.0173 -0.0825  1.1370
 1769TIP3    H229503   1.478   4.789   8.879 -1.2487 -0.5443  0.7829
 1770TIP3   OH229504   5.817   5.730   7.377  0.5569  0.0876  0.0230
 1770TIP3    H129505   5.818   5.813   7.425  0.3192  0.5290 -0.7230
 1770TIP3    H229506   5.818   5.755   7.285 -1.1131 -0.6964 -0.2446
 1771TIP3   OH229507   2.154   4.956   8.368 -0.0465  0.3310 -0.2878
 1771TIP3    H129508   2.232   5.001   8.335 -1.7086  2.2446 -1.8329
 1771TIP3    H229509   2.085   5.023   8.367 -1.8025 -1.3650  0.7357
 1772TIP3   OH229510   6.626   4.504   7.156 -0.2199 -0.1386  0.1506
 1772TIP3    H129511   6.572   4.524   7.233 -0.7159 -0.3021 -0.1496
 1772TIP3    H229512   6.566   4.461   7.095  0.5480 -1.5333  0.3275
 1773TIP3   OH229513   6.375   6.360   7.224 -0.2175  0.0995  0.2291
 1773TIP3    H129514   6.423   6.304   7.164 -1.6143 -0.3461 -0.5251
 1773TIP3    H229515   6.306   6.400   7.170 -1.5458 -0.3571  1.5207
 1774TIP3   OH229516   4.899   3.574   8.480  0.1493 -0.2746  0.3435
 1774TIP3    H129517   4.849   3.537   8.553  1.2894 -1.3545  0.6145
 1774TIP3    H229518   4.983   3.599   8.519  0.1942  0.6194 -0.2946
 1775TIP3   OH229519   7.068   1.387   7.523 -0.0557  0.5235 -0.2679
 1775TIP3    H129520   7.126   1.311   7.532 -0.7863 -0.0435 -0.1495
 1775TIP3    H229521   7.059   1.421   7.612 -2.6715 -1.5526  0.4045
 1776TIP3   OH229522   3.933   6.737   8.260  0.1546 -0.3560 -0.4346
 1776TIP3    H129523   3.971   6.650   8.275  0.2893 -0.3837 -0.9002
 1776TIP3    H229524   3.898   6.763   8.345  0.3319 -0.7607 -0.2326
 1777TIP3   OH229525   2.867   1.160   8.365 -0.0994  0.3076  0.8167
 1777TIP3    H129526   2.928   1.186   8.433 -0.9320  3.0688  0.6083
 1777TIP3    H229527   2.843   1.242   8.321 -1.5281 -1.0686 -1.1590
 1778TIP3   OH229528   0.566   3.273   9.399 -0.2953  0.0895  0.0355
 1778TIP3    H129529   0.547   3.365   9.379 -0.4052  0.1544  0.4218
 1778TIP3    H229530   0.480   3.234   9.415 -0.1175  0.8762  3.9392
 1779TIP3   OH229531   6.046   7.658   8.987  0.0369  0.2032  0.1791
 1779TIP3    H129532   6.104   7.678   8.913 -0.3714  0.7369 -0.0083
 1779TIP3    H229533   6.104   7.621   9.053  0.4705  0.0576 -0.2719
 1780TIP3   OH229534   2.425   6.868   9.557 -0.3482  0.8276 -0.2862
 1780TIP3    H129535   2.420   6.895   9.649 -2.0249 -1.5206  0.3962
 1780TIP3    H229536   2.336   6.840   9.535  0.1853  0.6392 -2.4179
 1781TIP3   OH229537   1.800   5.464   6.945 -0.7287  0.1498  0.2689
 1781TIP3    H129538   1.801   5.558   6.959 -0.2991  0.2243 -0.2343
 1781TIP3    H229539   1.838   5.452   6.858 -0.2150 -0.5315  0.5764
 1782TIP3   OH229540   4.085   1.723   9.647  0.4392  0.5187  0.2707
 1782TIP3    H129541   4.175   1.697   9.626  0.5660  1.4776 -0.4313
 1782TIP3    H229542   4.085   1.739   9.741  1.0127  0.5654  0.2641
 1783TIP3   OH229543   4.121   5.681   9.427  0.9769 -0.7868  0.3639
 1783TIP3    H129544   4.190   5.673   9.492  0.3120  0.5990  1.2713
 1783TIP3    H229545   4.139   5.764   9.383  1.4078 -1.6892 -1.2604
 1784TIP3   OH229546   0.031   3.060   8.171 -0.2352 -0.5139  0.3719
 1784TIP3    H129547   0.102   3.052   8.108 -1.4952 -1.4166 -0.9973
 1784TIP3    H229548   0.067   3.028   8.254  0.9885 -0.7870 -0.2554
 1785TIP3   OH229549   6.117   4.637   8.854  0.3204  0.6432  0.1327
 1785TIP3    H129550   6.139   4.589   8.774 -1.1159  0.5974 -0.2759
 1785TIP3    H229551   6.197   4.683   8.877  1.6982 -1.6938  0.3944
 1786TIP3   OH229552   5.805   4.588   8.994 -0.0198  0.1798  0.2698
 1786TIP3    H129553   5.741   4.601   9.064  0.3316 -0.8238  0.7930
 1786TIP3    H229554   5.885   4.626   9.027 -0.6885  2.9468 -1.0476
 1787TIP3   OH229555   0.816   1.378   9.323  0.6061 -0.2459 -0.1457
 1787TIP3    H129556   0.900   1.358   9.364  0.7508 -0.8730 -0.7273
 1787TIP3    H229557   0.815   1.473   9.315  0.1088  0.0087  2.2549
 1788TIP3   OH229558   0.719   0.840   7.192  0.1456 -0.4840 -0.6220
 1788TIP3    H129559   0.752   0.833   7.282  1.2582 -0.9232 -1.0398
 1788TIP3    H229560   0.753   0.923   7.160  1.1553 -1.0730 -1.1515
 1789TIP3   OH229561   7.389   4.657   8.374  0.1764 -0.0036 -0.4318
 1789TIP3    H129562   7.406   4.732   8.430 -3.0144  0.2918  0.3419
 1789TIP3    H229563   7.343   4.693   8.298  0.0474 -0.9888 -0.8365
 1790TIP3   OH229564   3.947   7.028   8.202  0.6320 -0.7309  0.0056
 1790TIP3    H129565   3.971   6.946   8.247  0.2592 -0.9533 -0.1898
 1790TIP3    H229566   3.851   7.029   8.207  0.6869  0.4514  1.3374
 1791TIP3   OH229567   0.516   0.422   8.608  0.0473  0.0804 -0.2564
 1791TIP3    H129568   0.453   0.444   8.677  0.6508  0.3818  0.1993
 1791TIP3    H229569   0.537   0.330   8.623 -1.1652 -0.3737 -1.1240
 1792TIP3   OH229570   6.797   5.480   7.710  0.1855 -0.3916 -0.0366
 1792TIP3    H129571   6.728   5.481   7.644 -0.0142 -0.3595  0.1717
 1792TIP3    H229572   6.864   5.422   7.673 -1.5822 -3.6435  1.3942
 1793TIP3   OH229573   0.450   5.094   7.629  0.1068  0.4314 -0.1507
 1793TIP3    H129574   0.514   5.164   7.613 -0.8728  1.4427  0.2041
 1793TIP3    H229575   0.384   5.107   7.561  1.1775 -1.7753 -1.7076
 1794TIP3   OH229576   1.177   3.547   8.190 -0.0670  0.1786  0.5852
 1794TIP3    H129577   1.271   3.550   8.172 -0.1831  0.8130  0.0440
 1794TIP3    H229578   1.141   3.620   8.140 -1.0752 -1.0287 -0.5340
 1795TIP3   OH229579   4.360   7.445   8.657  0.5045 -0.0998  0.0253
 1795TIP3    H129580   4.294   7.419   8.592 -0.8127 -0.2172  1.3580
 1795TIP3    H229581   4.421   7.501   8.608 -0.5257 -0.0561 -1.2716
 1796TIP3   OH229582   6.201   4.424   8.123  0.4055  0.1318  0.3815
 1796TIP3    H129583   6.277   4.365   8.128 -0.1347 -0.6671 -0.4951
 1796TIP3    H229584   6.238   4.508   8.095  1.1477  0.1747  1.3912
 1797TIP3   OH229585   0.580   3.694   8.687  0.1442 -0.4680 -0.2257
 1797TIP3    H129586   0.607   3.602   8.682  0.7515 -0.3460  0.7314
 1797TIP3    H229587   0.574   3.712   8.780  0.2865  0.5517 -0.4109
 1798TIP3   OH229588   1.186   1.426   7.442 -0.1849  0.5684  0.1471
 1798TIP3    H129589   1.132   1.439   7.364 -0.7557  0.8021  0.5777
 1798TIP3    H229590   1.209   1.333   7.440 -0.6379  0.4567 -0.0202
 1799TIP3   OH229591   1.088   2.999   7.390 -0.0636 -0.2347 -0.0685
 1799TIP3    H129592   1.022   3.030   7.453 -1.3868  1.7496 -2.2384
 1799TIP3    H229593   1.172   3.028   7.427 -0.7875  0.7134  0.8984
 1800TIP3   OH229594   4.775   4.544   8.578  0.4038  0.4273  0.3276
 1800TIP3    H129595   4.833   4.478   8.539  0.2020  0.9359 -0.8655
 1800TIP3    H229596   4.825   4.626   8.573  0.2277  0.5705  0.8228
 1801TIP3   OH229597   3.457   4.817   7.302  0.1457 -0.3426 -0.1392
 1801TIP3    H129598   3.413   4.830   7.386  1.0872  1.3723  0.1087
 1801TIP3    H229599   3.542   4.858   7.312  0.7379 -1.1602 -1.5534
 1802TIP3   OH229600   7.067   7.372   8.751 -0.0322  0.0712  0.4690
 1802TIP3    H129601   7.122   7.441   8.716  0.2457  1.2597  3.0360
 1802TIP3    H229602   6.980   7.411   8.757 -0.7219 -1.0247 -1.3203
 1803TIP3   OH229603   0.837   3.356   7.837 -0.0688  0.5566 -0.1137
 1803TIP3    H129604   0.796   3.301   7.904  0.4168 -0.6254 -0.7631
 1803TIP3    H229605   0.925   3.374   7.871  0.1991 -0.0946 -0.4589
 1804TIP3   OH229606   7.034   0.104   6.742  0.3108  0.1975 -0.4930
 1804TIP3    H129607   6.996   0.098   6.655 -0.7829  0.3589 -0.0417
 1804TIP3    H229608   6.974   0.056   6.798 -1.4337  3.6738  0.9118
 1805TIP3   OH229609   6.989   2.587   8.781  0.3733  0.0140  0.1035
 1805TIP3    H129610   7.015   2.623   8.866 -0.0994  2.0575 -0.5597
 1805TIP3    H229611   7.067   2.542   8.749  0.5285 -0.8915  1.6303
 1806TIP3   OH229612   2.869   5.778   7.500 -0.3004  0.6601 -0.8203
 1806TIP3    H129613   2.939   5.779   7.435 -0.7506  0.0605 -1.3243
 1806TIP3    H229614   2.843   5.686   7.506  0.6064  0.4815  1.1728
 1807TIP3   OH229615   0.478   4.153   7.848  0.0424  0.0198 -0.8175
 1807TIP3    H129616   0.554   4.112   7.889 -0.0102  1.0087  0.3443
 1807TIP3    H229617   0.403   4.122   7.899 -0.4086 -1.3036 -2.2383
 1808TIP3   OH229618   5.602   2.851   7.621 -0.5847 -0.0764  0.0434
 1808TIP3    H129619   5.521   2.900   7.613 -1.9484 -1.6096  2.8501
 1808TIP3    H229620   5.574   2.760   7.637  1.5042 -0.3871  2.8045
 1809TIP3   OH229621   0.670   3.598   7.862  0.2453 -0.8220 -0.2752
 1809TIP3    H129622   0.652   3.692   7.851  1.2023 -0.6796 -0.7546
 1809TIP3    H229623   0.584   3.556   7.856 -0.0061 -0.1444 -1.8747
 1810TIP3   OH229624   7.546   5.807   8.908 -0.1657  0.3735 -0.0814
 1810TIP3    H129625   7.485   5.733   8.909 -0.0293  0.2604 -0.1204
 1810TIP3    H229626   7.531   5.849   8.823  0.4819 -0.2151 -0.4974
 1811TIP3   OH229627   5.938   4.238   7.387 -0.1059  0.9079  0.2256
 1811TIP3    H129628   5.960   4.283   7.306 -2.0765  0.1852 -0.7596
 1811TIP3    H229629   5.858   4.189   7.368  0.2456 -0.5753  2.1378
 1812TIP3   OH229630   3.771   5.027   8.366 -0.3690 -0.1392 -0.1561
 1812TIP3    H129631   3.808   4.944   8.396  0.2647 -0.0112 -0.5535
 1812TIP3    H229632   3.744   5.072   8.446  0.7046 -0.0692  0.1844
 1813TIP3   OH229633   2.359   1.342   7.423  0.0391  0.3491 -0.7089
 1813TIP3    H129634   2.427   1.315   7.362  1.1913  0.9255  0.2671
 1813TIP3    H229635   2.321   1.421   7.384  0.7345  0.6840 -0.7194
 1814TIP3   OH229636   2.433   6.159   6.999  0.0418  1.0462  0.8360
 1814TIP3    H129637   2.381   6.117   6.931  0.1453  0.6204  1.0176
 1814TIP3    H229638   2.496   6.213   6.951  1.9280 -1.3172  0.4400
 1815TIP3   OH229639   0.830   0.911   7.483  0.0692 -0.6161  0.1284
 1815TIP3    H129640   0.834   1.004   7.459  0.5768 -1.0464 -1.6919
 1815TIP3    H229641   0.905   0.898   7.541  1.0743 -0.2161 -1.0328
 1816TIP3   OH229642   6.432   6.006   7.849 -0.2277 -0.4389  0.1424
 1816TIP3    H129643   6.344   5.969   7.847 -0.2241 -0.5194 -3.1149
 1816TIP3    H229644   6.490   5.930   7.848 -0.1653 -0.3799 -1.0505
 1817TIP3   OH229645   3.003   4.588   9.444 -0.1704  0.1711  0.0317
 1817TIP3    H129646   3.009   4.630   9.358  1.3334  2.2866  1.0724
 1817TIP3    H229647   2.921   4.621   9.481 -0.4462 -0.1467 -0.2946
 1818TIP3   OH229648   5.173   4.128   8.713  0.4436 -0.0567  0.5986
 1818TIP3    H129649   5.146   4.057   8.654 -0.4022  0.3426  0.4917
 1818TIP3    H229650   5.112   4.199   8.695  1.8636  1.0686  0.0189
 1819TIP3   OH229651   4.552   3.085   8.606 -0.1854 -0.0692 -0.0376
 1819TIP3    H129652   4.458   3.103   8.607 -0.2311  0.0842 -2.1768
 1819TIP3    H229653   4.580   3.105   8.517  2.0298  0.5252  0.6990
 1820TIP3   OH229654   3.220   6.126   9.435 -0.4413 -0.2917  0.5626
 1820TIP3    H129655   3.302   6.163   9.469 -0.8752  0.6981  0.5558
 1820TIP3    H229656   3.153   6.191   9.457 -1.1077 -0.7233 -0.1428
 1821TIP3   OH229657   3.458   4.211   8.741 -0.6510  0.2868  0.0603
 1821TIP3    H129658   3.500   4.166   8.814  0.4226 -0.3523 -0.9160
 1821TIP3    H229659   3.472   4.304   8.757 -0.3139  0.1457  0.5932
 1822TIP3   OH229660   3.755   2.464   6.992  0.1255 -0.1760 -0.2693
 1822TIP3    H129661   3.764   2.545   7.043 -0.7799 -0.2099 -0.0376
 1822TIP3    H229662   3.799   2.398   7.044 -1.0797 -0.2763  0.6475
 1823TIP3   OH229663   1.550   0.496   9.182  0.2785 -0.3038  0.3998
 1823TIP3    H129664   1.459   0.479   9.209 -1.1579  2.8020 -1.8119
 1823TIP3    H229665   1.551   0.479   9.088  1.6426  0.7661  0.1808
 1824TIP3   OH229666   2.547   2.509   8.264 -0.5222 -0.0831  0.3189
 1824TIP3    H129667   2.637   2.541   8.261 -0.2339 -0.4715  2.9548
 1824TIP3    H229668   2.548   2.437   8.326 -2.4859 -0.7253 -0.3148
 1825TIP3   OH229669   6.221   4.140   7.822 -0.0345 -0.0400  0.1147
 1825TIP3    H129670   6.281   4.177   7.757  0.0382 -0.0263  0.1892
 1825TIP3    H229671   6.133   4.155   7.786  0.0257 -0.6064 -0.2851
 1826TIP3   OH229672   1.972   6.539   9.232 -0.4455  0.3699 -0.5943
 1826TIP3    H129673   2.053   6.589   9.241 -0.4861  0.2026  0.8984
 1826TIP3    H229674   1.903   6.606   9.231 -0.5679  0.4052  2.2485
 1827TIP3   OH229675   4.937   1.794   8.680 -0.1055  0.3477 -0.1005
 1827TIP3    H129676   4.862   1.834   8.637 -1.1171 -1.2898  0.0469
 1827TIP3    H229677   4.923   1.809   8.773  0.0699  0.5395 -0.1026
 1828TIP3   OH229678   0.060   1.430   7.703  0.1935  0.2671 -0.0359
 1828TIP3    H129679  -0.010   1.458   7.762  2.7777  0.4356  3.2185
 1828TIP3    H229680   0.059   1.334   7.710  0.0063  0.2469 -0.3411
 1829TIP3   OH229681   2.759   2.906   9.006  0.1176  0.1036 -0.5359
 1829TIP3    H129682   2.764   2.889   9.100 -0.7079 -1.1937 -0.7044
 1829TIP3    H229683   2.772   3.001   8.999  0.4325  0.1915  0.8566
 1830TIP3   OH229684   0.504   2.833   8.983 -0.4337  0.4200  0.2341
 1830TIP3    H129685   0.537   2.775   9.052  0.3483 -0.6701 -1.0138
 1830TIP3    H229686   0.411   2.844   9.003 -0.7586 -1.7964  0.1498
 1831TIP3   OH229687   5.642   5.863   9.453  0.1619  0.0369 -0.4466
 1831TIP3    H129688   5.709   5.801   9.480 -1.7355 -2.7206 -1.5981
 1831TIP3    H229689   5.670   5.892   9.366  1.3499  1.3118  0.3324
 1832TIP3   OH229690   0.693   7.487   8.891 -0.2500  0.1280 -0.3064
 1832TIP3    H129691   0.620   7.428   8.872  0.6848 -0.5438 -1.9965
 1832TIP3    H229692   0.720   7.521   8.806  2.7091 -1.2328 -0.0191
 1833TIP3   OH229693   2.949   0.262   7.599 -0.4687  0.2205  0.1582
 1833TIP3    H129694   2.881   0.327   7.579  0.4983  1.3469  0.4884
 1833TIP3    H229695   2.986   0.290   7.682 -0.9691 -1.5596  1.0288
 1834TIP3   OH229696   1.723   4.038   7.857 -0.2947 -0.2174 -0.5886
 1834TIP3    H129697   1.683   4.094   7.923 -0.1486 -0.4436 -0.3083
 1834TIP3    H229698   1.817   4.044   7.874 -0.1510  0.7359 -1.5720
 1835TIP3   OH229699   5.137   2.463   8.065 -0.4552 -0.0541  0.9922
 1835TIP3    H129700   5.162   2.535   8.123  1.9687  0.0714 -0.0711
 1835TIP3    H229701   5.140   2.500   7.977  0.1015 -1.2348  0.4806
 1836TIP3   OH229702   5.226   2.783   7.630  0.4088  0.2381 -0.0061
 1836TIP3    H129703   5.303   2.734   7.600  0.4771  1.3465 -1.7498
 1836TIP3    H229704   5.154   2.721   7.624  0.9931 -0.5651  0.8573
 1837TIP3   OH229705   1.737   1.072   7.311 -0.7232 -0.1129  0.2718
 1837TIP3    H129706   1.661   1.027   7.347 -1.0839  0.7477  0.6225
 1837TIP3    H229707   1.722   1.073   7.217 -2.2042  1.8116  0.4510
 1838TIP3   OH229708   2.720   6.722   8.649  0.2369 -0.0538  0.0814
 1838TIP3    H129709   2.657   6.731   8.721 -0.0113 -1.3031  0.0454
 1838TIP3    H229710   2.666   6.711   8.571  0.5127  0.3210 -0.1668
 1839TIP3   OH229711   0.343   1.842   8.753  0.5360  0.1368 -0.6298
 1839TIP3    H129712   0.349   1.848   8.657  0.7424  0.9052 -0.5800
 1839TIP3    H229713   0.380   1.757   8.774  0.3553 -0.0992 -1.2476
 1840TIP3   OH229714   4.817   6.537   9.163  0.0938 -0.2100 -0.5782
 1840TIP3    H129715   4.904   6.499   9.176  0.2392  0.7741  1.7721
 1840TIP3    H229716   4.757   6.472   9.199  0.2312  0.9379  1.9153
 1841TIP3   OH229717   7.664   6.830   8.244 -0.1470 -0.0581  0.4294
 1841TIP3    H129718   7.745   6.840   8.295 -0.6519  1.0714  1.0433
 1841TIP3    H229719   7.613   6.765   8.293  0.0629 -0.2050  0.4564
 1842TIP3   OH229720   2.992   1.944   9.502 -0.3241  0.4184  0.2476
 1842TIP3    H129721   2.916   2.000   9.513 -0.9410 -0.4774  0.6331
 1842TIP3    H229722   2.968   1.861   9.544  0.8942  0.1539  0.4780
 1843TIP3   OH229723   4.917   1.708   7.993  0.6343  0.6010  0.1220
 1843TIP3    H129724   4.912   1.707   8.088 -2.6235  1.7653  0.0914
 1843TIP3    H229725   4.996   1.758   7.973  1.8092 -0.3433  2.1619
 1844TIP3   OH229726   0.262   6.190   8.029  0.0786  0.6412 -0.4746
 1844TIP3    H129727   0.208   6.184   8.108 -0.5380 -1.2514 -0.9925
 1844TIP3    H229728   0.298   6.279   8.031 -2.2042  1.6103  0.4316
 1845TIP3   OH229729   5.137   1.812   9.160 -0.0702  0.1371 -0.1703
 1845TIP3    H129730   5.176   1.859   9.234  0.8874  1.3178 -1.3714
 1845TIP3    H229731   5.193   1.834   9.086 -2.0309  0.4692 -1.6211
 1846TIP3   OH229732   5.783   3.623   7.504  0.0474 -0.0120  0.2649
 1846TIP3    H129733   5.701   3.594   7.466  0.3281 -0.0286 -0.3494
 1846TIP3    H229734   5.786   3.581   7.590 -0.2574 -0.5805  0.0083
 1847TIP3   OH229735   5.081   0.008   9.291 -0.1053 -0.1615 -0.5988
 1847TIP3    H129736   5.160  -0.041   9.312 -1.2285 -1.7672  0.0496
 1847TIP3    H229737   5.038  -0.044   9.224 -1.1970  0.0842 -0.1044
 1848TIP3   OH229738   3.047   3.955   8.322  0.6068 -0.6003 -0.1012
 1848TIP3    H129739   2.953   3.939   8.331  0.4760 -0.2786 -0.8224
 1848TIP3    H229740   3.073   3.989   8.407 -0.2907  0.9625 -0.3893
 1849TIP3   OH229741   5.351   0.251   8.552 -0.1022  0.0772  0.5734
 1849TIP3    H129742   5.310   0.170   8.582  1.6872 -0.6564  1.1579
 1849TIP3    H229743   5.318   0.319   8.611 -1.0467 -0.3356  0.5344
 1850TIP3   OH229744   2.458   2.381   8.967 -0.0140  0.6195  0.2222
 1850TIP3    H129745   2.518   2.362   9.039 -1.1586 -1.1664  0.7836
 1850TIP3    H229746   2.438   2.296   8.929 -1.3296  1.2780 -0.6515
 1851TIP3   OH229747   5.085   3.905   8.567  0.4350 -0.7577 -0.1890
 1851TIP3    H129748   5.099   3.823   8.614  1.3497 -0.5165 -0.0117
 1851TIP3    H229749   5.112   3.886   8.477 -1.0443 -1.1378 -0.5777
 1852TIP3   OH229750   2.914   7.026   7.351 -0.3398 -0.0852 -0.3089
 1852TIP3    H129751   2.975   7.100   7.355  0.9512 -1.0327 -1.3796
 1852TIP3    H229752   2.962   6.959   7.303 -2.3594 -0.7826 -1.4735
 1853TIP3   OH229753   2.245   5.399   8.524 -0.2054 -0.0320  0.9282
 1853TIP3    H129754   2.323   5.455   8.522 -0.6525  0.5915  0.0940
 1853TIP3    H229755   2.184   5.441   8.462 -1.0518 -0.7234  1.2730
 1854TIP3   OH229756   5.083   5.247   6.747  0.1306 -0.6375  0.5129
 1854TIP3    H129757   5.071   5.183   6.818 -0.5652 -1.6779 -0.5072
 1854TIP3    H229758   5.072   5.196   6.667  1.3650  0.4199 -0.3655
 1855TIP3   OH229759   2.910   5.887   8.964 -0.1560 -0.4765  0.0838
 1855TIP3    H129760   2.830   5.928   8.996 -0.8955 -2.7032  1.3525
 1855TIP3    H229761   2.976   5.908   9.031 -0.0160  0.2532 -0.2797
 1856TIP3   OH229762   3.105   7.486   7.072  0.4936  0.2722  0.2741
 1856TIP3    H129763   3.153   7.519   6.996 -2.4112  0.5295 -1.6345
 1856TIP3    H229764   3.073   7.565   7.116 -2.0010  0.2093 -1.2324
 1857TIP3   OH229765   3.363   1.282   8.208  0.7289  0.2414  0.2137
 1857TIP3    H129766   3.339   1.193   8.233  0.2667  0.5074  0.7150
 1857TIP3    H229767   3.457   1.277   8.189  0.5522 -0.5137 -0.4963
 1858TIP3   OH229768   0.915   1.722   7.765 -0.2294 -0.3632 -0.7272
 1858TIP3    H129769   0.968   1.792   7.804  0.3230 -0.5060 -1.2011
 1858TIP3    H229770   0.877   1.676   7.840  2.2190 -1.7300 -0.2051
 1859TIP3   OH229771   0.187   2.467   9.044  0.1556  0.3625  0.1198
 1859TIP3    H129772   0.282   2.469   9.038  0.1419  2.2342 -0.2881
 1859TIP3    H229773   0.157   2.516   8.968 -1.1398 -0.1343  0.2859
 1860TIP3   OH229774   2.075   6.749   8.484 -0.2657  0.6580  0.0318
 1860TIP3    H129775   2.066   6.820   8.420 -1.5302 -0.2050 -0.7892
 1860TIP3    H229776   2.008   6.766   8.549  0.8527  1.3889  1.0494
 1861TIP3   OH229777   7.620   5.112   7.716  0.8147 -0.1810 -0.4702
 1861TIP3    H129778   7.615   5.076   7.627  0.0120  1.0064 -0.9320
 1861TIP3    H229779   7.694   5.172   7.714  2.0104 -1.5812  0.2363
 1862TIP3   OH229780   0.965   6.566   7.896  0.0122 -0.6634 -0.3148
 1862TIP3    H129781   0.880   6.523   7.898 -0.4200 -0.0067 -2.1801
 1862TIP3    H229782   1.012   6.523   7.825  0.1992  0.7384 -1.0831
 1863TIP3   OH229783   5.995   7.444   7.467  0.3030 -0.5148 -0.4173
 1863TIP3    H129784   5.933   7.515   7.482 -1.5799 -1.9765 -0.8384
 1863TIP3    H229785   5.958   7.395   7.393  0.5436 -2.9427  0.9680
 1864TIP3   OH229786   1.267   4.580   7.521 -0.7766  0.2069  0.2584
 1864TIP3    H129787   1.307   4.646   7.465  0.0230 -0.2616  0.2571
 1864TIP3    H229788   1.297   4.601   7.609 -0.7974  0.0467  0.3052
 1865TIP3   OH229789   1.814   6.922   6.637 -0.1006 -0.6817 -0.1231
 1865TIP3    H129790   1.816   7.015   6.614  0.7770 -0.3890  1.0091
 1865TIP3    H229791   1.785   6.878   6.558  0.9219  0.4302 -1.1592
 1866TIP3   OH229792   3.719   5.313   8.389 -0.2110 -0.7873 -0.2208
 1866TIP3    H129793   3.796   5.368   8.405 -1.0937  1.1366 -1.9630
 1866TIP3    H229794   3.705   5.265   8.470  1.9399 -0.0620  0.6316
 1867TIP3   OH229795   7.445   6.571   7.024 -0.0238 -0.2564  0.6044
 1867TIP3    H129796   7.465   6.624   7.101  0.2542  0.9373 -0.2754
 1867TIP3    H229797   7.502   6.605   6.955 -0.3532 -1.2274 -0.1780
 1868TIP3   OH229798   6.329   0.880   7.835 -0.0583 -0.4994  0.3008
 1868TIP3    H129799   6.331   0.957   7.778 -0.6289 -0.7063 -0.0060
 1868TIP3    H229800   6.416   0.841   7.825  0.5675  0.6081  1.1743
 1869TIP3   OH229801   0.346   4.738   6.593 -0.0962  0.4833  0.4766
 1869TIP3    H129802   0.293   4.658   6.593  0.6058  0.0054  0.2533
 1869TIP3    H229803   0.434   4.708   6.567 -0.2186  1.5703 -1.3682
 1870TIP3   OH229804   6.588   0.373   7.144 -0.1065  0.0368  0.0865
 1870TIP3    H129805   6.571   0.296   7.089 -2.1663 -0.7846  1.7511
 1870TIP3    H229806   6.683   0.375   7.152  0.1301 -1.0882 -1.7081
 1871TIP3   OH229807   6.286   5.756   9.278 -0.3935  1.3316 -0.3358
 1871TIP3    H129808   6.289   5.782   9.186 -0.4334  0.9779 -0.4403
 1871TIP3    H229809   6.199   5.718   9.290 -0.2575  1.0390 -0.2498
 1872TIP3   OH229810   7.062   6.240   7.966  0.0320  0.3194  0.1155
 1872TIP3    H129811   7.106   6.199   7.892  1.1932 -0.3764  1.1513
 1872TIP3    H229812   6.991   6.291   7.927 -0.2726 -1.1682 -1.3610
 1873TIP3   OH229813   5.835   6.576   7.644 -0.2546  0.0908  0.4088
 1873TIP3    H129814   5.809   6.666   7.664 -1.6593 -0.0080 -0.8098
 1873TIP3    H229815   5.923   6.584   7.608 -1.2128  1.2988 -1.8794
 1874TIP3   OH229816   4.879   3.947   9.235 -0.3798  0.3447 -0.0856
 1874TIP3    H129817   4.876   4.005   9.312  0.1954 -0.9545  0.9486
 1874TIP3    H229818   4.971   3.921   9.228 -0.3497  0.7176 -1.4612
 1875TIP3   OH229819   0.211   5.618   6.540  0.0746  0.0428  0.1955
 1875TIP3    H129820   0.305   5.637   6.531 -0.1803  0.6339 -1.8513
 1875TIP3    H229821   0.193   5.557   6.468 -1.2005  0.2741  0.3053
 1876TIP3   OH229822   0.160   1.622   8.947 -0.6006 -0.2837 -0.2321
 1876TIP3    H129823   0.159   1.699   8.890  0.5951 -0.1560 -0.1001
 1876TIP3    H229824   0.083   1.572   8.920 -2.2272  1.6072  0.6109
 1877TIP3   OH229825   3.495   4.043   7.325  0.0878  0.2150 -0.0752
 1877TIP3    H129826   3.400   4.043   7.310  0.1665 -0.9780 -0.7890
 1877TIP3    H229827   3.525   4.124   7.285 -0.6204  0.5664  0.0811
 1878TIP3   OH229828   5.225   3.545   8.195 -0.0725 -0.2073  0.3697
 1878TIP3    H129829   5.216   3.458   8.235  1.0916 -0.2190  0.6595
 1878TIP3    H229830   5.240   3.526   8.102  3.2023 -0.5689  0.8247
 1879TIP3   OH229831   1.408   5.419   7.829  0.2708  0.1678 -0.1581
 1879TIP3    H129832   1.484   5.394   7.776  0.9703  3.7530 -1.1004
 1879TIP3    H229833   1.349   5.462   7.767 -0.4520  1.4499  1.3699
 1880TIP3   OH229834   1.988   5.124   7.798  0.2897 -0.4926 -0.6071
 1880TIP3    H129835   2.067   5.104   7.847 -0.2312  0.0874  0.5114
 1880TIP3    H229836   2.019   5.150   7.711  1.4242  0.8005  0.1399
 1881TIP3   OH229837   2.770   1.880   8.383 -0.1972  0.2367 -0.4147
 1881TIP3    H129838   2.704   1.831   8.333 -0.3631 -2.4377  2.1454
 1881TIP3    H229839   2.719   1.938   8.439 -0.1641  0.8951 -1.0570
 1882TIP3   OH229840   2.947   5.282   8.634  0.6730  0.3110 -0.5329
 1882TIP3    H129841   2.954   5.199   8.680 -0.3851  0.0258 -0.8713
 1882TIP3    H229842   2.943   5.258   8.541 -1.2633  0.6143 -0.5583
 1883TIP3   OH229843   2.139   5.262   7.000  0.1516 -0.2618  0.0289
 1883TIP3    H129844   2.220   5.242   6.954  0.0424  1.2467 -0.8910
 1883TIP3    H229845   2.101   5.176   7.019 -0.0768 -1.0470 -3.2752
 1884TIP3   OH229846   2.023   0.566   8.864  0.2565  0.0029  0.1858
 1884TIP3    H129847   2.010   0.475   8.891  1.6450 -0.6822 -1.2817
 1884TIP3    H229848   1.945   0.612   8.894 -0.2404 -1.5693  1.3928
 1885TIP3   OH229849   3.562   4.910   8.213  0.5295 -0.0287  0.4975
 1885TIP3    H129850   3.522   4.996   8.222 -0.7562 -0.4770 -0.6356
 1885TIP3    H229851   3.652   4.922   8.243  0.1462  1.5101  1.1060
 1886TIP3   OH229852   4.044   6.895   9.254 -0.2579 -0.3220 -0.2513
 1886TIP3    H129853   3.997   6.839   9.191 -1.2376  1.7179 -1.4418
 1886TIP3    H229854   4.136   6.886   9.230 -0.5267 -0.4103 -1.3152
 1887TIP3   OH229855   3.239   2.434   7.142  0.2658  0.2217 -0.2965
 1887TIP3    H129856   3.172   2.370   7.165  0.2193  0.0435 -0.9254
 1887TIP3    H229857   3.283   2.397   7.065 -0.6912  1.5861 -1.5492
 1888TIP3   OH229858   0.475   7.635   7.552 -0.0553  0.7294  0.6823
 1888TIP3    H129859   0.420   7.713   7.555 -1.2923 -0.0147 -1.0601
 1888TIP3    H229860   0.459   7.598   7.465  3.7245  0.8071 -0.1917
 1889TIP3   OH229861   0.576   2.066   7.627  0.3595  0.5139  0.2684
 1889TIP3    H129862   0.642   2.004   7.596  2.0642  1.9071  0.9467
 1889TIP3    H229863   0.533   2.020   7.699  0.9446 -0.2244  0.1663
 1890TIP3   OH229864   4.405   0.177   8.668  0.2038 -0.0630  0.2339
 1890TIP3    H129865   4.424   0.253   8.724 -1.9349  0.4583  0.3286
 1890TIP3    H229866   4.349   0.212   8.599  0.1416 -1.3523 -0.3893
 1891TIP3   OH229867   3.503   3.233   7.794  0.2989  0.0804 -0.1115
 1891TIP3    H129868   3.472   3.324   7.798 -3.1212 -1.0040  0.8560
 1891TIP3    H229869   3.490   3.207   7.703  1.5984  0.5753 -0.4718
 1892TIP3   OH229870   1.028   5.335   8.118  0.1906 -0.3119 -0.4632
 1892TIP3    H129871   1.102   5.389   8.143  1.2032 -1.9822  0.3384
 1892TIP3    H229872   1.023   5.344   8.023  0.6953  0.7056 -0.4042
 1893TIP3   OH229873   3.667   7.457   8.419  0.2989  0.4287 -0.4380
 1893TIP3    H129874   3.580   7.443   8.457  0.9989 -1.3484  0.6779
 1893TIP3    H229875   3.672   7.396   8.346  0.7405  0.2058 -0.2310
 1894TIP3   OH229876   6.221   4.339   7.239  0.0054 -0.1491  0.6573
 1894TIP3    H129877   6.259   4.369   7.321  1.1130  0.1850  0.0317
 1894TIP3    H229878   6.259   4.396   7.172 -0.2350 -0.9533 -0.1811
 1895TIP3   OH229879   7.295   3.543   8.016  0.3900  0.1206 -0.2564
 1895TIP3    H129880   7.206   3.569   8.040  0.2349 -0.9015  0.3496
 1895TIP3    H229881   7.340   3.626   7.999 -0.1806  0.7785  1.2275
 1896TIP3   OH229882   5.124   3.815   9.223  0.5160  0.2964 -0.1511
 1896TIP3    H129883   5.126   3.867   9.142 -0.2895  1.1225  0.3342
 1896TIP3    H229884   5.211   3.826   9.260  1.0140 -0.3880 -1.0746
 1897TIP3   OH229885   3.242   6.125   7.277  0.3101 -0.0806  0.2648
 1897TIP3    H129886   3.231   6.211   7.239 -0.4213  0.3238  1.3369
 1897TIP3    H229887   3.233   6.064   7.204 -1.7439  0.6322 -0.1227
 1898TIP3   OH229888   6.010   0.515   7.717 -0.0643  0.5680 -0.3340
 1898TIP3    H129889   5.997   0.544   7.627 -0.5537 -0.7883 -0.7211
 1898TIP3    H229890   5.989   0.422   7.716 -1.2381  0.7584  1.4266
 1899TIP3   OH229891   4.604   7.110   7.347  0.1019  0.3000  0.4128
 1899TIP3    H129892   4.561   7.025   7.347 -0.6571  0.6418 -1.1214
 1899TIP3    H229893   4.574   7.153   7.427  0.3598 -0.7832  1.1166
 1900TIP3   OH229894   6.910   1.269   7.766  0.4751 -0.5871  0.1568
 1900TIP3    H129895   6.880   1.204   7.829 -0.6308 -0.4738 -0.2256
 1900TIP3    H229896   6.907   1.225   7.682 -1.8334  0.3557 -0.3393
 1901TIP3   OH229897   4.006   5.745   8.906  0.1188 -0.3643 -0.1557
 1901TIP3    H129898   3.927   5.795   8.887 -0.2707 -1.1440 -0.6756
 1901TIP3    H229899   3.974   5.656   8.922  0.9324 -0.7988 -0.8736
 1902TIP3   OH229900   4.328   2.122   8.803 -0.6293 -0.1559 -0.1218
 1902TIP3    H129901   4.302   2.134   8.894 -2.3579  1.9767 -0.8049
 1902TIP3    H229902   4.274   2.049   8.772 -0.4887 -0.4794  0.3779
 1903TIP3   OH229903   4.871   6.513   7.779 -0.2170 -0.1319  0.1119
 1903TIP3    H129904   4.829   6.599   7.785 -3.1845 -1.4533 -0.2548
 1903TIP3    H229905   4.800   6.453   7.756  1.9839 -2.5136 -0.9390
 1904TIP3   OH229906   5.282   4.349   9.739 -0.2080  0.0487 -0.2789
 1904TIP3    H129907   5.302   4.256   9.726 -0.2851  0.0863 -0.6879
 1904TIP3    H229908   5.206   4.365   9.684 -0.3778  0.2874  0.0199
 1905TIP3   OH229909   7.359   0.669   7.069 -0.0583  0.2754  0.1315
 1905TIP3    H129910   7.424   0.608   7.035  2.3664  2.3561  0.7085
 1905TIP3    H229911   7.275   0.634   7.040  1.3532 -2.0664 -1.4399
 1906TIP3   OH229912   5.700   7.275   7.278  0.1627  0.4374  0.1443
 1906TIP3    H129913   5.713   7.294   7.185 -1.3376 -0.7004 -0.3285
 1906TIP3    H229914   5.605   7.275   7.289  0.1733 -2.4590  0.9902
 1907TIP3   OH229915   3.661   7.355   8.158  0.5659 -0.0959  0.3089
 1907TIP3    H129916   3.727   7.338   8.091  0.4746  1.6426 -0.2618
 1907TIP3    H229917   3.579   7.366   8.110 -0.3680 -2.9040  1.0580
 1908TIP3   OH229918   2.933   0.763   8.220 -0.1306  0.3301  0.1537
 1908TIP3    H129919   2.869   0.821   8.178  1.1951  1.3505 -0.5136
 1908TIP3    H229920   2.880   0.705   8.275 -1.5276  2.0112  0.6588
 1909TIP3   OH229921   5.977   1.640   9.073  0.4640  0.5605  0.2614
 1909TIP3    H129922   6.066   1.631   9.109  0.2643  0.4301  0.7310
 1909TIP3    H229923   5.991   1.671   8.984  1.0343 -0.6529 -0.1010
 1910TIP3   OH229924   0.563   1.720   8.003  0.0002  0.0810  0.1248
 1910TIP3    H129925   0.547   1.720   8.097  1.0299  1.7422  0.3363
 1910TIP3    H229926   0.636   1.659   7.991 -0.3861 -0.4309  0.3312
 1911TIP3   OH229927   1.947   3.401   7.641 -0.1550 -0.0036 -0.4436
 1911TIP3    H129928   1.909   3.337   7.581  1.3451 -0.7158 -0.6724
 1911TIP3    H229929   1.922   3.486   7.604 -1.4352 -0.4314 -0.6094
 1912TIP3   OH229930   1.044   2.556   9.362  0.2083  0.3036  0.2123
 1912TIP3    H129931   0.994   2.530   9.284 -0.0459 -0.8322  0.7399
 1912TIP3    H229932   1.012   2.644   9.382  0.3128  0.6419 -0.9899
 1913TIP3   OH229933   0.756   2.151   8.340 -0.5520  0.2739  0.7196
 1913TIP3    H129934   0.710   2.201   8.272 -0.7195  1.8190  1.8889
 1913TIP3    H229935   0.741   2.059   8.317  0.0540  0.7152 -1.7238
 1914TIP3   OH229936   4.492   4.760   9.408 -0.0106  0.5321 -0.2330
 1914TIP3    H129937   4.534   4.830   9.457  0.4290  0.7247 -0.8739
 1914TIP3    H229938   4.540   4.756   9.325 -0.5463  0.0163 -0.5299
 1915TIP3   OH229939   7.107   4.984   7.858  0.1354  0.3150 -0.0118
 1915TIP3    H129940   7.072   4.934   7.784 -2.6565  0.9497  0.7484
 1915TIP3    H229941   7.072   4.940   7.935 -0.4668  2.0433  0.7409
 1916TIP3   OH229942   4.181   1.362   8.549 -0.1973  0.0931 -0.1705
 1916TIP3    H129943   4.271   1.393   8.537 -0.2115  0.7610  1.1665
 1916TIP3    H229944   4.186   1.267   8.543 -0.0404  0.2005 -3.7883
 1917TIP3   OH229945   4.160   0.360   8.045 -0.4907  0.7970 -0.1679
 1917TIP3    H129946   4.146   0.336   7.954  0.3296  2.5755 -0.8120
 1917TIP3    H229947   4.117   0.445   8.055  0.9398  1.4633  0.5952
 1918TIP3   OH229948   0.750   6.373   7.375 -0.4621 -0.0113  0.5304
 1918TIP3    H129949   0.798   6.425   7.310  0.1033  0.9545  1.6589
 1918TIP3    H229950   0.734   6.435   7.446 -0.9896 -1.0537  1.3377
 1919TIP3   OH229951   6.700   4.278   7.459  0.2615 -0.3099  0.0392
 1919TIP3    H129952   6.659   4.203   7.417  0.3834  1.1145 -2.8566
 1919TIP3    H229953   6.629   4.324   7.503 -0.3698 -0.4495 -0.8337
 1920TIP3   OH229954   1.225   6.378   8.009 -0.7350 -0.0525 -0.3616
 1920TIP3    H129955   1.146   6.377   7.956 -0.6476 -0.9180 -0.5025
 1920TIP3    H229956   1.196   6.351   8.096 -0.6749  0.1051 -0.2929
 1921TIP3   OH229957   3.697   2.103   9.134 -0.0598 -0.4166  0.2194
 1921TIP3    H129958   3.658   2.120   9.219  0.2697  0.2062  0.2514
 1921TIP3    H229959   3.716   2.190   9.098  0.2060 -0.6817 -0.3006
 1922TIP3   OH229960   7.532   1.106   9.022  0.0512 -0.0600  0.4224
 1922TIP3    H129961   7.582   1.118   8.941  0.9887  2.3188  1.2631
 1922TIP3    H229962   7.599   1.092   9.090 -0.6932 -1.4277  0.9169
 1923TIP3   OH229963   2.102   0.301   9.001  0.7188  0.4945  0.0747
 1923TIP3    H129964   2.136   0.251   9.075  2.6221  0.5364 -0.7240
 1923TIP3    H229965   2.021   0.341   9.034  2.3299  1.8534  2.7114
 1924TIP3   OH229966   7.265   4.333   9.174 -0.4891 -0.2581 -0.4804
 1924TIP3    H129967   7.338   4.393   9.160 -0.4683  0.0559  0.9131
 1924TIP3    H229968   7.187   4.384   9.150 -0.3589 -0.2069 -0.8069
 1925TIP3   OH229969   3.529   2.305   7.261 -0.3587  0.5286  0.3091
 1925TIP3    H129970   3.470   2.312   7.186 -0.7073  1.1209  0.6396
 1925TIP3    H229971   3.545   2.211   7.270  0.2419  0.4935 -0.9351
 1926TIP3   OH229972   7.507   1.558   6.929  0.1985 -0.5141  0.3531
 1926TIP3    H129973   7.522   1.472   6.891  1.4945 -0.2371  0.1836
 1926TIP3    H229974   7.586   1.576   6.981 -0.4776  0.1512  1.1983
 1927TIP3   OH229975   1.394   7.437   7.774 -0.3479 -0.0989 -0.3235
 1927TIP3    H129976   1.349   7.357   7.800 -0.0084  0.3161  1.6768
 1927TIP3    H229977   1.331   7.507   7.790 -0.1731  0.1602 -0.7658
 1928TIP3   OH229978   3.671   7.613   7.398  0.2022  0.2939  0.0252
 1928TIP3    H129979   3.701   7.653   7.316  0.8340 -0.7371 -0.2653
 1928TIP3    H229980   3.644   7.687   7.452  0.0580  1.0156 -0.9963
 1929TIP3   OH229981   1.753   2.834   8.522 -0.2868  0.0995 -0.2573
 1929TIP3    H129982   1.718   2.919   8.495  0.1864  0.1910 -0.5893
 1929TIP3    H229983   1.716   2.820   8.609  0.4100  1.1106  0.2303
 1930TIP3   OH229984   5.765   3.575   9.073 -0.1158 -0.3230  0.3467
 1930TIP3    H129985   5.815   3.627   9.136 -0.5363  0.1780  0.2767
 1930TIP3    H229986   5.677   3.568   9.111 -0.1140 -0.8376  0.2702
 1931TIP3   OH229987   3.997   6.343   9.371  0.3096 -0.3702  0.0977
 1931TIP3    H129988   3.955   6.429   9.365  1.9746  0.4435 -0.9145
 1931TIP3    H229989   3.930   6.281   9.342 -0.4162  0.7838 -0.7942
 1932TIP3   OH229990   4.719   4.487   8.869  0.5617  0.0068  0.4030
 1932TIP3    H129991   4.661   4.557   8.898  0.7687 -0.0093  0.8639
 1932TIP3    H229992   4.751   4.517   8.783  0.8445  0.5956  0.7057
 1933TIP3   OH229993   4.235   2.875   7.680  0.2125 -0.4515  0.2575
 1933TIP3    H129994   4.310   2.924   7.649 -0.6739  0.7530 -0.0576
 1933TIP3    H229995   4.243   2.789   7.639  1.6350 -0.4922  0.5886
 1934TIP3   OH229996   0.571   7.426   8.527 -0.3609 -0.1356  0.7459
 1934TIP3    H129997   0.596   7.335   8.546  1.5837  0.0897 -0.3958
 1934TIP3    H229998   0.646   7.478   8.558 -0.6388  0.8926 -0.2426
 1935TIP3   OH229999   7.299   0.132   6.783 -0.5718 -0.4652  0.2933
 1935TIP3    H130000   7.210   0.116   6.755  0.1089 -2.2160 -1.0479
 1935TIP3    H230001   7.354   0.099   6.712  1.1717 -0.8832  1.7341
 1936TIP3   OH230002   0.850   3.122   6.983 -0.0753 -0.0976  0.3464
 1936TIP3    H130003   0.806   3.042   6.954  0.6082 -0.9040  1.4221
 1936TIP3    H230004   0.787   3.192   6.968 -0.4839 -0.7541 -1.1316
 1937TIP3   OH230005   0.419   0.496   7.800 -0.2989  0.3095 -0.2225
 1937TIP3    H130006   0.484   0.518   7.867  1.3760 -0.3339 -1.5641
 1937TIP3    H230007   0.443   0.551   7.726  1.1434 -2.5546 -2.0612
 1938TIP3   OH230008   2.759   7.360   9.291  0.1664 -0.2703  0.5342
 1938TIP3    H130009   2.674   7.321   9.269 -0.4578  0.7984  0.9457
 1938TIP3    H230010   2.823   7.298   9.259 -0.7798 -1.2304  0.4409
 1939TIP3   OH230011   0.500   4.744   7.533  0.4258  0.3007 -0.7536
 1939TIP3    H130012   0.431   4.778   7.474 -1.2866  0.1698  1.0712
 1939TIP3    H230013   0.515   4.815   7.595  1.5675  0.1014 -0.7857
 1940TIP3   OH230014   0.558   5.757   8.398 -0.6821  0.4375 -0.4810
 1940TIP3    H130015   0.509   5.793   8.324 -2.5221 -0.2986  0.3353
 1940TIP3    H230016   0.596   5.676   8.364  1.3305  1.7415 -1.5582
 1941TIP3   OH230017   4.366   4.042   7.960 -0.5576 -0.0513  0.7327
 1941TIP3    H130018   4.448   4.056   8.007 -0.6306 -1.1768  1.2379
 1941TIP3    H230019   4.303   4.019   8.028 -1.0031 -0.3426  0.2325
 1942TIP3   OH230020   6.936   6.667   7.588  0.3571  0.2849 -0.2564
 1942TIP3    H130021   6.843   6.675   7.569 -0.0486 -2.7274 -0.0791
 1942TIP3    H230022   6.971   6.617   7.514  1.8104  1.1563 -0.2021
 1943TIP3   OH230023   6.449   4.723   8.146  0.3143  0.1874 -0.0372
 1943TIP3    H130024   6.529   4.754   8.188  1.0244 -0.7371 -0.6674
 1943TIP3    H230025   6.464   4.630   8.130 -1.1992 -0.1835  0.5268
 1944TIP3   OH230026   6.243   2.707   8.556 -0.2001  0.7197  0.3197
 1944TIP3    H130027   6.191   2.629   8.573  1.3747 -0.5318 -0.2917
 1944TIP3    H230028   6.203   2.748   8.480  1.1938 -1.7280 -1.8761
 1945TIP3   OH230029   1.875   0.027   9.131  0.3409  0.0184 -0.0669
 1945TIP3    H130030   1.963   0.050   9.162  0.4581 -0.3686 -0.1065
 1945TIP3    H230031   1.828   0.110   9.129  0.1136 -0.0166  1.8121
 1946TIP3   OH230032   1.219   2.081   8.755  0.3736 -0.7222  0.2358
 1946TIP3    H130033   1.149   2.119   8.704  0.8471  0.1113  0.1953
 1946TIP3    H230034   1.285   2.055   8.691 -0.0797 -1.9481  0.2286
 1947TIP3   OH230035   6.071   2.862   7.204  0.4710  0.6403  0.4882
 1947TIP3    H130036   6.078   2.766   7.210 -1.1314  0.5633  1.7805
 1947TIP3    H230037   5.978   2.880   7.219  0.6512  2.3806 -0.2791
 1948TIP3   OH230038   5.898   7.356   6.758  0.1692 -0.2344 -0.1099
 1948TIP3    H130039   5.962   7.337   6.690 -1.2276  1.1761 -1.9428
 1948TIP3    H230040   5.945   7.412   6.820  1.4340 -1.4528  0.0796
 1949TIP3   OH230041   2.105   3.958   9.387  0.0031 -0.1745  0.2157
 1949TIP3    H130042   2.151   3.979   9.469  0.0260  0.1601  0.1200
 1949TIP3    H230043   2.150   3.881   9.354  1.4311  0.9456 -0.5779
 1950TIP3   OH230044   3.200   4.492   8.447 -0.4412  0.0113  0.0596
 1950TIP3    H130045   3.193   4.450   8.361 -2.7088 -0.4174  0.3724
 1950TIP3    H230046   3.133   4.561   8.446  0.3270  0.8184  1.0692
 1951TIP3   OH230047   5.639   0.139   7.855 -0.0258 -0.7500  0.1434
 1951TIP3    H130048   5.594   0.072   7.905  1.0300 -1.4171  0.2223
 1951TIP3    H230049   5.601   0.133   7.767 -0.2297 -1.1550  0.2588
 1952TIP3   OH230050   6.951   7.612   8.341  0.1294  0.7954  0.2876
 1952TIP3    H130051   6.880   7.601   8.404 -0.4807  0.0139 -0.4978
 1952TIP3    H230052   6.906   7.624   8.257  0.9151 -0.4757 -0.3411
 1953TIP3   OH230053   1.657   4.536   7.657  0.7342 -0.0551 -0.3923
 1953TIP3    H130054   1.645   4.480   7.734 -0.8097 -0.4246 -0.8853
 1953TIP3    H230055   1.591   4.605   7.666  0.3672 -0.2456 -1.5084
 1954TIP3   OH230056   6.100   4.898   6.152  0.1620 -0.3369 -0.0229
 1954TIP3    H130057   6.086   4.890   6.058 -1.0549  1.2456 -0.0279
 1954TIP3    H230058   6.142   4.984   6.163  1.7528 -1.1651  0.7799
 1955TIP3   OH230059   3.416   2.303   9.486 -0.2082  0.6867  0.3526
 1955TIP3    H130060   3.362   2.331   9.413  0.7107 -1.3423 -1.1861
 1955TIP3    H230061   3.364   2.237   9.531  0.0518  0.4334  0.2839
 1956TIP3   OH230062   0.118   2.175   7.581 -0.6995  0.2716 -0.2681
 1956TIP3    H130063   0.037   2.160   7.533 -0.1186  1.1187 -1.5756
 1956TIP3    H230064   0.092   2.223   7.659 -1.5191 -0.0204 -0.3564
 1957TIP3   OH230065   6.812   4.943   8.463  0.5293 -0.4666  0.5802
 1957TIP3    H130066   6.821   5.027   8.508 -2.4118 -0.3468  1.1255
 1957TIP3    H230067   6.816   4.877   8.533 -1.4684 -0.4422  0.7728
 1958TIP3   OH230068   6.346   0.486   7.956  0.4240  0.1321 -0.4763
 1958TIP3    H130069   6.393   0.547   8.013 -1.4976  1.4500 -0.1942
 1958TIP3    H230070   6.330   0.536   7.876  1.1520 -0.9520 -1.3238
 1959TIP3   OH230071   2.592   4.095   8.455 -0.2723  0.3635  0.1642
 1959TIP3    H130072   2.639   4.014   8.473  1.1271  0.2214 -3.4820
 1959TIP3    H230073   2.640   4.162   8.503  0.6644 -0.4785  0.4319
 1960TIP3   OH230074   3.109   7.541   7.463 -0.1004  0.1687  0.5746
 1960TIP3    H130075   3.103   7.598   7.540  0.8369  0.0511  0.7443
 1960TIP3    H230076   3.157   7.593   7.398 -1.7424  0.6544 -0.3242
 1961TIP3   OH230077   3.920   4.996   9.416  0.0942  0.3226 -0.1125
 1961TIP3    H130078   3.878   4.944   9.348  0.5800  0.9087 -0.8774
 1961TIP3    H230079   3.905   5.087   9.389  0.7501  0.5561  0.2802
 1962TIP3   OH230080   4.518   4.956   7.427  0.5441  0.4525  1.0916
 1962TIP3    H130081   4.520   4.973   7.333  1.5582  0.3421  1.0894
 1962TIP3    H230082   4.494   5.040   7.467  0.8717  0.6902  0.7867
 1963TIP3   OH230083   4.009   0.919   8.892 -0.0564 -0.1004 -0.0834
 1963TIP3    H130084   4.048   0.832   8.887  1.4341  0.5132  0.3504
 1963TIP3    H230085   4.074   0.978   8.853 -1.7252  0.6529 -1.9154
 1964TIP3   OH230086   0.264   5.030   7.442  0.1396 -0.6122 -0.1272
 1964TIP3    H130087   0.219   4.960   7.490 -0.0921  0.2896  1.0160
 1964TIP3    H230088   0.281   4.993   7.356  0.0154 -2.0701  0.4515
 1965TIP3   OH230089   6.795   7.027   7.354  0.1803 -0.4609 -0.1368
 1965TIP3    H130090   6.841   7.038   7.437 -1.8723 -0.2970  1.0561
 1965TIP3    H230091   6.855   6.975   7.300  1.4537 -0.8411  1.5498
 1966TIP3   OH230092   2.732   0.920   8.410 -0.1522 -0.2994 -0.0075
 1966TIP3    H130093   2.650   0.947   8.369 -0.0643  0.4918  0.3255
 1966TIP3    H230094   2.794   0.990   8.390  0.4722 -0.9195 -0.3118
 1967TIP3   OH230095   1.657   4.692   8.249 -0.0499  0.5270  0.5889
 1967TIP3    H130096   1.712   4.637   8.194 -0.4882  0.6644  0.0041
 1967TIP3    H230097   1.581   4.638   8.270 -1.4907  1.5287 -1.6776
 1968TIP3   OH230098   4.728   0.977   8.713  0.0369  0.1017  0.4474
 1968TIP3    H130099   4.802   1.005   8.768  1.2954  0.5875 -1.4187
 1968TIP3    H230100   4.677   0.919   8.770  2.2290 -0.8402  1.5911
 1969TIP3   OH230101   2.804   7.555   7.338 -0.0671 -0.1023  0.0359
 1969TIP3    H130102   2.747   7.615   7.386  1.2664 -0.4449  2.1999
 1969TIP3    H230103   2.889   7.563   7.382  1.1088 -0.8747 -1.9803
 1970TIP3   OH230104   5.437   2.593   7.636  0.7527 -0.7592 -0.1026
 1970TIP3    H130105   5.444   2.556   7.548  0.2259  0.3038 -0.6101
 1970TIP3    H230106   5.492   2.537   7.690  1.1431 -1.3863 -1.1208
 1971TIP3   OH230107   6.252   7.380   7.266 -0.2075  0.2533  0.2971
 1971TIP3    H130108   6.223   7.463   7.229  2.1784  0.2811 -1.8303
 1971TIP3    H230109   6.189   7.315   7.234 -0.3840  0.8503 -0.5886
 1972TIP3   OH230110   4.594   2.767   7.799 -0.1079 -0.3079  0.7601
 1972TIP3    H130111   4.668   2.822   7.775 -0.3690 -0.6955 -1.0846
 1972TIP3    H230112   4.521   2.802   7.748 -0.5667 -1.5838  0.5016
 1973TIP3   OH230113   2.224   6.493   9.388  0.4746  0.3433 -0.3331
 1973TIP3    H130114   2.265   6.421   9.436 -1.9419  0.2005  1.7184
 1973TIP3    H230115   2.133   6.466   9.378  0.0916  2.0175 -1.8242
 1974TIP3   OH230116   5.734   0.758   8.675  0.1672 -0.5693  0.2224
 1974TIP3    H130117   5.821   0.753   8.714 -0.0369 -1.4050  0.5969
 1974TIP3    H230118   5.693   0.834   8.716  1.0287  0.3896 -0.6332
 1975TIP3   OH230119   4.817   5.528   9.003 -0.1331  0.0419  0.2661
 1975TIP3    H130120   4.726   5.552   9.020 -0.2862 -0.4270  0.1165
 1975TIP3    H230121   4.840   5.577   8.924 -1.0915 -1.8305 -1.2517
 1976TIP3   OH230122   0.158   3.082   7.470  0.2642  0.2728 -0.0715
 1976TIP3    H130123   0.243   3.108   7.507  0.7907  0.4951 -1.3542
 1976TIP3    H230124   0.180   3.046   7.384 -1.0267  1.2560 -0.8436
 1977TIP3   OH230125   0.182   6.208   9.008 -0.3278  0.4027  0.5284
 1977TIP3    H130126   0.105   6.247   9.050 -0.9033 -1.0361  0.8850
 1977TIP3    H230127   0.148   6.171   8.926  0.5425  2.0899 -0.6539
 1978TIP3   OH230128   6.003   5.449   9.605 -0.0538  0.1203  0.1407
 1978TIP3    H130129   5.922   5.398   9.606  0.1129 -0.1499  0.8763
 1978TIP3    H230130   6.072   5.385   9.590 -0.1077  0.6232 -2.8486
 1979TIP3   OH230131   5.534   6.262   7.300  0.1314 -0.4375  0.3237
 1979TIP3    H130132   5.507   6.245   7.210  0.8711  0.5378 -0.1003
 1979TIP3    H230133   5.484   6.199   7.352 -0.2912 -1.0302 -0.7606
 1980TIP3   OH230134   7.329   3.618   9.562 -0.2443 -0.0717 -0.3482
 1980TIP3    H130135   7.332   3.594   9.655  0.4553  0.1937 -0.2966
 1980TIP3    H230136   7.301   3.709   9.562 -0.2592 -0.0761 -0.4029
 1981TIP3   OH230137   6.543   4.876   7.362  0.1207 -0.2781  0.4094
 1981TIP3    H130138   6.595   4.905   7.287 -0.3805  0.4439  0.3344
 1981TIP3    H230139   6.604   4.825   7.415  0.6787 -0.1590 -0.1103
 1982TIP3   OH230140   0.484   6.329   7.467  0.5037  0.4006 -0.3908
 1982TIP3    H130141   0.577   6.334   7.445  0.3893 -0.4851 -1.1557
 1982TIP3    H230142   0.482   6.328   7.563  1.3701 -0.6427 -0.3613
 1983TIP3   OH230143   6.251   7.433   8.213 -0.0197 -0.3401  0.1751
 1983TIP3    H130144   6.238   7.519   8.254  0.4773  0.2224 -0.8066
 1983TIP3    H230145   6.176   7.424   8.154 -1.0811 -1.4310  1.6216
 1984TIP3   OH230146   2.978   0.006   9.178 -0.3839  0.0554 -0.3344
 1984TIP3    H130147   2.991   0.097   9.153 -0.2606 -0.1055 -0.8505
 1984TIP3    H230148   3.065  -0.032   9.177 -0.1115  0.4312  1.9145
 1985TIP3   OH230149   0.260   4.336   8.031 -0.3879  0.1984  0.2721
 1985TIP3    H130150   0.259   4.251   7.988  1.3384  0.0779  0.3948
 1985TIP3    H230151   0.236   4.398   7.962  0.9934 -0.1304 -0.5415
 1986TIP3   OH230152   1.514   0.934   8.363  0.2686  0.3941 -0.2130
 1986TIP3    H130153   1.507   1.018   8.408 -1.0201  0.0507  0.2951
 1986TIP3    H230154   1.440   0.933   8.302  0.4399 -0.2415 -0.4211
 1987TIP3   OH230155   1.476   5.141   7.618  0.1903 -0.1993 -0.1598
 1987TIP3    H130156   1.524   5.163   7.538 -0.2457  1.8276  0.0733
 1987TIP3    H230157   1.526   5.184   7.688 -1.1693  0.7933  0.2479
 1988TIP3   OH230158   2.952   3.412   6.774  0.0478  0.4990 -0.1422
 1988TIP3    H130159   3.015   3.482   6.761 -0.0504  1.2121  2.6380
 1988TIP3    H230160   2.867   3.456   6.772  0.0281  0.7229  2.5709
 1989TIP3   OH230161   4.484   2.316   7.629 -0.4234  0.1853 -0.2079
 1989TIP3    H130162   4.506   2.256   7.557 -0.8185  1.0737 -1.1054
 1989TIP3    H230163   4.404   2.359   7.600  0.1874  1.5997  0.1072
 1990TIP3   OH230164   2.548   0.642   7.187 -0.6001 -0.4340  0.1853
 1990TIP3    H130165   2.471   0.625   7.133 -0.1185 -0.4193 -0.5114
 1990TIP3    H230166   2.606   0.692   7.131 -0.4164  0.2711  0.9768
 1991TIP3   OH230167   6.117   2.487   8.807 -0.2776 -0.4652  0.0581
 1991TIP3    H130168   6.093   2.469   8.716 -0.9353  0.2821  0.0778
 1991TIP3    H230169   6.139   2.401   8.843  1.3822 -0.6033 -1.1833
 1992TIP3   OH230170   3.282   0.306   7.563 -0.1128 -0.2466  0.1509
 1992TIP3    H130171   3.303   0.249   7.489  1.4053 -0.3576  0.6340
 1992TIP3    H230172   3.204   0.267   7.602 -0.1357 -0.9614 -0.5877
 1993TIP3   OH230173   5.588   5.835   8.521 -0.6532 -0.2775 -0.1921
 1993TIP3    H130174   5.541   5.868   8.445  0.1469  0.9274 -0.1819
 1993TIP3    H230175   5.675   5.874   8.515  0.4675 -2.6349 -0.3200
 1994TIP3   OH230176   5.659   5.566   8.016 -0.5548 -0.0657 -0.7654
 1994TIP3    H130177   5.666   5.482   7.970 -0.5601 -0.5689  0.1296
 1994TIP3    H230178   5.578   5.558   8.068 -0.1357  0.1771 -0.0640
 1995TIP3   OH230179   1.028   5.959   7.285 -0.2783  0.8436  0.1655
 1995TIP3    H130180   1.110   6.000   7.257  0.8241 -0.8782  0.7024
 1995TIP3    H230181   1.026   5.972   7.380  0.4810 -0.9046  0.4613
 1996TIP3   OH230182   1.295   4.334   7.384  0.2243 -0.2122 -0.3769
 1996TIP3    H130183   1.375   4.350   7.335  1.3758  0.5686  1.6446
 1996TIP3    H230184   1.278   4.415   7.431 -1.6141 -0.4663 -0.5105
 1997TIP3   OH230185   6.193   1.321   8.927 -0.4490 -0.4522  0.1713
 1997TIP3    H130186   6.254   1.263   8.973  0.9720  1.1570  0.4200
 1997TIP3    H230187   6.204   1.301   8.835  0.2227 -0.4169  0.2410
 1998TIP3   OH230188   3.389   4.153   9.056 -0.3361  0.0485  0.8460
 1998TIP3    H130189   3.442   4.217   9.104 -0.6723 -0.3897  1.8166
 1998TIP3    H230190   3.439   4.072   9.061  0.8996  0.5220 -1.7622
 1999TIP3   OH230191   6.099   1.579   7.964 -0.2021  0.5107  0.4135
 1999TIP3    H130192   6.118   1.500   8.014  1.6190  0.9884  0.5798
 1999TIP3    H230193   6.018   1.560   7.917 -1.5780 -0.2526  2.9225
 2000TIP3   OH230194   4.938   3.806   7.944  0.8103  0.6085 -0.1328
 2000TIP3    H130195   4.882   3.731   7.965  0.7545  0.5842 -0.3573
 2000TIP3    H230196   4.948   3.854   8.026  1.0295  0.2314  0.0612
 2001TIP3   OH230197   2.913   1.137   9.212  0.3353  0.2737 -0.3679
 2001TIP3    H130198   3.001   1.168   9.192  1.1636 -0.3335  2.0235
 2001TIP3    H230199   2.908   1.051   9.170  0.8021  0.3911 -0.6692
 2002TIP3   OH230200   3.617   6.861   7.753 -0.5734 -0.1706 -0.0223
 2002TIP3    H130201   3.566   6.803   7.809 -1.1252 -0.8762 -1.2127
 2002TIP3    H230202   3.566   6.942   7.749 -1.4760 -0.7706 -0.9738
 2003TIP3   OH230203   1.311   4.584   7.792 -0.0124 -0.1346 -0.5869
 2003TIP3    H130204   1.278   4.604   7.880  0.3880  0.8642 -0.6577
 2003TIP3    H230205   1.398   4.624   7.789 -0.2477  0.3288 -1.6343
 2004TIP3   OH230206   1.095   4.907   7.595 -0.2575 -0.2630 -0.2730
 2004TIP3    H130207   1.009   4.885   7.560 -0.5757 -0.0978  0.3881
 2004TIP3    H230208   1.085   4.901   7.690  0.5307 -0.5010 -0.1953
 2005TIP3   OH230209   5.397   6.510   8.457 -0.0349  0.2027 -0.1815
 2005TIP3    H130210   5.458   6.583   8.456  0.1225  0.2180  2.9058
 2005TIP3    H230211   5.320   6.543   8.410  0.2752  2.1353  0.5763
 2006TIP3   OH230212   5.366   1.576   9.346  0.1414  0.0160 -0.1818
 2006TIP3    H130213   5.332   1.612   9.427 -0.5224  0.0448 -0.4694
 2006TIP3    H230214   5.381   1.483   9.365 -3.4358 -0.8848 -1.0108
 2007TIP3   OH230215   7.036   5.879   7.318 -0.1667  0.1050 -0.6133
 2007TIP3    H130216   7.106   5.814   7.327  0.8039  0.9858 -1.5653
 2007TIP3    H230217   6.964   5.843   7.369  1.0980 -0.6415  0.7328
 2008TIP3   OH230218   3.844   6.199   8.492  0.1072 -0.0130  0.5389
 2008TIP3    H130219   3.789   6.210   8.570  0.7571 -1.0497  1.1645
 2008TIP3    H230220   3.871   6.107   8.495  2.1547  0.5370  0.4580
 2009TIP3   OH230221   7.137   0.645   8.564 -0.1755  0.4043  0.2506
 2009TIP3    H130222   7.198   0.583   8.603 -0.9311 -0.3735  0.2330
 2009TIP3    H230223   7.050   0.609   8.584 -0.6182  1.1596 -0.2430
 2010TIP3   OH230224   0.740   4.361   7.442  0.3061 -0.2174  0.0872
 2010TIP3    H130225   0.756   4.285   7.498  0.6358 -0.8909 -0.8937
 2010TIP3    H230226   0.827   4.389   7.414  0.0883 -0.6646 -1.0824
 2011TIP3   OH230227   7.580   6.027   7.220  0.5326 -0.3466  0.2697
 2011TIP3    H130228   7.605   5.945   7.178  3.6473  0.9588 -0.6780
 2011TIP3    H230229   7.659   6.057   7.264  0.0125  2.9108 -0.7677
 2012TIP3   OH230230   7.490   0.758   7.311  0.1979  0.0921 -0.4806
 2012TIP3    H130231   7.558   0.823   7.292 -0.0964  0.4410 -0.3518
 2012TIP3    H230232   7.448   0.741   7.227  1.4737 -1.3181 -0.8790
 2013TIP3   OH230233   6.126   1.881   6.917  0.3265 -0.3729  0.0630
 2013TIP3    H130234   6.078   1.935   6.854 -2.3656 -1.3150  1.1460
 2013TIP3    H230235   6.163   1.811   6.865 -1.0503 -0.6170 -0.6404
 2014TIP3   OH230236   6.045   0.309   7.387  0.2906 -0.2875  0.1835
 2014TIP3    H130237   6.099   0.383   7.413  0.1427 -0.5832  1.3613
 2014TIP3    H230238   6.106   0.249   7.343  0.6034  0.0720  0.1231
 2015TIP3   OH230239   1.139   1.440   8.728 -0.1272  0.5914 -0.0808
 2015TIP3    H130240   1.118   1.350   8.754 -0.2511  0.2350 -1.3574
 2015TIP3    H230241   1.224   1.457   8.767 -0.7199  0.4286  1.3409
 2016TIP3   OH230242   1.323   0.533   8.341  0.5441 -1.0142 -0.2534
 2016TIP3    H130243   1.285   0.449   8.365  2.0148 -1.6174  0.0548
 2016TIP3    H230244   1.309   0.589   8.417 -0.3302 -1.0000 -0.4154
 2017TIP3   OH230245   3.071   3.315   7.713  0.2633  0.0376 -0.3281
 2017TIP3    H130246   3.004   3.330   7.646  0.7232  0.5534 -0.6880
 2017TIP3    H230247   3.154   3.332   7.668  0.6790 -1.0719 -0.0294
 2018TIP3   OH230248   1.328   6.416   7.472  0.6203  0.4833  0.0469
 2018TIP3    H130249   1.346   6.336   7.423  2.6935  0.5689  0.5915
 2018TIP3    H230250   1.370   6.485   7.422 -0.3151  1.1158  0.1023
 2019TIP3   OH230251   1.293   1.245   7.156  0.2099  0.0180  0.1079
 2019TIP3    H130252   1.252   1.327   7.132 -1.6244 -1.0874 -0.7578
 2019TIP3    H230253   1.364   1.270   7.215  0.4418  2.2792 -1.0318
 2020TIP3   OH230254   2.519   5.060   8.777  0.0644  0.2677  0.5927
 2020TIP3    H130255   2.492   5.150   8.758  0.9655  0.6116  0.9243
 2020TIP3    H230256   2.458   5.031   8.845  1.6878  1.7432  2.8349
 2021TIP3   OH230257   2.618   0.225   9.111  0.3742  0.1047  0.4748
 2021TIP3    H130258   2.627   0.130   9.102 -1.9092 -0.1229 -0.0457
 2021TIP3    H230259   2.683   0.262   9.052  1.3534 -1.1134  0.7541
 2022TIP3   OH230260   6.458   4.207   9.473 -0.3672  0.5186  0.0294
 2022TIP3    H130261   6.373   4.195   9.515  1.1051 -0.7004  2.9777
 2022TIP3    H230262   6.460   4.142   9.403 -1.4693 -0.1807  0.6190
 2023TIP3   OH230263   4.769   1.977   6.896 -0.3878 -0.1622  0.1694
 2023TIP3    H130264   4.732   1.993   6.809  1.3987 -1.3273 -0.8665
 2023TIP3    H230265   4.760   2.061   6.941 -0.8794  0.6277 -1.3105
 2024TIP3   OH230266   0.267   0.430   7.435 -0.0911  0.8455  0.3288
 2024TIP3    H130267   0.320   0.351   7.426  1.8395  1.9854  1.0294
 2024TIP3    H230268   0.255   0.462   7.346 -0.4803  0.0441  0.0856
 2025TIP3   OH230269   5.724   0.756   8.970 -1.0977  0.6859 -0.4401
 2025TIP3    H130270   5.815   0.737   8.946 -1.6984  0.0595 -2.3042
 2025TIP3    H230271   5.726   0.848   8.998  0.0350  0.7957 -0.8344
 2026TIP3   OH230272   6.126   4.482   9.801 -0.2442 -0.0154  0.0748
 2026TIP3    H130273   6.036   4.497   9.829 -0.1534 -1.7387  1.5288
 2026TIP3    H230274   6.171   4.454   9.881  1.5731  0.7492 -0.6297
 2027TIP3   OH230275   7.303   2.894   9.252 -0.4453  0.3668  0.1383
 2027TIP3    H130276   7.300   2.828   9.183 -2.3378  1.1115 -0.5713
 2027TIP3    H230277   7.395   2.898   9.279 -0.0954 -1.6813 -0.6183
 2028TIP3   OH230278   5.326   6.491   7.130 -0.1906  0.1733  0.0564
 2028TIP3    H130279   5.407   6.502   7.179 -0.7854  0.4544  0.9890
 2028TIP3    H230280   5.286   6.412   7.166 -0.7296  0.4921  0.1588
 2029TIP3   OH230281   4.056   5.688   8.160 -0.0602 -0.3983 -0.5196
 2029TIP3    H130282   3.975   5.724   8.195  0.5378  0.2381  0.2714
 2029TIP3    H230283   4.049   5.699   8.065 -0.4224  0.7006 -0.3809
 2030TIP3   OH230284   4.592   0.655   7.136  0.8754 -0.5095 -0.3908
 2030TIP3    H130285   4.602   0.639   7.042  2.6872  0.1993 -0.3652
 2030TIP3    H230286   4.680   0.642   7.172  0.5673  0.8073  0.9587
 2031TIP3   OH230287   0.704   2.931   8.160  0.5346 -0.1879 -0.3209
 2031TIP3    H130288   0.682   2.890   8.077 -0.9621  0.5468 -0.3237
 2031TIP3    H230289   0.736   2.860   8.215  0.0003 -0.9669 -1.0025
 2032TIP3   OH230290   1.961   1.928   9.302 -0.0758  0.0548  0.1327
 2032TIP3    H130291   1.974   1.984   9.226  0.0277 -1.1196 -0.7436
 2032TIP3    H230292   2.044   1.931   9.349 -0.3449  1.2865  0.5728
 2033TIP3   OH230293   1.915   1.163   8.226  0.5774  0.0691 -0.2038
 2033TIP3    H130294   1.945   1.089   8.280 -1.7220  0.0628  1.2206
 2033TIP3    H230295   1.935   1.137   8.136  2.1492 -1.1120  0.4414
 2034TIP3   OH230296   0.090   2.213   8.989  0.0957  0.0388 -0.1363
 2034TIP3    H130297   0.154   2.187   8.923 -0.1485  0.5289 -0.5739
 2034TIP3    H230298   0.130   2.288   9.033  0.2345 -0.2518  0.2466
 2035TIP3   OH230299   2.856   1.048   7.747  0.0163 -0.1895 -0.0234
 2035TIP3    H130300   2.797   1.080   7.815 -0.5153  0.1360 -0.6134
 2035TIP3    H230301   2.805   0.982   7.700  0.6380 -0.9416  0.3457
 2036TIP3   OH230302   1.504   0.554   8.884 -0.0722  0.0721  0.5082
 2036TIP3    H130303   1.462   0.632   8.921  0.5887  0.2187  0.9552
 2036TIP3    H230304   1.589   0.584   8.854  1.0357 -0.8572  2.5027
 2037TIP3   OH230305   2.122   0.871   7.368 -0.3261 -0.0001  0.5118
 2037TIP3    H130306   2.177   0.803   7.407  2.1587 -0.1796 -2.8923
 2037TIP3    H230307   2.074   0.827   7.299  0.3904  1.3593 -0.9300
 2038TIP3   OH230308   7.251   7.059   7.666  0.1583 -0.0223  0.1843
 2038TIP3    H130309   7.177   7.017   7.622  0.4471 -0.7919  0.4081
 2038TIP3    H230310   7.216   7.089   7.750 -0.2335  0.8718 -0.2843
 2039TIP3   OH230311   1.438   7.300   8.425 -0.1559 -0.2785  0.2935
 2039TIP3    H130312   1.494   7.294   8.347  0.7404 -0.0403  0.8949
 2039TIP3    H230313   1.462   7.384   8.465  1.2877 -1.4913  2.1820
 2040TIP3   OH230314   4.170   5.650   7.437  0.5664 -0.3889  0.3291
 2040TIP3    H130315   4.195   5.605   7.357 -0.0098 -0.2137  0.0498
 2040TIP3    H230316   4.231   5.724   7.443  0.1959 -0.0243 -0.2936
 2041TIP3   OH230317   5.753   5.756   7.728 -0.2722 -0.5836  0.3117
 2041TIP3    H130318   5.721   5.768   7.817 -0.8812 -0.2116  0.0471
 2041TIP3    H230319   5.708   5.823   7.677  1.2370  0.2465  0.0010
 2042TIP3   OH230320   4.368   3.377   8.465 -0.7706 -0.5343 -0.0613
 2042TIP3    H130321   4.319   3.314   8.519  0.3839 -1.7505 -0.3679
 2042TIP3    H230322   4.412   3.323   8.400  0.7746  0.5197  0.0540
 2043TIP3   OH230323   7.644   2.966   9.044  0.4976 -0.2831 -0.2484
 2043TIP3    H130324   7.627   2.873   9.061  1.8188 -0.3170  1.0700
 2043TIP3    H230325   7.599   3.012   9.115 -2.1179  0.3204 -2.1517
 2044TIP3   OH230326   3.860   0.216   7.725  0.2730 -0.2759 -0.0986
 2044TIP3    H130327   3.860   0.311   7.719 -0.1316 -0.1848  1.0382
 2044TIP3    H230328   3.778   0.194   7.769  0.5221 -1.1227 -0.0251
 2045TIP3   OH230329   7.144   5.141   7.487  0.2288  0.0171  0.1743
 2045TIP3    H130330   7.113   5.072   7.546 -0.1349  1.1595  1.3506
 2045TIP3    H230331   7.237   5.122   7.475 -0.1946 -1.6154 -0.8617
 2046TIP3   OH230332   6.890   5.988   7.883 -0.3282  0.4066 -0.2510
 2046TIP3    H130333   6.902   6.066   7.828 -0.6628  1.0152  0.5247
 2046TIP3    H230334   6.941   6.006   7.962  0.1926 -0.4884 -0.3620
 2047TIP3   OH230335   7.518   7.623   7.713  0.6001  0.3029 -0.5879
 2047TIP3    H130336   7.451   7.643   7.778  1.8703  0.2456  0.7934
 2047TIP3    H230337   7.594   7.675   7.740  0.6865  1.5996 -3.0089
 2048TIP3   OH230338   4.342   0.130   9.211  0.4604  0.0013  0.8173
 2048TIP3    H130339   4.421   0.076   9.215  1.5238  1.4351  0.3029
 2048TIP3    H230340   4.271   0.072   9.237  1.1865 -2.2637 -1.8543
 2049TIP3   OH230341   4.625   5.815   7.977  0.3609  1.1268 -0.1207
 2049TIP3    H130342   4.632   5.794   8.071 -1.8544  0.8792  0.0408
 2049TIP3    H230343   4.656   5.736   7.933 -0.9482  0.2677  0.4493
 2050TIP3   OH230344   2.845   5.234   7.685 -0.6749 -0.0232  0.0610
 2050TIP3    H130345   2.835   5.248   7.779 -0.2479 -0.6942  0.2221
 2050TIP3    H230346   2.936   5.257   7.668  0.0711 -2.4574  0.3515
 2051TIP3   OH230347   1.210   2.778   8.790  0.5755 -0.2140 -0.4664
 2051TIP3    H130348   1.152   2.761   8.865 -1.3976 -0.2496 -1.9226
 2051TIP3    H230349   1.242   2.867   8.805  0.8913 -0.5154  0.8186
 2052TIP3   OH230350   0.586   7.133   8.510  0.6192 -0.3619 -0.5281
 2052TIP3    H130351   0.658   7.112   8.569  0.3824  1.2538  0.4049
 2052TIP3    H230352   0.518   7.068   8.531  0.6554 -0.0120  0.7898
 2053TIP3   OH230353   6.786   4.045   8.256 -0.4417 -0.1461  0.2640
 2053TIP3    H130354   6.870   4.065   8.214 -0.1749 -0.2201  0.7547
 2053TIP3    H230355   6.724   4.106   8.216 -0.0770  0.1688  0.1683
 2054TIP3   OH230356   6.443   4.877   8.659  0.8537  0.6408 -0.5800
 2054TIP3    H130357   6.417   4.846   8.572 -0.9951  1.1141 -0.2292
 2054TIP3    H230358   6.378   4.943   8.681  0.0180 -0.9294  2.0490
 2055TIP3   OH230359   5.537   5.816   9.018  0.2571 -0.2423 -0.4513
 2055TIP3    H130360   5.613   5.765   9.047  0.4420  0.4630  0.3533
 2055TIP3    H230361   5.538   5.808   8.923  0.7497 -1.0711 -0.3953
 2056TIP3   OH230362   4.320   4.312   8.140  0.1147  0.3963  0.3210
 2056TIP3    H130363   4.404   4.351   8.113  1.1061 -0.4216  2.0639
 2056TIP3    H230364   4.265   4.387   8.162  0.8893  0.9058  0.5684
 2057TIP3   OH230365   0.197   2.692   6.963 -0.4589 -0.2269 -0.2807
 2057TIP3    H130366   0.205   2.652   6.877  1.7631 -2.9863  1.0244
 2057TIP3    H230367   0.179   2.618   7.022  4.8348  0.2027  2.4584
 2058TIP3   OH230368   2.244   2.075   6.842 -0.0263 -0.2893  0.4591
 2058TIP3    H130369   2.291   2.149   6.879 -0.9048  0.8836 -0.7026
 2058TIP3    H230370   2.245   2.089   6.748 -2.2496 -0.4438  0.3483
 2059TIP3   OH230371   3.545   0.405   7.594  0.4443  0.0685 -0.2708
 2059TIP3    H130372   3.449   0.400   7.598  0.3686  0.6305 -1.0824
 2059TIP3    H230373   3.567   0.368   7.509  0.9656 -0.1674 -0.0367
 2060TIP3   OH230374   4.797   4.930   6.764 -0.2293 -0.1309  0.3220
 2060TIP3    H130375   4.876   4.887   6.797 -1.0040 -2.7202 -0.8518
 2060TIP3    H230376   4.727   4.896   6.819 -0.8551 -0.2181 -0.5003
 2061TIP3   OH230377   5.895   2.942   7.683  0.8441 -0.2369  0.3728
 2061TIP3    H130378   5.918   3.016   7.740  0.3220 -0.8239  1.3517
 2061TIP3    H230379   5.809   2.914   7.713 -1.0401  1.4869 -2.7802
 2062TIP3   OH230380   2.590   2.790   7.876  0.5366 -0.4022  0.1121
 2062TIP3    H130381   2.508   2.799   7.827  0.6556 -1.0708 -0.2132
 2062TIP3    H230382   2.581   2.852   7.948  0.1440  0.2236 -0.4624
 2063TIP3   OH230383   1.114   0.875   9.106  0.1117 -0.1537 -0.0433
 2063TIP3    H130384   1.088   0.879   9.014 -0.1971  0.4911  0.0671
 2063TIP3    H230385   1.175   0.948   9.117  0.8149 -0.7406  0.0696
 2064TIP3   OH230386   5.783   1.962   8.382  0.8264 -0.0344 -0.0311
 2064TIP3    H130387   5.767   1.929   8.293 -1.4809  1.3674 -0.2249
 2064TIP3    H230388   5.878   1.959   8.392  1.0389 -1.8732 -1.8742
 2065TIP3   OH230389   1.279   1.979   8.500  0.0595  0.4805  0.4109
 2065TIP3    H130390   1.329   2.033   8.438  1.0647  1.3427  1.9237
 2065TIP3    H230391   1.205   1.947   8.448  1.1933  0.6328 -1.4130
 2066TIP3   OH230392   6.878   2.074   9.148  0.0526 -0.1876 -0.1174
 2066TIP3    H130393   6.894   1.990   9.104 -0.0583 -0.4110  0.2630
 2066TIP3    H230394   6.961   2.121   9.141  0.3680 -0.6627  0.3821
 2067TIP3   OH230395   4.572   4.675   7.229 -0.6328 -0.7119 -0.0507
 2067TIP3    H130396   4.519   4.725   7.167 -0.9478 -0.6176  0.2875
 2067TIP3    H230397   4.572   4.586   7.195  0.0495 -0.4620 -0.7347
 2068TIP3   OH230398   3.697   0.867   8.002 -0.0158  0.2645 -0.2877
 2068TIP3    H130399   3.792   0.875   8.016  0.1580  0.0304 -1.2155
 2068TIP3    H230400   3.689   0.847   7.908 -1.0459  1.6302 -0.5227
 2069TIP3   OH230401   0.900   3.554   8.376  0.0325  0.1742 -0.2024
 2069TIP3    H130402   0.963   3.488   8.403 -2.5889 -2.3854  0.2434
 2069TIP3    H230403   0.902   3.551   8.280  0.9898  0.5715 -0.2022
 2070TIP3   OH230404   1.736   3.340   9.487 -0.3561  0.0134  0.7201
 2070TIP3    H130405   1.794   3.414   9.468 -0.3039  0.0051  0.8449
 2070TIP3    H230406   1.785   3.286   9.549 -0.0152 -0.6148 -0.0760
 2071TIP3   OH230407   2.843   7.638   8.440  0.1762 -0.4828  0.4232
 2071TIP3    H130408   2.818   7.630   8.532 -1.1951 -1.5738 -0.0030
 2071TIP3    H230409   2.821   7.729   8.418  2.4625  0.4416  1.6616
 2072TIP3   OH230410   6.642   2.736   8.737 -0.2814 -0.0985 -0.0010
 2072TIP3    H130411   6.695   2.752   8.815  0.2740  1.0753 -0.6009
 2072TIP3    H230412   6.697   2.681   8.682 -0.1909  0.0842 -0.0918
 2073TIP3   OH230413   2.286   1.228   7.998  0.0599 -0.1148 -0.3933
 2073TIP3    H130414   2.340   1.221   8.077 -0.6867  1.0620  0.2287
 2073TIP3    H230415   2.332   1.292   7.944  0.0166 -0.1476 -0.4686
 2074TIP3   OH230416   5.291   3.892   7.831 -0.7222 -0.2951 -0.0446
 2074TIP3    H130417   5.281   3.850   7.745  0.8968 -0.0943 -0.3534
 2074TIP3    H230418   5.300   3.818   7.892 -1.0978 -0.4229 -0.1366
 2075TIP3   OH230419   5.651   1.399   7.269  0.2058 -1.0051 -0.4398
 2075TIP3    H130420   5.561   1.385   7.240 -0.2728 -0.7179  0.8486
 2075TIP3    H230421   5.676   1.483   7.230 -0.6501 -0.3134  0.4534
 2076TIP3   OH230422   2.143   7.103   7.011  0.0267  0.0202  0.2378
 2076TIP3    H130423   2.196   7.096   6.932  2.9867  0.6563  2.0174
 2076TIP3    H230424   2.201   7.075   7.082 -1.5658  2.0347  2.5065
 2077TIP3   OH230425   5.438   5.788   8.137 -0.3341 -0.0750 -0.2468
 2077TIP3    H130426   5.492   5.741   8.200  0.0892 -0.0512 -0.5854
 2077TIP3    H230427   5.353   5.796   8.179  0.2042  0.7685  0.7225
 2078TIP3   OH230428   1.669   5.491   8.461 -0.8374  0.2693  0.4172
 2078TIP3    H130429   1.688   5.397   8.457 -1.2090  0.2012  0.2271
 2078TIP3    H230430   1.575   5.497   8.445 -1.0102  0.5943  1.4999
 2079TIP3   OH230431   6.068   2.876   8.711 -0.4673 -1.1184  0.9392
 2079TIP3    H130432   6.126   2.834   8.648  0.0262  0.3406  0.3874
 2079TIP3    H230433   6.059   2.966   8.679 -1.4622 -0.7836  2.0995
 2080TIP3   OH230434   4.660   1.945   7.367  0.5166 -0.4093 -0.1093
 2080TIP3    H130435   4.687   1.896   7.445 -0.6180 -1.3600 -0.2830
 2080TIP3    H230436   4.608   1.882   7.316  0.1211  0.5921 -0.9811
 2081TIP3   OH230437   5.476   0.676   8.825 -0.2033  0.0360 -0.0359
 2081TIP3    H130438   5.563   0.715   8.812  0.0606 -0.3509  0.5110
 2081TIP3    H230439   5.449   0.706   8.912 -1.5379  1.8424 -1.0158
 2082TIP3   OH230440   2.641   0.249   8.469  0.1749  0.2256 -0.1361
 2082TIP3    H130441   2.718   0.306   8.468 -0.3707  0.9998  0.3870
 2082TIP3    H230442   2.567   0.310   8.464 -0.4733 -0.3245  1.7993
 2083TIP3   OH230443   0.080   1.131   8.589 -0.1745 -0.3622  0.1437
 2083TIP3    H130444   0.032   1.106   8.510  0.9968 -1.0216 -0.3823
 2083TIP3    H230445   0.053   1.067   8.655 -1.8323  0.7177  0.5661
 2084TIP3   OH230446   4.852   2.200   8.867  0.7256  0.2166  0.3416
 2084TIP3    H130447   4.806   2.119   8.888  1.9946 -0.0031  2.6189
 2084TIP3    H230448   4.784   2.268   8.872  0.2253 -0.3363  1.6749
 2085TIP3   OH230449   5.849   2.036   7.025  0.3532 -0.1559  0.3165
 2085TIP3    H130450   5.806   1.956   6.996 -0.8542  0.2334  0.9380
 2085TIP3    H230451   5.785   2.078   7.082  0.9284  1.2864 -0.0527
 2086TIP3   OH230452   3.508   3.814   8.268 -0.9924  0.2836  0.0410
 2086TIP3    H130453   3.478   3.788   8.181 -1.0757 -1.8171  0.6389
 2086TIP3    H230454   3.601   3.791   8.269 -0.8636  0.8135  0.3247
 2087TIP3   OH230455   5.620   5.067   8.506  0.3068 -0.0248 -0.1636
 2087TIP3    H130456   5.620   5.052   8.412 -0.6488  1.2238 -0.3941
 2087TIP3    H230457   5.646   5.159   8.516 -0.5731  0.1493  0.7082
 2088TIP3   OH230458   0.208   6.598   8.849 -0.1806  0.3448  0.5373
 2088TIP3    H130459   0.266   6.549   8.792 -1.4642 -0.5467 -0.0683
 2088TIP3    H230460   0.144   6.638   8.791 -1.5532 -0.6344  1.3106
 2089TIP3   OH230461   5.479   2.035   8.446 -0.3951 -0.0554  0.4716
 2089TIP3    H130462   5.567   2.054   8.413 -0.4042 -0.0367  0.4591
 2089TIP3    H230463   5.488   2.039   8.541 -1.0414  2.9341  0.4829
 2090TIP3   OH230464   6.289   5.240   9.350  0.2747 -0.0652 -0.3453
 2090TIP3    H130465   6.371   5.235   9.399  0.4227  1.0330 -0.4582
 2090TIP3    H230466   6.306   5.305   9.281 -1.2152  1.4846  0.6759
 2091TIP3   OH230467   3.801   3.710   8.290  0.0679 -0.2303  0.1747
 2091TIP3    H130468   3.891   3.738   8.276  0.7974 -1.8152  1.3972
 2091TIP3    H230469   3.801   3.670   8.377 -1.9006  0.0226  0.3391
 2092TIP3   OH230470   2.249   6.375   7.776  0.3058 -0.4261 -0.0663
 2092TIP3    H130471   2.192   6.361   7.701  0.2490  0.6797 -0.2509
 2092TIP3    H230472   2.247   6.292   7.824 -1.5383 -0.3822 -0.0147
 2093TIP3   OH230473   2.243   3.163   8.759 -0.4104 -0.0860 -0.9724
 2093TIP3    H130474   2.295   3.185   8.836 -2.8203  1.0883  0.4233
 2093TIP3    H230475   2.307   3.138   8.693  1.7491 -1.1945  1.4066
 2094TIP3   OH230476   1.698   1.764   9.230 -0.4800  0.0456 -0.3779
 2094TIP3    H130477   1.722   1.802   9.314 -1.3645 -1.1834  0.4489
 2094TIP3    H230478   1.739   1.822   9.165 -2.1491  2.6885  0.7845
 2095TIP3   OH230479   3.679   6.602   6.816 -0.1109 -0.0192 -0.1668
 2095TIP3    H130480   3.675   6.627   6.724  0.1077 -0.1777 -0.2224
 2095TIP3    H230481   3.746   6.533   6.819 -1.0671 -0.9678 -0.1001
 2096TIP3   OH230482   6.623   2.842   9.581 -0.0067  0.4935 -0.9249
 2096TIP3    H130483   6.597   2.766   9.529 -0.5866 -0.0881  0.1787
 2096TIP3    H230484   6.696   2.881   9.532  1.1688 -1.5069 -0.8676
 2097TIP3   OH230485   3.045   1.913   8.344 -0.1000  0.1166  0.4765
 2097TIP3    H130486   3.033   1.856   8.268  1.1783  0.0060  0.3322
 2097TIP3    H230487   2.959   1.916   8.385 -0.8615  0.3092 -1.0524
 2098TIP3   OH230488   7.104   4.527   6.817 -0.3539 -0.2466  0.2955
 2098TIP3    H130489   7.180   4.575   6.784 -1.1996  1.8411  1.2542
 2098TIP3    H230490   7.058   4.498   6.738  1.6771 -2.1184 -0.3251
 2099TIP3   OH230491   2.513   1.319   7.671  0.7904 -0.5766  0.0675
 2099TIP3    H130492   2.443   1.332   7.607  1.1298 -0.0424 -0.2022
 2099TIP3    H230493   2.564   1.400   7.668  0.8051 -0.5363  1.0194
 2100TIP3   OH230494   0.450   4.642   7.886 -0.2313  0.0492 -0.2833
 2100TIP3    H130495   0.528   4.660   7.938 -0.5195 -0.6056  0.3919
 2100TIP3    H230496   0.427   4.726   7.847  0.7164  0.2834 -0.3621
 2101TIP3   OH230497   2.029   4.796   7.399  0.3307 -0.2332 -0.1135
 2101TIP3    H130498   2.084   4.735   7.349  0.1532  0.9910 -1.9225
 2101TIP3    H230499   1.941   4.785   7.362  0.1045  0.4271  0.2114
 2102TIP3   OH230500   3.697   5.297   9.005  0.3752  0.2385  0.1411
 2102TIP3    H130501   3.682   5.362   9.074 -1.7326 -0.3654  0.3252
 2102TIP3    H230502   3.667   5.214   9.044 -1.0901 -0.0737 -1.5400
 2103TIP3   OH230503   5.502   5.198   8.012 -0.1210 -0.1363 -0.3710
 2103TIP3    H130504   5.454   5.270   7.972  0.9892  0.9978  0.2702
 2103TIP3    H230505   5.456   5.119   7.984 -0.1852  0.6768 -2.7494
 2104TIP3   OH230506   6.244   6.784   6.758 -0.6258 -0.6251 -0.6002
 2104TIP3    H130507   6.294   6.705   6.774  0.8202  0.3381 -0.1240
 2104TIP3    H230508   6.267   6.810   6.669 -0.4246 -0.3078 -0.4614
 2105TIP3   OH230509   0.914   4.006   8.546 -0.2172 -0.1575  0.4263
 2105TIP3    H130510   0.872   3.920   8.539 -0.2835 -0.1252  0.4246
 2105TIP3    H230511   0.876   4.046   8.624  1.2920 -0.9494  1.6369
 2106TIP3   OH230512   3.504   1.806   7.221  0.4399 -0.3170 -0.4376
 2106TIP3    H130513   3.503   1.837   7.131 -0.9359  0.3587 -0.2111
 2106TIP3    H230514   3.523   1.884   7.273 -1.4264 -0.1364  0.0277
 2107TIP3   OH230515   2.801   5.890   9.345  0.0307 -0.6255 -0.0204
 2107TIP3    H130516   2.884   5.938   9.342 -0.3299  0.0613  0.7023
 2107TIP3    H230517   2.734   5.957   9.330 -0.4554 -0.9563  0.6105
 2108TIP3   OH230518   0.218   0.828   9.245 -0.3102 -0.3463 -0.4359
 2108TIP3    H130519   0.179   0.741   9.242  1.0706 -1.1176  1.7150
 2108TIP3    H230520   0.291   0.824   9.184 -1.5940  0.1165 -2.0995
 2109TIP3   OH230521   4.077   3.140   8.810  0.4666  0.2466  0.1977
 2109TIP3    H130522   4.093   3.230   8.839 -2.0103  1.0539 -0.7187
 2109TIP3    H230523   4.003   3.110   8.861 -0.9594  0.0271 -1.8678
 2110TIP3   OH230524   1.379   3.967   8.852  0.0732  0.4223 -0.1193
 2110TIP3    H130525   1.459   3.987   8.804  1.2194  0.7105  1.7897
 2110TIP3    H230526   1.387   3.874   8.874 -0.4376  0.2887 -0.4892
 2111TIP3   OH230527   2.165   0.493   7.231 -0.1021  0.1460 -1.1026
 2111TIP3    H130528   2.210   0.441   7.164  0.1041 -0.4968 -0.4799
 2111TIP3    H230529   2.177   0.584   7.203  0.6956 -0.0720 -1.5053
 2112TIP3   OH230530   0.755   1.020   8.308 -0.1879 -0.0162 -0.7988
 2112TIP3    H130531   0.799   1.065   8.236 -0.3834 -0.6901 -1.3562
 2112TIP3    H230532   0.815   1.028   8.382  0.1752  0.3838 -1.1254
 2113TIP3   OH230533   2.062   3.630   9.087 -0.5613 -0.1310 -0.7989
 2113TIP3    H130534   2.021   3.700   9.036 -2.3066 -0.2328  0.3653
 2113TIP3    H230535   2.030   3.549   9.046  2.0080 -0.3479 -2.5866
 2114TIP3   OH230536   2.315   2.145   9.352  0.1232  0.5145 -0.0614
 2114TIP3    H130537   2.259   2.164   9.276 -2.3547 -1.2785  1.2051
 2114TIP3    H230538   2.363   2.066   9.328 -1.7443 -0.9094  0.6879
 2115TIP3   OH230539   0.417   1.184   8.227 -0.1220 -0.0234 -0.3021
 2115TIP3    H130540   0.346   1.239   8.195 -0.2779 -0.5602 -0.8954
 2115TIP3    H230541   0.472   1.169   8.150  0.4940  0.1662  0.0898
 2116TIP3   OH230542   3.125   3.180   8.218 -0.6042 -0.2942  0.4535
 2116TIP3    H130543   3.031   3.175   8.201 -0.2793  0.5189 -1.9230
 2116TIP3    H230544   3.158   3.241   8.152  1.5377 -0.1833  1.5512
 2117TIP3   OH230545   7.625   1.460   9.263  0.1607 -0.1777  0.3159
 2117TIP3    H130546   7.653   1.551   9.254  0.2980 -0.3869 -1.9107
 2117TIP3    H230547   7.707   1.409   9.261 -0.0452 -0.4980 -1.4541
 2118TIP3   OH230548   6.979   3.888   9.313  0.1402  0.1894  0.2463
 2118TIP3    H130549   7.020   3.937   9.241  0.0683  0.8439  0.6378
 2118TIP3    H230550   6.932   3.817   9.270 -0.9387  1.2933 -0.4817
 2119TIP3   OH230551   2.452   3.933   9.090 -0.4817 -0.1553 -0.7996
 2119TIP3    H130552   2.377   3.957   9.145  0.0683  0.2597 -0.2167
 2119TIP3    H230553   2.474   4.013   9.044 -0.5999 -0.3648 -1.2200
 2120TIP3   OH230554   1.060   3.781   8.730  0.1799 -0.4967  0.0272
 2120TIP3    H130555   0.975   3.804   8.693  0.3705 -2.2886 -1.7018
 2120TIP3    H230556   1.124   3.814   8.667  0.5516 -2.5531 -0.7788
 2121TIP3   OH230557   2.553   0.914   6.853  0.6776 -0.1659  0.3437
 2121TIP3    H130558   2.575   0.894   6.762 -3.2994  0.5937 -1.0005
 2121TIP3    H230559   2.519   0.831   6.888 -1.6588  0.4131 -0.3398
 2122TIP3   OH230560   1.034   3.702   9.233  0.2266 -0.0102  0.7350
 2122TIP3    H130561   1.122   3.739   9.241 -0.8057  2.3668  2.6302
 2122TIP3    H230562   0.991   3.758   9.168  0.2081 -1.4918 -0.5863
 2123TIP3   OH230563   3.605   6.418   7.052 -0.1052 -0.2502 -0.8018
 2123TIP3    H130564   3.558   6.340   7.023 -0.4367 -0.0924 -0.6930
 2123TIP3    H230565   3.536   6.479   7.078  0.1716 -0.2200 -0.1176
 2124TIP3   OH230566   6.499   0.984   8.772  0.7396 -0.1226 -0.1786
 2124TIP3    H130567   6.446   0.988   8.693 -0.7094  0.4708  0.7790
 2124TIP3    H230568   6.538   0.896   8.770  0.1186 -0.3901 -1.1642
 2125TIP3   OH230569   7.052   3.215   8.565  0.8825  0.2312 -0.3821
 2125TIP3    H130570   7.097   3.285   8.614  0.8864 -0.2670  0.3356
 2125TIP3    H230571   7.027   3.151   8.632 -2.1373  1.1057 -0.5435
 2126TIP3   OH230572   2.157   7.170   9.028 -0.4586 -0.4872 -0.5065
 2126TIP3    H130573   2.065   7.159   9.053 -0.4970 -0.2107 -0.5246
 2126TIP3    H230574   2.154   7.233   8.956 -0.1962  0.0275 -0.0712
 2127TIP3   OH230575   1.530   4.869   8.512  0.1500 -0.3030 -0.2117
 2127TIP3    H130576   1.437   4.876   8.534  0.0017  0.3934 -0.9982
 2127TIP3    H230577   1.531   4.831   8.424  0.5758  0.3283 -0.4858
 2128TIP3   OH230578   4.312   7.180   8.923 -0.7767  0.5984 -0.2352
 2128TIP3    H130579   4.251   7.116   8.887  0.9608 -0.8180 -0.8222
 2128TIP3    H230580   4.338   7.143   9.007 -1.5000  1.7225  0.5032
 2129TIP3   OH230581   4.712   3.765   6.530 -0.5651  0.1069 -0.2235
 2129TIP3    H130582   4.733   3.672   6.522  0.0478  0.1800  0.4755
 2129TIP3    H230583   4.752   3.805   6.452 -0.4664 -0.1583 -0.3100
 2130TIP3   OH230584   2.039   0.635   7.781 -0.7880 -0.3329 -0.3272
 2130TIP3    H130585   2.132   0.610   7.788 -0.7758 -0.2037 -0.0231
 2130TIP3    H230586   2.021   0.683   7.861 -1.4060 -1.2789  0.1127
 2131TIP3   OH230587   5.037   0.349   8.537  0.7956 -0.4786 -0.4675
 2131TIP3    H130588   4.948   0.371   8.562 -0.4394 -1.0413 -3.8699
 2131TIP3    H230589   5.070   0.295   8.609 -0.5393  1.8739  2.1224
 2132TIP3   OH230590   0.826   1.849   6.820  0.3325  0.1604 -0.5585
 2132TIP3    H130591   0.914   1.839   6.855  0.5897  0.6656 -1.0326
 2132TIP3    H230592   0.792   1.929   6.862 -0.6044 -1.0066  1.0087
 2133TIP3   OH230593   7.412   0.921   8.435  0.5868 -0.1561  0.4526
 2133TIP3    H130594   7.472   0.857   8.472  1.3473 -0.1989 -0.7849
 2133TIP3    H230595   7.433   0.922   8.341 -1.8041 -0.6843 -0.1649
 2134TIP3   OH230596   1.606   6.307   8.354 -0.2357 -0.0092 -0.2337
 2134TIP3    H130597   1.651   6.347   8.279  1.1559 -2.1017 -0.6284
 2134TIP3    H230598   1.655   6.339   8.430 -0.5779  0.7938 -0.3422
 2135TIP3   OH230599   4.648   4.012   6.668  0.6493 -0.2837 -0.3077
 2135TIP3    H130600   4.570   4.043   6.622  1.7388  0.8243 -1.5045
 2135TIP3    H230601   4.688   3.949   6.607  1.2552 -0.0200 -0.1889
 2136TIP3   OH230602   5.185   7.334   8.651 -0.2161  0.3742 -0.2872
 2136TIP3    H130603   5.146   7.270   8.712 -0.0023  0.5513  0.0360
 2136TIP3    H230604   5.143   7.315   8.567  0.3962 -0.6880 -0.3632
 2137TIP3   OH230605   3.827   3.996   8.479 -0.4064  0.1168  0.1642
 2137TIP3    H130606   3.796   3.934   8.413  1.5240  1.5514 -2.2412
 2137TIP3    H230607   3.786   4.079   8.455 -1.2140  0.3003  2.0158
 2138TIP3   OH230608   3.456   2.868   7.439 -0.5055  0.2547 -0.5022
 2138TIP3    H130609   3.400   2.842   7.366 -1.2403  0.0692  0.1189
 2138TIP3    H230610   3.488   2.786   7.475 -0.5722  0.3274 -0.2799
 2139TIP3   OH230611   1.591   2.856   8.763  0.2385 -0.4792  0.1888
 2139TIP3    H130612   1.633   2.818   8.840  2.9274  1.2604 -0.2581
 2139TIP3    H230613   1.551   2.937   8.795  1.8492  0.5402 -0.2466
 2140TIP3   OH230614   0.842   3.426   7.451 -0.6067  0.3698 -0.3469
 2140TIP3    H130615   0.932   3.417   7.419 -0.9778  2.1379 -2.1339
 2140TIP3    H230616   0.802   3.340   7.437  1.2376 -1.0524  2.2829
 2141TIP3   OH230617   1.276   7.236   7.282  0.4187 -0.0805 -0.2510
 2141TIP3    H130618   1.326   7.166   7.240  0.3699  0.0820 -0.5794
 2141TIP3    H230619   1.342   7.286   7.330  0.4203 -0.4887  0.1776
 2142TIP3   OH230620   0.535   1.121   7.175  0.4832  0.2336  0.2889
 2142TIP3    H130621   0.494   1.048   7.129  1.1345 -0.7389  1.1936
 2142TIP3    H230622   0.509   1.109   7.267  0.6113  1.1396  0.4557
 2143TIP3   OH230623   4.852   4.334   9.085 -0.6566  0.1939 -0.2327
 2143TIP3    H130624   4.816   4.390   9.016  0.7396  0.6733 -0.6113
 2143TIP3    H230625   4.925   4.384   9.120  0.9744 -1.5873 -0.9431
 2144TIP3   OH230626   1.124   5.383   7.228  0.1152 -0.0399 -0.2218
 2144TIP3    H130627   1.114   5.472   7.195  1.9551 -0.2024 -1.3449
 2144TIP3    H230628   1.205   5.385   7.279 -0.2330 -0.9071  0.4018
 2145TIP3   OH230629   6.838   4.260   8.652 -0.4557  0.0281 -0.2543
 2145TIP3    H130630   6.931   4.263   8.627  0.0364  0.6593  1.5021
 2145TIP3    H230631   6.810   4.171   8.629  1.2181 -0.9355  1.1701
 2146TIP3   OH230632   4.707   5.994   7.066  0.5018 -0.1285 -0.6603
 2146TIP3    H130633   4.718   5.919   7.007 -0.8723 -0.3684 -0.6452
 2146TIP3    H230634   4.778   5.985   7.129  0.8678 -0.9386 -1.1675
 2147TIP3   OH230635   2.182   1.493   7.788  0.7553  0.4213 -0.6043
 2147TIP3    H130636   2.256   1.546   7.758  0.1305  1.0392 -1.0915
 2147TIP3    H230637   2.139   1.464   7.708 -0.1144  0.9089 -0.3270
 2148TIP3   OH230638   0.944   4.970   8.081 -0.4273  0.3100  0.0324
 2148TIP3    H130639   0.854   4.990   8.058 -0.8752  0.3421  1.6465
 2148TIP3    H230640   0.937   4.896   8.141  0.5696  0.6611  0.6046
 2149TIP3   OH230641   4.936   6.118   9.444  0.4849  0.1768 -0.4208
 2149TIP3    H130642   4.955   6.201   9.487  2.0823  0.2554 -1.1902
 2149TIP3    H230643   5.021   6.088   9.411 -0.3643 -0.8155 -1.8219
 2150TIP3   OH230644   3.573   5.329   8.746 -0.2548 -0.1551 -0.2196
 2150TIP3    H130645   3.621   5.329   8.828 -0.0735 -2.1449 -0.2872
 2150TIP3    H230646   3.554   5.422   8.729 -0.3837  0.2804  2.0852
 2151TIP3   OH230647   5.008   2.820   7.466 -0.6104  0.4624 -0.3136
 2151TIP3    H130648   4.957   2.834   7.386 -0.6371  0.7985 -0.2393
 2151TIP3    H230649   5.099   2.813   7.435 -0.5021  1.5341 -0.2959
 2152TIP3   OH230650   5.596   1.457   8.622 -0.1896 -0.1444  0.1669
 2152TIP3    H130651   5.605   1.467   8.527 -0.8374 -0.6283  0.0462
 2152TIP3    H230652   5.555   1.371   8.633  1.1173 -0.6899  0.9444
 2153TIP3   OH230653   0.777   0.455   8.682  0.1385 -0.3349  0.1809
 2153TIP3    H130654   0.746   0.502   8.759  1.8957 -1.5697  1.7213
 2153TIP3    H230655   0.704   0.459   8.621 -0.5043  2.6414  0.9626
 2154TIP3   OH230656   6.182   0.627   6.847  0.2233 -0.0720 -0.5426
 2154TIP3    H130657   6.170   0.579   6.764 -0.6555 -0.3392 -0.2677
 2154TIP3    H230658   6.186   0.719   6.821  3.1245 -0.2889 -1.2127
 2155TIP3   OH230659   1.465   5.131   9.300  0.1681 -0.4034  0.0166
 2155TIP3    H130660   1.390   5.180   9.334 -0.5015 -1.6409  0.4213
 2155TIP3    H230661   1.527   5.198   9.270 -2.1794  0.6896 -2.8529
 2156TIP3   OH230662   7.267   0.347   6.947 -0.5154 -0.0689 -0.1452
 2156TIP3    H130663   7.312   0.418   6.901  0.7989  0.7497  2.1977
 2156TIP3    H230664   7.286   0.269   6.895  2.5455  0.4792 -0.0701
 2157TIP3   OH230665   7.383   3.591   8.870  0.0636 -0.1668 -0.2910
 2157TIP3    H130666   7.304   3.584   8.817 -0.0418  0.1717 -0.1824
 2157TIP3    H230667   7.378   3.679   8.909 -0.2291 -0.6564  0.8377
 2158TIP3   OH230668   1.894   4.534   7.039 -0.0412 -0.3401 -0.3949
 2158TIP3    H130669   1.961   4.579   6.988  0.3022  0.0249  0.3728
 2158TIP3    H230670   1.927   4.535   7.129 -1.6781  1.0444  0.2345
 2159TIP3   OH230671   5.357   4.707   8.048 -0.8516  0.4647 -0.3777
 2159TIP3    H130672   5.323   4.682   8.134 -1.3597 -0.9594 -0.9762
 2159TIP3    H230673   5.421   4.640   8.026 -1.0128  0.5968 -1.2930
 2160TIP3   OH230674   5.464   2.455   8.162  0.0623  0.3544  0.5704
 2160TIP3    H130675   5.441   2.422   8.075 -1.1228 -0.6962  1.2515
 2160TIP3    H230676   5.395   2.422   8.220 -0.8285  3.4452  1.4660
 2161TIP3   OH230677   6.977   6.436   7.397 -0.3732 -0.3546  0.0096
 2161TIP3    H130678   7.038   6.420   7.325 -1.9851 -0.6998 -1.3359
 2161TIP3    H230679   6.976   6.353   7.445 -0.9810 -0.9151 -0.9283
 2162TIP3   OH230680   4.367   4.132   8.740  0.6909 -0.6919  0.2601
 2162TIP3    H130681   4.457   4.164   8.737  0.4055  0.0887 -1.3898
 2162TIP3    H230682   4.315   4.207   8.767  0.3372 -0.5433 -0.7747
 2163TIP3   OH230683   0.729   7.236   8.243  0.1191  0.1113  0.2316
 2163TIP3    H130684   0.762   7.289   8.315 -2.6094  1.2510  0.7366
 2163TIP3    H230685   0.718   7.298   8.170  1.2536 -0.7020 -0.6669
 2164TIP3   OH230686   7.283   1.521   8.550 -0.0026 -0.0674 -0.0430
 2164TIP3    H130687   7.252   1.515   8.640  1.4368 -0.6380  0.4401
 2164TIP3    H230688   7.339   1.599   8.548  0.3569 -0.3285 -0.3220
 2165TIP3   OH230689   0.015   5.174   8.631  0.0151  0.2128 -0.0758
 2165TIP3    H130690   0.036   5.245   8.692 -1.0851  1.5860 -1.2543
 2165TIP3    H230691  -0.066   5.136   8.665 -1.0003  1.4538 -1.0415
 2166TIP3   OH230692   7.412   3.942   6.747 -0.5792  0.0709 -0.0143
 2166TIP3    H130693   7.373   4.006   6.688 -1.5405 -0.8301 -0.3879
 2166TIP3    H230694   7.402   3.858   6.703  1.6886 -0.2496 -0.0513
 2167TIP3   OH230695   3.910   1.657   7.936 -0.0471 -0.7658 -0.4745
 2167TIP3    H130696   3.958   1.592   7.987 -1.8972 -0.2727  2.1077
 2167TIP3    H230697   3.975   1.723   7.914  0.9080 -1.1299  1.0949
 2168TIP3   OH230698   4.090   3.737   8.370 -0.0706  0.3173  0.3166
 2168TIP3    H130699   4.105   3.685   8.449 -0.6632 -0.2698  0.0466
 2168TIP3    H230700   4.126   3.823   8.391  0.1134  0.0575  1.0911
 2169TIP3   OH230701   2.615   5.179   9.360 -0.0083  0.3631  0.1932
 2169TIP3    H130702   2.578   5.126   9.431  0.7931  1.7994  1.7398
 2169TIP3    H230703   2.556   5.254   9.353 -1.8931 -1.1743 -2.8597
 2170TIP3   OH230704   2.655   3.779   7.162 -0.1617  0.2473 -0.0879
 2170TIP3    H130705   2.636   3.871   7.146 -3.3700 -0.6984 -2.8480
 2170TIP3    H230706   2.735   3.761   7.112 -0.4769  1.1645 -0.9404
 2171TIP3   OH230707   1.292   5.118   6.688 -0.3024 -0.0568  0.3666
 2171TIP3    H130708   1.307   5.025   6.705 -0.1676  0.0317  0.7456
 2171TIP3    H230709   1.258   5.122   6.599  0.2221 -0.4196  0.1516
 2172TIP3   OH230710   4.143   4.589   8.485 -0.2646  0.2895 -0.1849
 2172TIP3    H130711   4.231   4.602   8.449  1.0926 -1.0975  2.3549
 2172TIP3    H230712   4.138   4.650   8.558  0.1479 -2.2090  2.0568
 2173TIP3   OH230713   3.050   6.973   7.952  0.0232  0.2096  0.1291
 2173TIP3    H130714   3.116   7.004   7.889 -0.0339 -0.5746 -0.3248
 2173TIP3    H230715   3.092   6.985   8.038  0.3297  0.7314 -0.0842
 2174TIP3   OH230716   1.336   3.635   7.039  0.2208 -0.2960 -0.3300
 2174TIP3    H130717   1.243   3.651   7.027  0.2795 -0.6365 -1.3645
 2174TIP3    H230718   1.373   3.722   7.056 -0.3021 -0.1886  0.3168
 2175TIP3   OH230719   1.097   2.147   7.058  0.0265 -0.5154  0.1712
 2175TIP3    H130720   1.008   2.139   7.024 -0.5516  3.1333  0.4840
 2175TIP3    H230721   1.087   2.142   7.153  0.7623 -3.7485  0.2011
 2176TIP3   OH230722   3.798   3.669   9.076 -0.2821 -0.1842 -0.1702
 2176TIP3    H130723   3.807   3.600   9.011 -2.2426  0.3277 -1.0629
 2176TIP3    H230724   3.704   3.690   9.076 -0.1250  0.7527  1.8686
 2177TIP3   OH230725   6.943   6.200   9.125 -0.2155  0.5832  0.5434
 2177TIP3    H130726   7.017   6.192   9.064 -0.7452  0.9689 -0.1599
 2177TIP3    H230727   6.984   6.195   9.212  0.6263  0.6879  0.1684
 2178TIP3   OH230728   4.125   4.173   8.430  0.5129 -0.0195  0.0456
 2178TIP3    H130729   4.038   4.214   8.432  0.7605  0.4936  1.2205
 2178TIP3    H230730   4.161   4.197   8.344 -0.0239  0.7983  0.0386
 2179TIP3   OH230731   0.505   7.360   7.949  0.0574  0.0542  0.3845
 2179TIP3    H130732   0.458   7.423   7.894  0.2497 -1.1901 -1.2633
 2179TIP3    H230733   0.530   7.290   7.889  1.6988 -0.5906  1.7597
 2180TIP3   OH230734   2.526   5.307   8.428 -0.2092 -0.3096 -0.3021
 2180TIP3    H130735   2.588   5.252   8.381  0.2270  0.2052 -0.3428
 2180TIP3    H230736   2.505   5.378   8.367  0.9019  0.7545  0.4953
 2181TIP3   OH230737   4.229   1.746   8.520  0.1799  0.4764 -0.4942
 2181TIP3    H130738   4.135   1.764   8.524 -0.0575 -0.9101  0.7065
 2181TIP3    H230739   4.252   1.761   8.428 -0.8422  2.4708 -0.4779
 2182TIP3   OH230740   3.841   0.780   9.262 -0.8280 -0.0237  0.1902
 2182TIP3    H130741   3.756   0.777   9.305 -0.9105  1.3008  0.1411
 2182TIP3    H230742   3.878   0.693   9.277 -2.7518 -1.1040 -0.9489
 2183TIP3   OH230743   6.629   4.347   9.624 -0.0046  0.1231 -0.4603
 2183TIP3    H130744   6.561   4.300   9.575  0.1855 -0.5473 -0.0810
 2183TIP3    H230745   6.708   4.295   9.611  0.0218 -0.1215  0.6526
 2184TIP3   OH230746   6.586   0.282   7.887  0.2895 -0.3832 -0.0737
 2184TIP3    H130747   6.508   0.336   7.892  1.0120  0.6274  0.7749
 2184TIP3    H230748   6.559   0.204   7.840 -1.1432  0.0865 -0.0554
 2185TIP3   OH230749   5.353   5.177   7.171  0.2533  0.0887  0.7297
 2185TIP3    H130750   5.348   5.273   7.170 -0.8186  0.0818  2.2527
 2185TIP3    H230751   5.430   5.158   7.225 -0.3857  0.1171  1.6829
 2186TIP3   OH230752   2.204   5.859   8.378 -0.2544  0.8110 -0.3613
 2186TIP3    H130753   2.210   5.768   8.349 -1.4485  0.0564  1.5526
 2186TIP3    H230754   2.195   5.909   8.297  0.7195 -0.7218 -1.4797
 2187TIP3   OH230755   4.865   5.696   9.442 -0.1074 -0.0868  0.4269
 2187TIP3    H130756   4.926   5.687   9.368  0.0483 -0.3980  0.5892
 2187TIP3    H230757   4.848   5.790   9.448  0.9969  0.1148  0.8778
 2188TIP3   OH230758   0.277   0.752   8.352 -0.0481 -0.3645  0.0340
 2188TIP3    H130759   0.370   0.746   8.375 -0.4646 -0.1590  1.9348
 2188TIP3    H230760   0.259   0.845   8.347 -0.2572 -0.3975  0.1611
 2189TIP3   OH230761   1.684   5.266   7.412  0.4518  0.0781  0.0217
 2189TIP3    H130762   1.668   5.338   7.351  0.6506  0.1779  0.0854
 2189TIP3    H230763   1.756   5.297   7.466  1.5852 -0.7887 -0.9514
 2190TIP3   OH230764   6.122   3.681   8.115 -0.0558 -0.0559 -0.3118
 2190TIP3    H130765   6.136   3.746   8.183  0.1866  0.4136 -0.8097
 2190TIP3    H230766   6.041   3.636   8.141 -0.0330  0.2050  0.2116
 2191TIP3   OH230767   6.158   6.281   9.070  0.3967  0.1966 -0.1169
 2191TIP3    H130768   6.247   6.295   9.038 -0.0023  0.9805 -0.9301
 2191TIP3    H230769   6.169   6.222   9.145  1.4878 -0.5916 -0.8517
 2192TIP3   OH230770   6.651   4.877   6.856  0.0765  0.1066  0.2497
 2192TIP3    H130771   6.709   4.923   6.796 -0.0745 -0.3297 -0.2328
 2192TIP3    H230772   6.667   4.918   6.941 -0.8447  1.8265 -0.3507
 2193TIP3   OH230773   2.246   3.547   8.017 -0.2395 -0.0279 -0.1959
 2193TIP3    H130774   2.319   3.560   8.077  0.6929 -0.7326 -1.1404
 2193TIP3    H230775   2.172   3.588   8.060  0.6275  0.3634  0.9672
 2194TIP3   OH230776   0.528   2.027   8.562 -0.2051  0.7371  0.2228
 2194TIP3    H130777   0.526   2.085   8.486  0.2596 -0.0102 -0.3635
 2194TIP3    H230778   0.546   1.940   8.526 -2.0900 -0.0034  0.9480
 2195TIP3   OH230779   0.818   1.992   8.589 -0.0628  0.0056 -0.3357
 2195TIP3    H130780   0.778   2.068   8.547  2.0893  1.3520 -0.1178
 2195TIP3    H230781   0.887   2.028   8.644 -1.0727 -1.8851  2.4152
 2196TIP3   OH230782   2.323   3.362   7.619 -0.4882  0.4385  0.4159
 2196TIP3    H130783   2.335   3.457   7.625 -0.1573  0.5293 -1.2115
 2196TIP3    H230784   2.373   3.336   7.542 -1.6851 -0.8589  0.0268
 2197TIP3   OH230785   7.292   7.295   8.246 -0.5892 -0.8850  0.0004
 2197TIP3    H130786   7.343   7.226   8.288 -1.3007 -1.3504  0.1056
 2197TIP3    H230787   7.223   7.249   8.198 -2.7659 -0.1817  2.2519
 2198TIP3   OH230788   1.487   1.308   7.358  1.0164 -0.3133  0.3197
 2198TIP3    H130789   1.567   1.360   7.352  1.0475 -0.4978 -3.6897
 2198TIP3    H230790   1.517   1.217   7.349  0.4798 -0.5640  0.9545
 2199TIP3   OH230791   0.506   4.619   7.172 -0.2414  0.7380  0.0656
 2199TIP3    H130792   0.430   4.597   7.227  0.1455 -0.0244  0.3064
 2199TIP3    H230793   0.473   4.613   7.082 -0.6366  1.0688  0.1847
 2200TIP3   OH230794   5.021   1.052   7.047 -0.3471  0.1945  0.4567
 2200TIP3    H130795   5.013   1.067   6.953 -0.3758 -2.2941 -0.0132
 2200TIP3    H230796   5.112   1.072   7.067 -0.4829  1.2861  0.0347
 2201TIP3   OH230797   1.732   0.281   8.221 -0.7704  0.2444  0.3175
 2201TIP3    H130798   1.707   0.203   8.172 -0.7095  0.4803 -0.0968
 2201TIP3    H230799   1.674   0.350   8.188  0.8014  0.9613 -1.1420
 2202TIP3   OH230800   5.796   0.492   9.286 -0.2698 -0.1320  0.4678
 2202TIP3    H130801   5.775   0.584   9.268  0.6912  0.0550  0.2486
 2202TIP3    H230802   5.742   0.470   9.362 -0.5569  0.5998  0.4858
 2203TIP3   OH230803   3.129   6.313   7.988 -0.3510 -0.1852  0.2023
 2203TIP3    H130804   3.164   6.232   8.024 -1.3927 -0.8500 -0.2442
 2203TIP3    H230805   3.155   6.311   7.895  1.8666  1.2648  0.7056
 2204TIP3   OH230806   3.428   5.820   8.766  0.2902  0.3219  0.6098
 2204TIP3    H130807   3.415   5.861   8.852 -0.6760 -0.6380  0.9334
 2204TIP3    H230808   3.389   5.733   8.774  0.2691  0.1794 -0.7716
 2205TIP3   OH230809   3.768   7.126   7.724 -0.1446 -0.1323  0.3733
 2205TIP3    H130810   3.769   7.106   7.631  2.5075  0.2070  0.2554
 2205TIP3    H230811   3.766   7.041   7.767  2.2196 -0.4815 -0.0725
 2206TIP3   OH230812   2.511   7.598   7.509 -0.5080 -0.5286 -0.1560
 2206TIP3    H130813   2.539   7.661   7.575  1.3211 -0.7033 -0.7012
 2206TIP3    H230814   2.461   7.533   7.557 -3.0799  1.6164  0.3202
 2207TIP3   OH230815   4.888   6.464   8.096  0.5444 -0.2331  0.2712
 2207TIP3    H130816   4.938   6.405   8.153  2.0554  0.7005 -0.0162
 2207TIP3    H230817   4.905   6.432   8.007  1.1907  0.4695  0.1287
 2208TIP3   OH230818   3.038   6.387   9.280  0.4627 -0.0210 -0.3849
 2208TIP3    H130819   3.026   6.351   9.368  1.7106 -1.6004 -0.8007
 2208TIP3    H230820   2.952   6.381   9.239  0.0286  0.0733  0.5031
 2209TIP3   OH230821   4.501   7.650   6.637 -0.6167  0.0273 -0.4516
 2209TIP3    H130822   4.596   7.662   6.629 -0.6786  1.4737  0.4901
 2209TIP3    H230823   4.466   7.739   6.642 -1.6162 -0.3869  2.9779
 2210TIP3   OH230824   6.947   1.895   7.519  0.6915 -0.3089 -0.6738
 2210TIP3    H130825   6.945   1.906   7.614 -0.1321  0.7117 -0.7964
 2210TIP3    H230826   6.881   1.828   7.501  2.0322 -1.7593 -0.3997
 2211TIP3   OH230827   7.228   6.057   8.106 -0.6992 -0.1352  0.1801
 2211TIP3    H130828   7.280   6.051   8.186  1.2600 -1.2994 -1.0943
 2211TIP3    H230829   7.145   6.094   8.134 -0.2487 -0.9166  2.8238
 2212TIP3   OH230830   1.484   0.110   7.637 -0.6314  0.2802 -0.5314
 2212TIP3    H130831   1.549   0.180   7.646 -0.6693  0.2022  0.4941
 2212TIP3    H230832   1.535   0.032   7.617 -0.3291  0.1052  0.8249
 2213TIP3   OH230833   6.035   3.430   7.671  0.1944  0.4815  0.0402
 2213TIP3    H130834   6.071   3.348   7.637  2.3113  1.1573  0.4555
 2213TIP3    H230835   6.068   3.435   7.761 -0.3762  1.5100  0.2112
 2214TIP3   OH230836   7.173   3.835   8.055  0.0644  0.9205 -0.8967
 2214TIP3    H130837   7.153   3.749   8.091  0.1276  0.8985 -0.9139
 2214TIP3    H230838   7.112   3.845   7.982  2.0106 -0.3624 -2.7997
 2215TIP3   OH230839   5.415   0.350   9.323  0.0869  0.3525 -0.2029
 2215TIP3    H130840   5.459   0.266   9.333 -0.6337  0.0931  1.0185
 2215TIP3    H230841   5.328   0.328   9.289 -0.1658  0.5811  0.2868
 2216TIP3   OH230842   6.162   1.881   7.831  0.2635  0.1819 -1.0202
 2216TIP3    H130843   6.099   1.943   7.792 -0.3492  0.6150  0.5592
 2216TIP3    H230844   6.108   1.822   7.883  0.9137 -1.3335 -2.0014
 2217TIP3   OH230845   1.430   0.089   8.607 -0.0864  0.0514 -0.3659
 2217TIP3    H130846   1.504   0.111   8.550  0.2052 -0.7620 -0.3072
 2217TIP3    H230847   1.449   0.134   8.689  0.3145 -0.1046 -0.3714
 2218TIP3   OH230848   6.961   1.275   8.863  0.0871 -0.2541  0.3285
 2218TIP3    H130849   7.026   1.209   8.839 -0.1473  0.1822 -1.6767
 2218TIP3    H230850   6.971   1.344   8.797 -1.0141  0.7854  1.2032
 2219TIP3   OH230851   3.771   4.031   8.160 -0.1315  0.3121  0.1538
 2219TIP3    H130852   3.833   4.098   8.188 -0.1245  1.4446 -2.2915
 2219TIP3    H230853   3.825   3.961   8.124 -0.1997  0.5904 -0.5123
 2220TIP3   OH230854   3.404   4.630   7.778  0.0693  0.4991  0.5842
 2220TIP3    H130855   3.442   4.708   7.820  0.1629  1.4518 -1.1594
 2220TIP3    H230856   3.441   4.556   7.827  1.8918  1.4814  0.8021
 2221TIP3   OH230857   3.174   0.171   6.845 -0.3226  0.8302  0.1136
 2221TIP3    H130858   3.207   0.233   6.911  1.7655  1.3524 -1.3330
 2221TIP3    H230859   3.228   0.093   6.855 -0.3553  0.7075 -0.6102
 2222TIP3   OH230860   7.297   0.007   7.897 -0.1328  0.1376 -0.4708
 2222TIP3    H130861   7.206  -0.021   7.908 -0.6089  2.0708  1.1460
 2222TIP3    H230862   7.294   0.075   7.830  0.3970 -0.9108 -1.5816
 2223TIP3   OH230863   2.627   5.452   9.226 -0.2016  0.0574 -0.2739
 2223TIP3    H130864   2.539   5.418   9.240 -0.3084  0.7652  0.8883
 2223TIP3    H230865   2.613   5.534   9.179 -0.4519  1.7578  2.5340
 2224TIP3   OH230866   1.106   4.249   8.801  0.2868  0.3620 -0.0434
 2224TIP3    H130867   1.033   4.258   8.741  1.6123  1.5158 -1.5838
 2224TIP3    H230868   1.081   4.299   8.878 -0.5829  0.6337 -0.4960
 2225TIP3   OH230869   3.639   6.389   9.011  0.1573  0.3360  0.2833
 2225TIP3    H130870   3.688   6.452   9.064 -0.6432  1.5807 -0.4071
 2225TIP3    H230871   3.618   6.437   8.931 -0.4722 -0.8271 -0.2634
 2226TIP3   OH230872   6.627   4.936   8.840  0.1053 -0.1954  0.3996
 2226TIP3    H130873   6.615   5.030   8.827  1.2707 -0.0672  0.1317
 2226TIP3    H230874   6.574   4.895   8.771  0.9520  0.3220 -0.5847
 2227TIP3   OH230875   5.480   3.178   7.156 -0.1219 -0.6841 -0.0677
 2227TIP3    H130876   5.430   3.185   7.075 -1.1767 -0.8397  0.5427
 2227TIP3    H230877   5.561   3.226   7.139 -0.4942 -0.3775 -1.0695
 2228TIP3   OH230878   1.103   6.745   7.488 -0.3385  0.1789 -0.0874
 2228TIP3    H130879   1.099   6.801   7.411  1.6626  0.4892 -0.0044
 2228TIP3    H230880   1.056   6.666   7.463 -0.5708  0.6747 -1.2674
 2229TIP3   OH230881   2.859   3.704   8.209 -0.4781 -0.3104 -0.2804
 2229TIP3    H130882   2.886   3.748   8.128  1.1177 -0.6443  0.0401
 2229TIP3    H230883   2.793   3.640   8.180 -3.0106  2.3147 -0.7138
 2230TIP3   OH230884   0.590   4.784   8.539  0.1875  0.3352 -0.4447
 2230TIP3    H130885   0.659   4.728   8.503 -0.7158 -0.4463 -1.0050
 2230TIP3    H230886   0.524   4.788   8.470 -0.8605  0.1254  0.5172
 2231TIP3   OH230887   2.240   5.544   8.820 -0.1763 -0.3013 -0.2755
 2231TIP3    H130888   2.306   5.613   8.824 -1.5392  1.0081  0.5920
 2231TIP3    H230889   2.225   5.530   8.727  0.9426 -0.2521 -0.4690
 2232TIP3   OH230890   6.710   0.232   9.044 -0.6577 -0.1765 -0.1403
 2232TIP3    H130891   6.742   0.254   9.132 -1.8184  0.4192  0.1589
 2232TIP3    H230892   6.775   0.269   8.985  0.5517 -1.2582  0.4562
 2233TIP3   OH230893   6.170   0.885   6.770 -0.0863 -0.2993  0.0096
 2233TIP3    H130894   6.135   0.974   6.766  0.6185 -0.0315 -0.3325
 2233TIP3    H230895   6.208   0.871   6.683  0.9264 -0.4619  0.4686
 2234TIP3   OH230896   5.823   7.117   9.240  0.0236 -0.0447 -0.3650
 2234TIP3    H130897   5.856   7.088   9.155  0.8796 -0.5661  0.1261
 2234TIP3    H230898   5.751   7.058   9.260  0.8586 -0.9742 -0.0106
 2235TIP3   OH230899   2.120   6.767   6.555  0.1205  0.4926  0.0655
 2235TIP3    H130900   2.170   6.741   6.477 -2.9214  0.5169 -2.0769
 2235TIP3    H230901   2.079   6.686   6.585 -1.1173  0.9641 -0.2755
 2236TIP3   OH230902   2.970   6.316   8.656 -0.9124  0.3870  0.4980
 2236TIP3    H130903   2.893   6.366   8.683 -2.3178 -0.3083 -1.9206
 2236TIP3    H230904   3.019   6.377   8.600 -0.6400  0.2700  0.6109
 2237TIP3   OH230905   3.896   2.434   7.902  0.3661 -0.0048  0.1454
 2237TIP3    H130906   3.844   2.361   7.935  0.4798 -0.6233 -0.9878
 2237TIP3    H230907   3.982   2.423   7.943 -0.0983  0.4856  1.2941
 2238TIP3   OH230908   5.703   6.378   8.692 -0.1591  0.4769  0.3505
 2238TIP3    H130909   5.768   6.421   8.636 -0.2723 -0.1601 -0.2913
 2238TIP3    H230910   5.754   6.343   8.765 -0.1135  1.9697  1.0646
 2239TIP3   OH230911   1.022   4.509   7.731  0.5764  0.1446 -0.2575
 2239TIP3    H130912   1.026   4.414   7.745  0.1507  0.3699  1.8078
 2239TIP3    H230913   1.112   4.535   7.712  0.6789 -0.6710 -0.9443
 2240TIP3   OH230914   5.276   1.385   7.788 -0.1840 -0.5688 -0.4776
 2240TIP3    H130915   5.287   1.344   7.874  0.8801  0.4346 -0.1130
 2240TIP3    H230916   5.183   1.404   7.782 -0.3642 -1.1897  0.1938
 2241TIP3   OH230917   0.142   3.028   8.413  0.7930 -0.3947  0.0854
 2241TIP3    H130918   0.063   3.031   8.466  0.0160  3.1512 -1.0235
 2241TIP3    H230919   0.213   3.020   8.477 -0.2895 -0.3274  1.3470
 2242TIP3   OH230920   6.429   6.775   8.086  0.6612  0.3820 -0.4549
 2242TIP3    H130921   6.358   6.838   8.076 -0.5032 -0.9478 -0.9821
 2242TIP3    H230922   6.433   6.758   8.181 -1.2786 -1.1408 -0.5620
 2243TIP3   OH230923   3.220   3.715   8.291 -0.6213  0.2820  0.2347
 2243TIP3    H130924   3.175   3.784   8.339 -0.9663  0.1808  0.0604
 2243TIP3    H230925   3.311   3.720   8.321 -0.2104  2.0330 -1.1385
 2244TIP3   OH230926   4.472   1.172   7.747  0.0375  0.1029 -0.4312
 2244TIP3    H130927   4.490   1.245   7.688 -0.4388  1.9171  1.5099
 2244TIP3    H230928   4.391   1.134   7.714  1.0813 -0.5880 -2.3599
 2245TIP3   OH230929   6.691   5.879   8.036 -0.5082 -0.5534 -0.0574
 2245TIP3    H130930   6.681   5.790   8.004 -2.9779 -0.1285 -0.7270
 2245TIP3    H230931   6.755   5.919   7.977 -0.0236 -1.6314 -0.2796
 2246TIP3   OH230932   4.734   5.430   9.771 -0.0117 -0.1640 -0.0256
 2246TIP3    H130933   4.735   5.509   9.825  2.8220 -0.4674  0.5442
 2246TIP3    H230934   4.727   5.358   9.833  0.1967 -0.4368 -0.3160
 2247TIP3   OH230935   1.194   5.484   7.659  0.0029  0.4302 -0.2723
 2247TIP3    H130936   1.107   5.485   7.698 -0.0459  0.6154 -0.3814
 2247TIP3    H230937   1.180   5.459   7.568 -0.0466  1.3332 -0.5281
 2248TIP3   OH230938   0.022   6.962   7.405 -1.1093  0.4156 -0.1386
 2248TIP3    H130939  -0.058   6.934   7.450 -0.2861  1.3928  2.0901
 2248TIP3    H230940   0.033   7.053   7.432  0.4547  0.4696 -0.8838
 2249TIP3   OH230941   4.276   1.650   7.905 -0.1169 -0.4665 -0.1218
 2249TIP3    H130942   4.239   1.577   7.955  0.5643 -1.2151 -0.6721
 2249TIP3    H230943   4.366   1.658   7.936  0.2204 -0.7465 -0.9957
 2250TIP3   OH230944   1.743   2.314   6.603 -0.1173 -0.1264  0.6830
 2250TIP3    H130945   1.722   2.364   6.524 -1.0622  1.4507  1.8792
 2250TIP3    H230946   1.667   2.324   6.660  0.2591 -1.7842  1.5681
 2251TIP3   OH230947   6.853   2.797   6.650 -0.6314 -0.3530  0.6445
 2251TIP3    H130948   6.758   2.797   6.660 -0.4829 -0.0394  2.3648
 2251TIP3    H230949   6.879   2.707   6.671 -0.5689 -0.5360 -0.1922
 2252TIP3   OH230950   0.797   3.344   9.240  0.6229  0.2257 -0.6071
 2252TIP3    H130951   0.751   3.318   9.320  1.8020 -2.5452 -0.7411
 2252TIP3    H230952   0.874   3.392   9.271  0.9078 -0.5548 -0.0827
 2253TIP3   OH230953   7.041   3.817   7.672  0.4628 -0.4186  0.4976
 2253TIP3    H130954   7.058   3.730   7.636 -1.3849 -0.2362 -0.9613
 2253TIP3    H230955   6.953   3.810   7.709  1.0167  0.3551  2.0878
 2254TIP3   OH230956   3.622   1.695   8.918 -0.3633 -0.1069 -1.1413
 2254TIP3    H130957   3.593   1.643   8.993  0.0972  0.5797 -0.4725
 2254TIP3    H230958   3.689   1.753   8.954 -0.0453  0.1416 -2.1181
 2255TIP3   OH230959   5.379   4.274   7.416  0.6954 -0.0582  0.2214
 2255TIP3    H130960   5.320   4.348   7.403  0.2929 -0.6412 -1.4672
 2255TIP3    H230961   5.464   4.314   7.434  0.2864  0.8072  0.2795
 2256TIP3   OH230962   4.132   5.958   7.762  0.5475 -0.0401  0.5240
 2256TIP3    H130963   4.225   5.982   7.770  1.1643 -1.6142 -1.2013
 2256TIP3    H230964   4.106   5.996   7.678  0.5524 -2.2403 -0.5169
 2257TIP3   OH230965   5.011   4.328   7.013  0.2812  0.7487  0.5714
 2257TIP3    H130966   5.046   4.283   7.090 -0.8597 -0.4135  0.4519
 2257TIP3    H230967   5.088   4.357   6.964  1.1285 -2.0130  0.1080
 2258TIP3   OH230968   1.003   5.882   8.887  0.1105  0.2126  0.7098
 2258TIP3    H130969   0.963   5.968   8.875  2.4385  0.9142 -3.5510
 2258TIP3    H230970   0.940   5.821   8.849 -0.8593  0.0762  2.3961
 2259TIP3   OH230971   6.985   4.436   9.404  0.4312 -0.0531 -0.4409
 2259TIP3    H130972   7.003   4.463   9.314  0.2694  0.4881 -0.3174
 2259TIP3    H230973   7.046   4.487   9.457  0.3768 -0.2073 -0.2276
 2260TIP3   OH230974   6.646   6.770   6.491 -0.3345 -0.1202  0.0338
 2260TIP3    H130975   6.555   6.753   6.469  0.3290 -1.5393 -1.9428
 2260TIP3    H230976   6.677   6.830   6.423  0.7014 -1.2805 -0.5587
 2261TIP3   OH230977   4.574   7.253   9.236  0.2512  0.0525  0.5587
 2261TIP3    H130978   4.587   7.328   9.293  1.2147 -0.3403  0.8764
 2261TIP3    H230979   4.646   7.194   9.256 -0.2804 -0.8029  0.0554
 2262TIP3   OH230980   6.063   4.679   6.353 -0.3239  0.0252  0.1989
 2262TIP3    H130981   6.045   4.739   6.280  0.7489  0.4628  0.2786
 2262TIP3    H230982   6.035   4.727   6.431  0.6515  0.4867  0.2743
 2263TIP3   OH230983   5.067   2.950   7.852 -0.1665 -0.3557  0.3299
 2263TIP3    H130984   5.124   2.903   7.791 -0.1914 -1.0485  0.8311
 2263TIP3    H230985   5.051   2.888   7.923 -0.0469  0.4767  1.1008
 2264TIP3   OH230986   4.495   4.598   8.585 -0.1807 -0.0495  0.8871
 2264TIP3    H130987   4.585   4.570   8.571 -0.1874  0.7455 -0.9864
 2264TIP3    H230988   4.485   4.601   8.680  1.9410  0.4162  1.1330
 2265TIP3   OH230989   1.203   2.390   8.342  0.5169  0.4996 -0.5337
 2265TIP3    H130990   1.240   2.478   8.351  0.2116  0.7508 -1.6245
 2265TIP3    H230991   1.229   2.361   8.255  1.7339 -1.0446  0.2934
 2266TIP3   OH230992   1.334   3.015   8.796 -0.5016 -0.7443  0.4719
 2266TIP3    H130993   1.361   3.046   8.883 -0.7269 -0.3538  0.4043
 2266TIP3    H230994   1.358   3.086   8.737 -0.6783 -0.8598  0.2623
 2267TIP3   OH230995   0.558   1.728   8.508  0.7662 -0.3218  0.1088
 2267TIP3    H130996   0.482   1.688   8.464  2.8483 -1.2442 -2.9915
 2267TIP3    H230997   0.605   1.654   8.545  1.2227 -0.0107  0.1502
 2268TIP3   OH230998   6.923   5.777   8.664 -0.2196 -0.8271 -0.1466
 2268TIP3    H130999   7.002   5.771   8.718 -0.6699  0.3343  0.6981
 2268TIP3    H231000   6.951   5.750   8.577  1.2256 -0.0430  0.0395
 2269TIP3   OH231001   0.106   3.592   7.813  0.3697 -0.0331  0.6600
 2269TIP3    H131002   0.065   3.529   7.754  2.3413 -1.2986  0.5384
 2269TIP3    H231003   0.044   3.601   7.885 -1.1066 -0.1173 -0.5556
 2270TIP3   OH231004   0.340   1.403   7.684 -0.0272 -0.3173 -0.7379
 2270TIP3    H131005   0.247   1.426   7.679 -0.6163 -2.4486 -0.7076
 2270TIP3    H231006   0.377   1.468   7.743 -1.3489  1.0022 -1.3008
 2271TIP3   OH231007   7.026   3.604   8.160 -0.3233 -0.3983 -0.3165
 2271TIP3    H131008   7.002   3.637   8.247  0.5183 -2.1912  0.6746
 2271TIP3    H231009   6.966   3.531   8.145 -1.2983  0.6837 -1.8540
 2272TIP3   OH231010   4.937   4.715   7.697 -0.2590 -0.2507 -0.2018
 2272TIP3    H131011   4.969   4.748   7.781  0.9767  0.4496 -0.9192
 2272TIP3    H231012   4.854   4.761   7.684  0.2079  0.6768  0.0023
 2273TIP3   OH231013   7.561   2.686   7.169 -0.5228 -0.0718 -0.3427
 2273TIP3    H131014   7.496   2.679   7.098 -0.7025  2.0426 -0.4476
 2273TIP3    H231015   7.630   2.625   7.145 -1.4619 -0.7607 -1.3669
 2274TIP3   OH231016   3.879   2.293   7.203 -0.0994 -0.1709 -0.3584
 2274TIP3    H131017   3.964   2.281   7.245  0.8184  0.3678 -1.9550
 2274TIP3    H231018   3.839   2.206   7.205 -0.5947  0.0158  2.5007
 2275TIP3   OH231019   0.120   1.802   7.327 -0.4466  0.6072 -0.2966
 2275TIP3    H131020   0.112   1.886   7.283 -2.0983  1.6874  1.8908
 2275TIP3    H231021   0.202   1.809   7.376  0.8736 -0.2171 -2.2580
 2276TIP3   OH231022   3.795   1.849   8.290 -0.2151 -0.7159 -0.1584
 2276TIP3    H131023   3.733   1.898   8.344  0.8180  0.6724 -0.1821
 2276TIP3    H231024   3.768   1.868   8.200 -0.3683 -0.9573 -0.1657
 2277TIP3   OH231025   1.151   4.270   6.707  0.1539 -0.6309 -0.0811
 2277TIP3    H131026   1.106   4.322   6.774  1.6170  0.9590 -0.2515
 2277TIP3    H231027   1.208   4.212   6.757 -1.1100 -1.7580  0.0991
 2278TIP3   OH231028   5.925   1.433   8.629 -0.3975 -0.1281  0.1725
 2278TIP3    H131029   5.930   1.479   8.712 -0.2628 -2.0863  1.3298
 2278TIP3    H231030   5.834   1.406   8.622 -0.1468 -1.0671  0.3515
 2279TIP3   OH231031   0.607   0.472   7.395 -0.5624 -0.0489 -0.4626
 2279TIP3    H131032   0.700   0.486   7.378 -0.5846 -1.1804 -1.6528
 2279TIP3    H231033   0.575   0.423   7.319 -2.1884  0.5144 -0.1953
 2280TIP3   OH231034   6.705   1.405   7.476  0.6352  0.1663 -0.6876
 2280TIP3    H131035   6.714   1.361   7.391 -0.1293  1.1131 -1.2839
 2280TIP3    H231036   6.697   1.498   7.454  0.5276  0.4353  0.4306
 2281TIP3   OH231037   3.809   3.254   8.142  0.3082  0.2366 -0.2958
 2281TIP3    H131038   3.888   3.295   8.105  0.7893  0.2556  0.7119
 2281TIP3    H231039   3.815   3.162   8.114  0.7328  0.2214 -0.1734
 2282TIP3   OH231040   2.160   0.167   9.236 -0.1196  0.2429  0.1780
 2282TIP3    H131041   2.154   0.072   9.250 -1.2453  0.5351  1.9490
 2282TIP3    H231042   2.254   0.186   9.242  0.0440 -0.6481  0.6669
 2283TIP3   OH231043   5.152   4.790   8.489 -0.1197  0.5500  0.0121
 2283TIP3    H131044   5.160   4.727   8.561 -1.6648  0.3613  0.0484
 2283TIP3    H231045   5.230   4.846   8.498  0.0263  0.1703  1.4703
 2284TIP3   OH231046   2.687   0.392   8.145  0.1021 -0.5768  0.1724
 2284TIP3    H131047   2.768   0.347   8.124 -0.7685 -1.8981 -0.5139
 2284TIP3    H231048   2.622   0.322   8.153 -0.8435  0.3868  1.3661
 2285TIP3   OH231049   1.702   5.199   8.576  0.2010 -0.1393  0.1956
 2285TIP3    H131050   1.726   5.215   8.668 -1.5764 -0.7939  0.8245
 2285TIP3    H231051   1.740   5.113   8.557  0.0231 -0.2950  0.5333
 2286TIP3   OH231052   0.250   6.566   7.807 -0.1085  0.4781 -0.3719
 2286TIP3    H131053   0.209   6.480   7.804  0.8806 -0.0597  0.6830
 2286TIP3    H231054   0.212   6.613   7.733  0.0703 -1.1888 -1.5827
 2287TIP3   OH231055   0.499   5.766   9.353  0.0229 -0.8169 -0.1664
 2287TIP3    H131056   0.520   5.851   9.393 -0.8641 -0.6235 -0.0839
 2287TIP3    H231057   0.404   5.759   9.361 -0.0109 -1.4191 -0.9845
 2288TIP3   OH231058   7.233   2.530   6.609  0.5571 -0.3229  0.3583
 2288TIP3    H131059   7.292   2.604   6.595  1.4323 -0.6158  2.1828
 2288TIP3    H231060   7.281   2.454   6.577  0.4936 -0.3550  0.3384
 2289TIP3   OH231061   4.457   0.874   9.227  0.3781 -0.0761 -0.1954
 2289TIP3    H131062   4.403   0.953   9.221 -0.6130 -0.6312  1.0251
 2289TIP3    H231063   4.545   0.907   9.245 -0.1569  0.7417  1.0760
 2290TIP3   OH231064   6.521   0.665   8.086  0.1048 -0.2202 -0.0591
 2290TIP3    H131065   6.590   0.690   8.147 -0.1744  1.0045 -0.2356
 2290TIP3    H231066   6.550   0.699   8.001  0.0256 -1.0603 -0.4370
 2291TIP3   OH231067   2.094   5.204   7.574 -0.1484 -0.2603 -0.4817
 2291TIP3    H131068   2.118   5.144   7.503 -0.3116 -0.2865 -0.5152
 2291TIP3    H231069   2.150   5.281   7.560 -0.1669 -0.2728 -0.6274
 2292TIP3   OH231070   2.523   4.934   8.368 -0.0482 -0.1604  0.1110
 2292TIP3    H131071   2.499   4.879   8.293  1.8410 -0.4372 -0.3513
 2292TIP3    H231072   2.495   4.885   8.445  2.2577 -2.2288 -0.2541
 2293TIP3   OH231073   1.499   4.370   7.807  0.1982  0.0812 -0.1872
 2293TIP3    H131074   1.449   4.298   7.767 -1.4030  0.7150  0.5839
 2293TIP3    H231075   1.432   4.429   7.840  1.4798  0.6468  1.5037
 2294TIP3   OH231076   3.730   1.852   8.017  0.0511 -0.0707 -0.4989
 2294TIP3    H131077   3.782   1.781   7.979  0.9235 -0.3605  1.1473
 2294TIP3    H231078   3.657   1.864   7.955  1.0260 -0.9437 -1.8861
 2295TIP3   OH231079   1.166   7.353   8.309  0.3121  0.3377 -0.1473
 2295TIP3    H131080   1.227   7.351   8.382  0.0533  0.2563  0.0681
 2295TIP3    H231081   1.217   7.386   8.235  0.0169  2.5809  0.5802
 2296TIP3   OH231082   0.341   6.248   7.235  0.0553  0.5730  0.0461
 2296TIP3    H131083   0.381   6.310   7.174  0.6340 -0.4483 -0.6355
 2296TIP3    H231084   0.388   6.261   7.317  1.8660 -0.6119 -0.7380
 2297TIP3   OH231085   6.345   1.538   9.262  0.6294 -0.4867 -0.7267
 2297TIP3    H131086   6.267   1.513   9.311  0.3074  1.9611  0.1360
 2297TIP3    H231087   6.352   1.632   9.273  4.1140 -0.6671 -0.1822
 2298TIP3   OH231088   1.739   3.261   9.205 -0.1655 -0.2824 -0.0444
 2298TIP3    H131089   1.715   3.301   9.289 -2.0676 -2.1685  0.4202
 2298TIP3    H231090   1.834   3.249   9.210  0.3151  2.9723  0.2276
 2299TIP3   OH231091   0.832   1.142   7.918 -0.5740  0.5519 -0.9138
 2299TIP3    H131092   0.889   1.168   7.990  0.1609  0.1952 -1.3628
 2299TIP3    H231093   0.839   1.047   7.913 -1.7609  0.4257 -0.5242
 2300TIP3   OH231094   0.649   1.904   8.285 -0.2372  0.1146  0.1880
 2300TIP3    H131095   0.709   1.878   8.215 -0.7239  1.4081 -0.7471
 2300TIP3    H231096   0.651   1.830   8.347  0.2761 -1.0214 -1.1318
 2301TIP3   OH231097   0.166   5.877   8.910 -0.1943 -0.9389 -0.2980
 2301TIP3    H131098   0.150   5.952   8.853 -1.5315  0.4155  1.7073
 2301TIP3    H231099   0.080   5.836   8.921 -0.0582 -0.9402  0.9672
 2302TIP3   OH231100   1.124   7.347   8.692  0.3353  0.4647 -0.1905
 2302TIP3    H131101   1.194   7.338   8.756  0.3109 -1.8153 -0.4039
 2302TIP3    H231102   1.160   7.406   8.625  2.8501 -1.9857 -1.2106
 2303TIP3   OH231103   6.464   3.432   8.965 -0.3150 -0.1194 -1.0865
 2303TIP3    H131104   6.412   3.354   8.983 -2.2965  1.1914 -0.8020
 2303TIP3    H231105   6.435   3.461   8.879  1.0969 -0.1840 -1.6141
 2304TIP3   OH231106   2.546   0.808   9.015  0.1240  0.0770 -0.7235
 2304TIP3    H131107   2.495   0.765   9.083  0.4656  1.1449  0.2297
 2304TIP3    H231108   2.565   0.895   9.050  1.7187  0.0700 -1.4847
 2305TIP3   OH231109   2.744   5.495   8.123 -0.2395 -0.1410 -0.3386
 2305TIP3    H131110   2.839   5.504   8.134 -0.3401 -0.4058  0.9998
 2305TIP3    H231111   2.709   5.580   8.149 -0.4202 -0.3328  0.0498
 2306TIP3   OH231112   3.205   3.151   8.862 -0.4586  0.3669 -0.3606
 2306TIP3    H131113   3.256   3.199   8.927  0.3718  0.1105 -0.8115
 2306TIP3    H231114   3.165   3.079   8.911  0.5584 -0.1105 -0.2269
 2307TIP3   OH231115   1.538   2.105   7.849 -0.2481  0.3478  0.0407
 2307TIP3    H131116   1.554   2.200   7.848 -2.3631  0.7408 -0.1284
 2307TIP3    H231117   1.585   2.072   7.772 -0.1175  1.3709 -0.3327
 2308TIP3   OH231118   7.150   4.498   8.006  0.3848 -0.4307 -0.2864
 2308TIP3    H131119   7.110   4.534   7.927  1.7321 -1.2291 -1.3862
 2308TIP3    H231120   7.100   4.536   8.078 -1.7797 -0.7720 -1.5383
 2309TIP3   OH231121   4.339   2.342   7.852 -0.0369 -0.7675  0.4661
 2309TIP3    H131122   4.367   2.270   7.909 -1.4954 -0.9848  0.9503
 2309TIP3    H231123   4.403   2.342   7.781  1.3179 -1.0514  1.6465
 2310TIP3   OH231124   4.211   0.935   8.079  0.0229 -0.4824 -0.1839
 2310TIP3    H131125   4.166   0.985   8.147  0.5699  1.2931 -1.0618
 2310TIP3    H231126   4.298   0.975   8.073  0.2617 -1.1280 -1.3421
 2311TIP3   OH231127   6.415   1.152   8.965  0.3992 -0.2047  0.0365
 2311TIP3    H131128   6.437   1.106   9.046  1.4697  0.2116 -0.0096
 2311TIP3    H231129   6.464   1.106   8.897 -0.3135 -0.4084 -0.3482
 2312TIP3   OH231130   1.232   6.397   7.103  0.3388 -0.1786  0.4407
 2312TIP3    H131131   1.327   6.394   7.105  0.3641  0.4536  0.2841
 2312TIP3    H231132   1.205   6.305   7.099  0.9613 -0.3381 -0.3490
 2313TIP3   OH231133   1.778   6.575   7.014 -0.3482 -0.4994  0.0639
 2313TIP3    H131134   1.808   6.613   6.931  0.0702 -0.9489  0.0034
 2313TIP3    H231135   1.843   6.508   7.034 -0.4366 -0.3804  0.7673
 2314TIP3   OH231136   6.423   2.981   7.763 -0.3626  0.1094 -0.0863
 2314TIP3    H131137   6.376   3.050   7.810  0.3534  0.8090 -0.3710
 2314TIP3    H231138   6.360   2.910   7.756 -1.9768  1.6056 -1.9050
 2315TIP3   OH231139   2.657   1.573   8.404  0.5557 -0.0037  0.1865
 2315TIP3    H131140   2.624   1.607   8.321  1.8058 -1.0980 -0.8080
 2315TIP3    H231141   2.752   1.582   8.398  0.6625  0.1758  1.6425
 2316TIP3   OH231142   3.066   1.260   8.542 -0.0128  0.0094 -0.2859
 2316TIP3    H131143   3.110   1.281   8.625  1.0705  0.9552 -1.0710
 2316TIP3    H231144   3.136   1.260   8.477 -0.4446 -2.9833 -0.9092
 2317TIP3   OH231145   0.344   1.034   7.366 -0.2276 -0.4907 -0.2208
 2317TIP3    H131146   0.366   0.940   7.368 -3.0282 -1.3126 -2.2128
 2317TIP3    H231147   0.339   1.059   7.458 -1.1186 -2.7693  0.4261
 2318TIP3   OH231148   7.233   5.455   8.633 -0.2134  0.4855  0.2437
 2318TIP3    H131149   7.138   5.445   8.627 -0.0968  0.3817 -2.8110
 2318TIP3    H231150   7.246   5.545   8.662 -1.2937  1.3913 -1.8867
 2319TIP3   OH231151   6.398   3.811   8.899 -0.2922  0.3890 -0.1566
 2319TIP3    H131152   6.483   3.848   8.879 -0.2638 -0.1106 -1.0131
 2319TIP3    H231153   6.353   3.879   8.949 -0.2114  1.5300 -1.5766
 2320TIP3   OH231154   2.340   6.709   7.562 -0.3024  0.6301  0.4824
 2320TIP3    H131155   2.348   6.802   7.542 -2.7927  1.1950  1.6194
 2320TIP3    H231156   2.280   6.707   7.637 -0.9429 -1.9231 -0.0221
 2321TIP3   OH231157   6.620   0.395   8.154  0.2122 -0.0862 -0.2025
 2321TIP3    H131158   6.588   0.478   8.118  0.6731  0.5261  0.7553
 2321TIP3    H231159   6.706   0.384   8.115  0.6710  0.5291  0.5976
 2322TIP3   OH231160   7.151   3.658   7.403  0.2426  0.1923 -0.1864
 2322TIP3    H131161   7.100   3.663   7.322  0.9049 -0.7145 -0.6763
 2322TIP3    H231162   7.181   3.747   7.419 -0.5631  0.5295 -0.4895
 2323TIP3   OH231163   3.848   1.634   9.507  0.7639  0.0986 -0.0773
 2323TIP3    H131164   3.927   1.682   9.532  0.2982  0.5199  0.6045
 2323TIP3    H231165   3.777   1.697   9.517  0.3955 -0.1139 -1.2176
 2324TIP3   OH231166   0.517   5.104   9.424 -0.1815 -0.2865  0.3272
 2324TIP3    H131167   0.528   5.068   9.336 -0.0278  1.4538 -0.4122
 2324TIP3    H231168   0.570   5.048   9.480  1.4145 -0.1968 -1.0308
 2325TIP3   OH231169   4.134   3.515   9.176 -0.6680  1.3746  0.1702
 2325TIP3    H131170   4.082   3.595   9.185 -0.3268  1.4887  1.2542
 2325TIP3    H231171   4.093   3.453   9.236  0.1427  1.3089  0.6700
 2326TIP3   OH231172   2.911   1.505   9.018 -0.2129 -0.6197 -0.3424
 2326TIP3    H131173   2.938   1.426   8.973 -2.1125 -1.2415 -0.4374
 2326TIP3    H231174   2.841   1.478   9.077 -0.2713  0.8281  0.3197
 2327TIP3   OH231175   0.840   0.630   7.118  0.2295  0.4554  0.1054
 2327TIP3    H131176   0.792   0.711   7.138 -1.1804  0.1115 -1.6414
 2327TIP3    H231177   0.782   0.582   7.060  1.7673 -1.0621 -0.2471
 2328TIP3   OH231178   7.019   4.860   6.822 -0.1191  0.0883 -0.0748
 2328TIP3    H131179   7.090   4.851   6.758  0.5356  0.7345  0.5433
 2328TIP3    H231180   6.940   4.869   6.768 -0.0886 -2.7923 -0.7794
 2329TIP3   OH231181   5.536   1.983   7.996 -0.1621  0.4416  0.8612
 2329TIP3    H131182   5.512   1.915   7.933  1.2764 -0.1536  0.9101
 2329TIP3    H231183   5.592   1.939   8.059  1.2288  1.7376  0.6176
 2330TIP3   OH231184   4.044   7.633   8.602  0.1299  0.1438 -0.6686
 2330TIP3    H131185   4.136   7.608   8.614 -0.3808 -1.6676 -0.1733
 2330TIP3    H231186   3.995   7.564   8.647 -1.4240  2.9927  2.5348
 2331TIP3   OH231187   2.292   5.220   8.282 -0.7991 -0.5032  0.6272
 2331TIP3    H131188   2.261   5.300   8.324 -1.1094 -0.2266 -0.0962
 2331TIP3    H231189   2.374   5.199   8.326  0.9969  2.0082 -1.2083
 2332TIP3   OH231190   5.766   5.324   7.915 -0.1079  0.4628 -0.0475
 2332TIP3    H131191   5.840   5.303   7.973 -0.5582  0.7471  0.6395
 2332TIP3    H231192   5.728   5.239   7.893  0.5464  0.2965 -0.5852
 2333TIP3   OH231193   5.467   1.786   9.165  0.2250 -0.1971 -0.1831
 2333TIP3    H131194   5.467   1.712   9.226  0.3408  0.1185  0.1979
 2333TIP3    H231195   5.419   1.855   9.210  1.5605  0.5368  0.1610
 2334TIP3   OH231196   5.280   4.789   9.097  0.4991  0.0753  0.1929
 2334TIP3    H131197   5.325   4.706   9.080  1.2689 -0.1669  2.9571
 2334TIP3    H231198   5.269   4.829   9.010  1.8167 -2.0300 -1.0156
 2335TIP3   OH231199   7.492   7.044   6.888  0.4271  0.1927  0.6603
 2335TIP3    H131200   7.433   6.969   6.901  0.1153  0.3127  0.0123
 2335TIP3    H231201   7.458   7.087   6.809 -0.0529  1.6530  1.6358
 2336TIP3   OH231202   1.348   5.392   6.739 -0.0798 -0.1784  0.0727
 2336TIP3    H131203   1.441   5.370   6.745 -0.3665 -1.5308 -0.1960
 2336TIP3    H231204   1.308   5.316   6.697 -1.3574  0.2854  0.4103
 2337TIP3   OH231205   0.303   5.780   8.526  0.1922  0.4608  0.4210
 2337TIP3    H131206   0.281   5.729   8.604 -2.2203 -2.9859 -2.1808
 2337TIP3    H231207   0.389   5.747   8.500  0.0361  0.0086  0.4685
 2338TIP3   OH231208   0.224   5.731   9.285 -0.6535 -0.8348 -0.3581
 2338TIP3    H131209   0.132   5.743   9.259 -0.4294 -1.6215 -1.5648
 2338TIP3    H231210   0.274   5.776   9.216 -0.0351 -3.2445 -1.5870
 2339TIP3   OH231211   6.573   6.495   8.591  0.1170 -0.8364  0.4149
 2339TIP3    H131212   6.627   6.495   8.671 -1.3811  2.3469  1.5899
 2339TIP3    H231213   6.493   6.449   8.616  0.4275 -1.5611  0.0992
 2340TIP3   OH231214   2.468   2.414   7.338 -0.4120 -0.3660 -0.4678
 2340TIP3    H131215   2.524   2.446   7.409 -0.6723 -0.3625 -0.2660
 2340TIP3    H231216   2.420   2.491   7.309 -1.2466 -0.6231  0.2056
 2341TIP3   OH231217   5.667   4.289   8.094  0.1049  0.6725  0.2351
 2341TIP3    H131218   5.647   4.196   8.109  1.2289  0.3347 -0.2856
 2341TIP3    H231219   5.762   4.294   8.101 -0.0019  1.9376  1.0326
 2342TIP3   OH231220   6.497   4.130   7.164 -0.6131 -0.1690 -0.0011
 2342TIP3    H131221   6.437   4.087   7.104 -0.8173  0.1460 -0.0267
 2342TIP3    H231222   6.506   4.219   7.130 -1.9394  0.5009  1.2653
 2343TIP3   OH231223   3.092   6.991   8.241  0.0752 -0.0342 -0.8189
 2343TIP3    H131224   3.120   6.901   8.260 -1.7568 -0.6350 -0.6961
 2343TIP3    H231225   3.055   7.022   8.324 -0.5443  0.3118 -1.2163
 2344TIP3   OH231226   7.654   7.155   8.058 -0.0361  0.3637  0.3423
 2344TIP3    H131227   7.689   7.122   8.140 -1.1159 -0.4613  0.5000
 2344TIP3    H231228   7.581   7.096   8.037  0.2265  0.5423 -1.2187
 2345TIP3   OH231229   5.785   5.410   8.936  0.3070  0.3278 -0.2412
 2345TIP3    H131230   5.725   5.408   8.862 -1.4146  1.2787  1.0682
 2345TIP3    H231231   5.813   5.318   8.947 -1.8278 -0.3524 -0.1749
 2346TIP3   OH231232   5.227   4.608   8.688 -0.5864  0.1591 -0.2003
 2346TIP3    H131233   5.186   4.523   8.675 -0.2305 -0.1597  0.6681
 2346TIP3    H231234   5.320   4.592   8.674 -0.5939  0.5664 -0.7441
 2347TIP3   OH231235   4.902   4.150   9.463 -0.2157  0.3929  0.6063
 2347TIP3    H131236   4.895   4.221   9.400 -2.8045  0.8513  1.2917
 2347TIP3    H231237   4.952   4.186   9.536  2.8990 -0.1784 -1.1008
 2348TIP3   OH231238   1.541   1.511   9.191  0.0551  0.2492  0.1006
 2348TIP3    H131239   1.552   1.594   9.145  2.6708 -0.7760 -1.3275
 2348TIP3    H231240   1.592   1.521   9.271  0.4274  0.0313 -0.1036
 2349TIP3   OH231241   6.552   6.138   9.040 -0.3873 -0.4081 -0.0154
 2349TIP3    H131242   6.486   6.201   9.010 -1.4555 -1.2780  0.4218
 2349TIP3    H231243   6.582   6.094   8.961 -0.4488 -0.1256 -0.1972
 2350TIP3   OH231244   0.343   6.625   8.375  0.6497  0.1126  0.7658
 2350TIP3    H131245   0.427   6.579   8.368  0.1437 -1.3318  3.1477
 2350TIP3    H231246   0.280   6.566   8.335  0.8815  2.0600 -2.8993
 2351TIP3   OH231247   2.921   3.444   9.190 -0.4531 -0.2137  0.3150
 2351TIP3    H131248   2.841   3.437   9.139 -0.1340 -0.0827 -0.2043
 2351TIP3    H231249   2.964   3.360   9.179 -1.2058 -0.8204  1.7648
 2352TIP3   OH231250   6.454   3.292   8.306 -0.3902 -0.1544  0.3723
 2352TIP3    H131251   6.494   3.264   8.388 -1.7470  0.8979  1.4309
 2352TIP3    H231252   6.360   3.289   8.323 -0.6891  0.4268 -1.0392
 2353TIP3   OH231253   6.017   3.158   7.859  0.3265 -0.2462 -0.4367
 2353TIP3    H131254   6.033   3.239   7.909 -1.4018 -0.3087  0.2941
 2353TIP3    H231255   6.066   3.170   7.778  1.1650  0.9621  0.2075
 2354TIP3   OH231256   6.622   2.688   7.941 -0.0901 -0.3755 -0.3869
 2354TIP3    H131257   6.595   2.780   7.941 -0.2732 -0.4252 -0.0662
 2354TIP3    H231258   6.570   2.648   8.012  0.2756 -0.6388 -0.2632
 2355TIP3   OH231259   1.688   3.044   8.188  0.1612 -0.3009  0.2186
 2355TIP3    H131260   1.623   2.976   8.172 -0.5183  0.2726  0.5364
 2355TIP3    H231261   1.717   3.030   8.278 -1.9704  1.4687  1.2567
 2356TIP3   OH231262   6.630   6.212   8.373 -0.2847 -0.5457 -0.3027
 2356TIP3    H131263   6.633   6.304   8.401 -3.6906 -1.2098  3.1354
 2356TIP3    H231264   6.712   6.175   8.405 -0.4095  0.6265  1.5756
 2357TIP3   OH231265   3.466   6.398   7.909  0.2917 -0.7054  0.0170
 2357TIP3    H131266   3.481   6.466   7.844  1.2636  0.8633  1.7877
 2357TIP3    H231267   3.546   6.395   7.961 -0.1425 -2.4555  0.6719
 2358TIP3   OH231268   5.987   5.059   7.908  0.2852 -0.2952 -0.4087
 2358TIP3    H131269   5.898   5.029   7.930  0.5200 -1.6067 -1.1298
 2358TIP3    H231270   6.001   5.135   7.963 -1.7197  0.6119 -1.0517
 2359TIP3   OH231271   4.461   0.550   9.384 -0.1558  0.2759  0.2255
 2359TIP3    H131272   4.394   0.523   9.446  1.5289 -2.1660  1.1452
 2359TIP3    H231273   4.439   0.641   9.363 -3.4966 -0.2734  0.7012
 2360TIP3   OH231274   4.668   6.068   9.204 -0.1716  0.4967  0.2745
 2360TIP3    H131275   4.658   5.975   9.185  1.5359 -0.3260  2.8538
 2360TIP3    H231276   4.743   6.096   9.152 -1.3742  0.7946 -1.3812
 2361TIP3   OH231277   4.207   5.068   8.117  0.0176  0.1122  0.2829
 2361TIP3    H131278   4.148   5.026   8.055  1.3960  0.1258 -1.1125
 2361TIP3    H231279   4.212   5.159   8.088 -0.8189  0.6281  1.6306
 2362TIP3   OH231280   6.358   0.514   7.118  0.3596  0.1488 -0.5687
 2362TIP3    H131281   6.381   0.601   7.087 -1.1069  0.6706 -0.2905
 2362TIP3    H231282   6.442   0.469   7.130  1.1991  1.8739  0.3054
 2363TIP3   OH231283   6.147   6.960   8.401  0.2248  0.2830  0.3723
 2363TIP3    H131284   6.163   6.943   8.308  2.0994  2.2516  0.2663
 2363TIP3    H231285   6.195   7.040   8.419 -0.6738  0.3265  2.9111
 2364TIP3   OH231286   3.720   4.016   7.151 -0.0828  0.0970  0.1679
 2364TIP3    H131287   3.677   4.093   7.188 -0.9506 -0.2684 -0.0637
 2364TIP3    H231288   3.657   3.945   7.163 -0.4469 -0.0162 -2.1027
 2365TIP3   OH231289   7.253   3.345   8.689  0.2397 -0.0193 -0.2565
 2365TIP3    H131290   7.302   3.287   8.747  0.2166 -0.5082 -0.7132
 2365TIP3    H231291   7.316   3.411   8.661  0.9988 -1.3338 -1.7963
 2366TIP3   OH231292   0.920   5.685   9.136 -0.0803  0.0050  0.5689
 2366TIP3    H131293   0.845   5.652   9.087  0.4589 -0.4892  0.0617
 2366TIP3    H231294   0.919   5.635   9.218 -1.4097  1.3464  1.4127
 2367TIP3   OH231295   6.323   5.615   8.405  0.2136 -0.5315  0.3045
 2367TIP3    H131296   6.243   5.574   8.439  0.8110 -1.1794  0.9578
 2367TIP3    H231297   6.291   5.683   8.345 -0.8183 -2.5382 -1.5752
 2368TIP3   OH231298   4.231   3.888   7.493 -0.0648 -0.0240  0.1264
 2368TIP3    H131299   4.182   3.822   7.443 -2.6085  1.4750  0.4655
 2368TIP3    H231300   4.269   3.944   7.426  0.5666 -0.7448 -0.1387
 2369TIP3   OH231301   0.668   4.091   8.041 -0.1494 -0.6317 -0.1196
 2369TIP3    H131302   0.750   4.124   8.078  0.1502 -0.3863 -0.9789
 2369TIP3    H231303   0.613   4.073   8.117  0.3299  0.1576  0.4323
 2370TIP3   OH231304   6.572   3.717   6.724  0.0485  0.0954 -0.3697
 2370TIP3    H131305   6.625   3.766   6.788 -0.2493 -1.3263  1.0220
 2370TIP3    H231306   6.495   3.772   6.709 -0.6965 -0.2553  1.8187
 2371TIP3   OH231307   5.073   2.390   7.635  0.0370  0.2675 -0.3594
 2371TIP3    H131308   5.045   2.467   7.685 -2.5964 -0.4967 -0.5111
 2371TIP3    H231309   5.047   2.315   7.689  1.3852 -0.5674 -0.8104
 2372TIP3   OH231310   0.418   4.561   6.884  0.2466 -0.3349 -0.1241
 2372TIP3    H131311   0.322   4.558   6.879  0.1759 -0.6953  1.0512
 2372TIP3    H231312   0.447   4.518   6.804 -0.6130 -1.8654  0.3312
 2373TIP3   OH231313   6.933   5.878   9.470  0.4537  0.1121  0.6409
 2373TIP3    H131314   6.842   5.877   9.439  0.1238  1.6155  1.4741
 2373TIP3    H231315   6.936   5.807   9.534 -0.6714  1.1500  1.9216
 2374TIP3   OH231316   0.052   5.119   6.359 -0.0439  0.2983  0.1642
 2374TIP3    H131317   0.024   5.029   6.348  3.9760 -1.0530 -0.5412
 2374TIP3    H231318   0.125   5.115   6.421  0.1215  3.1391  0.3276
 2375TIP3   OH231319   7.461   2.081   9.283 -0.3249  0.2256 -0.2848
 2375TIP3    H131320   7.484   2.080   9.190 -0.0670 -2.0558 -0.2718
 2375TIP3    H231321   7.546   2.077   9.329 -0.4964 -0.3426 -0.0088
 2376TIP3   OH231322   0.452   3.767   6.922 -0.3238 -0.1696  0.1972
 2376TIP3    H131323   0.449   3.732   7.011 -0.1170 -2.7786 -0.7293
 2376TIP3    H231324   0.532   3.818   6.919 -0.3233 -0.0506  1.5000
 2377TIP3   OH231325   5.917   4.084   8.771  0.0333 -0.0173  0.1812
 2377TIP3    H131326   5.969   4.094   8.850  0.0925 -0.5923  0.2192
 2377TIP3    H231327   5.882   3.995   8.776 -0.8820  0.3233  0.1154
 2378TIP3   OH231328   6.424   6.797   7.432 -0.2238  0.1747 -0.5792
 2378TIP3    H131329   6.385   6.712   7.410  2.8085 -1.7203  0.6603
 2378TIP3    H231330   6.392   6.816   7.520  0.1923 -0.4491 -0.2853
 2379TIP3   OH231331   3.205   2.519   7.433  0.2913 -0.2485 -0.4893
 2379TIP3    H131332   3.274   2.461   7.462 -0.6010 -0.7938  0.6293
 2379TIP3    H231333   3.141   2.518   7.504 -0.9360  0.1222 -1.5454
 2380TIP3   OH231334   1.298   6.037   7.993  0.0358  0.1900  0.4201
 2380TIP3    H131335   1.217   6.089   7.995  0.1815  0.3939  1.1301
 2380TIP3    H231336   1.344   6.060   8.074  0.0817 -1.0755  0.7757
 2381TIP3   OH231337   1.302   3.265   8.316 -0.5582 -0.2352  0.4536
 2381TIP3    H131338   1.321   3.172   8.326  1.2093  0.0035 -0.3611
 2381TIP3    H231339   1.274   3.273   8.224 -1.1941 -0.0103  0.6581
 2382TIP3   OH231340   6.677   3.891   6.898 -0.0164 -1.2896 -0.4169
 2382TIP3    H131341   6.727   3.973   6.900  0.1927 -1.4228  0.0315
 2382TIP3    H231342   6.700   3.848   6.981 -2.8146 -0.1952  1.0452
 2383TIP3   OH231343   6.074   6.457   7.382  0.1848  0.3262  0.2082
 2383TIP3    H131344   6.052   6.542   7.343  0.7300  0.0251 -0.8004
 2383TIP3    H231345   6.057   6.394   7.313  4.6396  0.0916 -1.0397
 2384TIP3   OH231346   4.550   4.282   7.333  0.0126 -0.9358 -0.1901
 2384TIP3    H131347   4.499   4.213   7.376 -0.0012  0.3888  2.0516
 2384TIP3    H231348   4.634   4.241   7.315  0.6125 -1.1557  2.6543
 2385TIP3   OH231349   3.347   0.043   9.021 -0.1074 -0.5449  0.2311
 2385TIP3    H131350   3.383  -0.004   8.946 -0.7691  1.4361 -1.4464
 2385TIP3    H231351   3.421   0.055   9.080  1.1312  0.0973 -1.3485
 2386TIP3   OH231352   4.542   5.633   9.283  0.2784 -0.2976  0.1777
 2386TIP3    H131353   4.573   5.550   9.320  1.2035 -0.1001 -0.1405
 2386TIP3    H231354   4.525   5.614   9.191  1.7923  0.1886 -0.2185
 2387TIP3   OH231355   0.478   7.209   7.013  0.0408 -0.1984  0.2367
 2387TIP3    H131356   0.478   7.265   6.935 -1.1013 -0.0731  0.3029
 2387TIP3    H231357   0.569   7.186   7.026  0.7560  2.5159  0.7953
 2388TIP3   OH231358   5.416   1.263   7.276 -0.4050  0.0831  0.2069
 2388TIP3    H131359   5.381   1.176   7.254 -2.2573  0.0028  2.9166
 2388TIP3    H231360   5.341   1.322   7.265 -0.3163  0.6222  2.0892
 2389TIP3   OH231361   4.944   2.725   8.558 -0.4740  0.3353 -0.6547
 2389TIP3    H131362   5.037   2.742   8.571 -0.3020 -0.8294 -0.2532
 2389TIP3    H231363   4.903   2.811   8.558  0.7039  0.9191 -1.6592
 2390TIP3   OH231364   6.927   0.012   8.963  0.1099  0.1828 -0.2157
 2390TIP3    H131365   6.907   0.051   9.049  0.6163  0.1633 -0.0869
 2390TIP3    H231366   6.907  -0.081   8.974 -1.1094  0.3875 -0.5247
 2391TIP3   OH231367   6.111   2.205   8.169  0.0572  0.1523  0.0675
 2391TIP3    H131368   6.055   2.272   8.128 -0.6415 -0.3527  0.1834
 2391TIP3    H231369   6.173   2.256   8.222  2.0994  0.9447 -2.8295
 2392TIP3   OH231370   7.294   7.406   7.830  0.2196 -0.7508 -0.4611
 2392TIP3    H131371   7.296   7.501   7.841 -2.1226 -0.3121 -2.8445
 2392TIP3    H231372   7.360   7.373   7.891  0.9057  2.3605  0.6364
 2393TIP3   OH231373   3.355   1.142   7.098 -0.6223 -0.5877  0.8480
 2393TIP3    H131374   3.284   1.104   7.045 -0.2039 -0.1421 -0.0666
 2393TIP3    H231375   3.309   1.196   7.162 -1.1315  1.0819 -0.8128
 2394TIP3   OH231376   1.452   1.302   7.656 -0.3614 -0.0847  0.1221
 2394TIP3    H131377   1.402   1.303   7.574 -0.2031  0.2611  0.0288
 2394TIP3    H231378   1.537   1.341   7.633  0.1933 -1.2534  0.1301
 2395TIP3   OH231379   3.486   4.357   9.223  0.2204  0.7200  0.1328
 2395TIP3    H131380   3.451   4.336   9.310  0.7497  0.4752  0.2925
 2395TIP3    H231381   3.543   4.432   9.238  1.5980 -0.3080  0.3048
 2396TIP3   OH231382   6.208   7.608   6.691 -0.0480 -0.1326 -0.2851
 2396TIP3    H131383   6.118   7.636   6.676  0.0565 -0.4668 -1.6239
 2396TIP3    H231384   6.254   7.628   6.610  0.6598 -1.6617 -0.2918
 2397TIP3   OH231385   4.713   1.809   7.877  0.1916 -0.1516 -0.3991
 2397TIP3    H131386   4.793   1.761   7.897  1.4981  1.2756 -1.9738
 2397TIP3    H231387   4.724   1.894   7.918 -1.4945 -0.6167  1.1704
 2398TIP3   OH231388   3.244   4.140   7.262 -0.0696  0.1340 -0.0749
 2398TIP3    H131389   3.237   4.084   7.185 -0.1814 -0.1357  0.1318
 2398TIP3    H231390   3.200   4.221   7.236  1.2340  0.6193 -0.8252
 2399TIP3   OH231391   2.151   1.680   6.593 -0.3882  0.8621 -0.3609
 2399TIP3    H131392   2.091   1.751   6.572 -0.4405  1.4039  1.4108
 2399TIP3    H231393   2.233   1.724   6.614  0.0408  0.2720 -0.7890
 2400TIP3   OH231394   0.067   1.213   9.409 -0.1741  0.3638  0.3123
 2400TIP3    H131395   0.156   1.233   9.435 -0.2450  1.6654 -0.3965
 2400TIP3    H231396   0.022   1.192   9.491  0.9557 -1.1321  0.5840
 2401TIP3   OH231397   3.886   0.935   7.064 -0.3593  0.5633  0.3093
 2401TIP3    H131398   3.961   0.876   7.066 -0.0620  0.9261  2.7260
 2401TIP3    H231399   3.838   0.911   6.984  2.1554  0.1717 -1.1900
 2402TIP3   OH231400   2.780   3.858   7.583  0.0622 -0.2272 -0.5755
 2402TIP3    H131401   2.738   3.860   7.670 -2.1055 -0.9882 -1.5312
 2402TIP3    H231402   2.841   3.785   7.587  0.4523  0.1322  0.4756
 2403TIP3   OH231403   4.208   0.419   7.452 -0.0399  0.6286 -0.1844
 2403TIP3    H131404   4.124   0.447   7.489 -0.3178  0.8544 -0.9664
 2403TIP3    H231405   4.261   0.499   7.448 -1.0305  1.2462 -2.9455
 2404TIP3   OH231406   6.676   4.715   7.537  0.1748  0.0625  0.3556
 2404TIP3    H131407   6.689   4.621   7.526 -1.5595 -0.1494 -0.2568
 2404TIP3    H231408   6.697   4.732   7.629 -1.0725 -1.2462  0.9131
 2405TIP3   OH231409   4.527   0.263   9.038 -0.2836 -0.3644  0.1541
 2405TIP3    H131410   4.476   0.195   9.083  0.3597 -0.5326  0.6416
 2405TIP3    H231411   4.556   0.321   9.107  0.6435 -0.5758 -0.0455
 2406TIP3   OH231412   1.946   2.771   7.413 -1.0181  0.9277  0.0714
 2406TIP3    H131413   1.946   2.805   7.502  0.7793 -0.8479  0.8090
 2406TIP3    H231414   2.034   2.786   7.381 -1.4589  0.9509 -1.1846
 2407TIP3   OH231415   4.559   1.655   7.682 -0.3857  0.1692  0.2931
 2407TIP3    H131416   4.626   1.666   7.615 -1.1978 -0.9989 -0.7580
 2407TIP3    H231417   4.588   1.711   7.754 -0.2731  2.7173 -1.5859
 2408TIP3   OH231418   2.882   0.237   7.293  0.2698  0.1426  0.4678
 2408TIP3    H131419   2.932   0.242   7.375 -0.9270  0.3090  1.2215
 2408TIP3    H231420   2.840   0.322   7.286 -0.5028 -0.2493  0.2538
 2409TIP3   OH231421   4.456   1.023   7.973 -0.0181 -0.1966  0.0326
 2409TIP3    H131422   4.473   1.076   7.895  0.6323 -0.9169 -0.3347
 2409TIP3    H231423   4.519   0.951   7.967  1.3596  0.7642  2.2394
 2410TIP3   OH231424   3.749   5.792   8.852  0.1956  0.3478 -0.1079
 2410TIP3    H131425   3.737   5.886   8.863  2.6279  0.5990  1.0953
 2410TIP3    H231426   3.686   5.752   8.912  0.8161  1.3134  1.2280
 2411TIP3   OH231427   3.775   2.705   7.105 -0.1619  0.1918  0.2640
 2411TIP3    H131428   3.838   2.701   7.178  0.4103  0.9811 -0.1633
 2411TIP3    H231429   3.705   2.761   7.138 -0.3726 -0.2317  0.5432
 2412TIP3   OH231430   4.027   2.296   9.321  0.2701 -0.2475 -0.2013
 2412TIP3    H131431   4.110   2.341   9.304 -0.5306  1.4365  0.0408
 2412TIP3    H231432   3.960   2.356   9.286 -0.8332 -1.7486 -0.7691
 2413TIP3   OH231433   3.952   6.646   8.715  0.0632  0.0937 -0.3188
 2413TIP3    H131434   4.001   6.705   8.658 -0.7142  0.8864 -0.1928
 2413TIP3    H231435   4.000   6.564   8.712  0.6012  0.4286 -1.3154
 2414TIP3   OH231436   6.823   6.321   8.550  0.0185 -0.1117 -0.1392
 2414TIP3    H131437   6.806   6.396   8.607  1.2879  0.7948 -0.8971
 2414TIP3    H231438   6.891   6.272   8.596 -2.3919 -2.1785  1.5114
 2415TIP3   OH231439   2.816   6.846   6.393 -0.1811 -0.1388  0.2666
 2415TIP3    H131440   2.777   6.798   6.466 -0.5651 -0.1047  0.0888
 2415TIP3    H231441   2.901   6.875   6.425  0.2120 -1.2531  0.2533
 2416TIP3   OH231442   6.432   1.096   8.278 -0.1451 -0.1883  0.4147
 2416TIP3    H131443   6.445   1.111   8.184  0.8385  0.9532  0.7077
 2416TIP3    H231444   6.474   1.011   8.295 -0.9033 -0.7202 -0.2730
 2417TIP3   OH231445   5.693   7.395   9.242  0.1629  0.2490 -0.2343
 2417TIP3    H131446   5.681   7.338   9.165  0.3354 -0.2903  0.1284
 2417TIP3    H231447   5.753   7.346   9.298  0.1453  0.7028  0.1837
 2418TIP3   OH231448   2.181   7.436   8.385  0.1552  0.1183  0.5788
 2418TIP3    H131449   2.167   7.531   8.388 -0.9131 -0.0423  3.0162
 2418TIP3    H231450   2.276   7.425   8.392  0.3069  0.9926  0.0388
 2419TIP3   OH231451   0.730   2.288   7.941 -0.1806 -0.2581  0.5136
 2419TIP3    H131452   0.666   2.340   7.990 -1.5900 -0.6742 -0.7912
 2419TIP3    H231453   0.705   2.301   7.849  1.5058 -0.6172 -0.0229
 2420TIP3   OH231454   6.376   4.687   7.838  0.3534  0.5705  0.1882
 2420TIP3    H131455   6.382   4.771   7.792  0.8742 -0.4634 -1.7081
 2420TIP3    H231456   6.282   4.669   7.842  0.3139  0.4034 -1.0463
 2421TIP3   OH231457   5.690   3.212   7.509  0.3925 -0.1090  0.1655
 2421TIP3    H131458   5.760   3.203   7.445  0.5630 -0.2491  0.3701
 2421TIP3    H231459   5.729   3.267   7.578  0.3468 -0.3056  0.3466
 2422TIP3   OH231460   7.428   4.477   8.048  0.2545 -0.7268 -0.0721
 2422TIP3    H131461   7.450   4.433   7.966  2.0324  1.1387 -0.6947
 2422TIP3    H231462   7.333   4.486   8.047  0.2162 -1.0944 -1.7586
 2423TIP3   OH231463   5.451   7.617   7.437 -0.2626  1.3537 -0.4136
 2423TIP3    H131464   5.477   7.594   7.348 -0.5901  1.6720 -0.5946
 2423TIP3    H231465   5.356   7.630   7.432 -0.2562  1.5480 -0.0616
 2424TIP3   OH231466   1.924   1.765   8.889 -0.2236 -0.3763 -0.1370
 2424TIP3    H131467   2.008   1.809   8.873 -0.0518  0.1573  1.9494
 2424TIP3    H231468   1.860   1.836   8.892 -0.4718 -0.6014 -0.0501
 2425TIP3   OH231469   4.148   1.895   8.775  0.3958 -0.0771 -0.0537
 2425TIP3    H131470   4.105   1.858   8.697 -0.8175 -0.1688  0.6262
 2425TIP3    H231471   4.114   1.842   8.847  0.1743  1.0929  0.7214
 2426TIP3   OH231472   0.871   4.130   8.240  0.3676 -0.5049 -0.1856
 2426TIP3    H131473   0.826   4.162   8.318  2.4183  1.2254  0.3961
 2426TIP3    H231474   0.868   4.034   8.248 -3.2717 -0.5255 -0.3560
 2427TIP3   OH231475   0.931   7.351   7.891  0.2927 -0.2524 -0.3038
 2427TIP3    H131476   0.942   7.446   7.885 -0.4855 -0.1468 -0.2187
 2427TIP3    H231477   0.996   7.323   7.955 -1.3520  0.6357  1.8863
 2428TIP3   OH231478   3.414   6.215   7.498 -0.4041  0.0138 -0.2565
 2428TIP3    H131479   3.416   6.202   7.593 -0.4562  0.7270 -0.1509
 2428TIP3    H231480   3.363   6.295   7.486 -0.3151 -0.0189 -0.8799
 2429TIP3   OH231481   3.476   3.465   8.532  0.2742  0.0235 -0.0399
 2429TIP3    H131482   3.543   3.403   8.561 -0.8441 -0.2225  2.1939
 2429TIP3    H231483   3.398   3.412   8.518  0.2070  0.4694 -1.5586
 2430TIP3   OH231484   6.468   3.302   8.570 -0.6844 -0.3196  0.3764
 2430TIP3    H131485   6.439   3.393   8.572 -0.8567 -0.3601 -0.0735
 2430TIP3    H231486   6.420   3.259   8.641 -0.6379 -0.0715  0.5592
 2431TIP3   OH231487   1.992   2.856   9.013 -0.0442  0.7287  0.3670
 2431TIP3    H131488   2.074   2.816   8.984  0.1865  1.2413  0.2989
 2431TIP3    H231489   1.923   2.799   8.977  0.2500  1.0030 -0.6677
 2432TIP3   OH231490   6.527   6.075   8.636  0.3082  1.1798  0.0686
 2432TIP3    H131491   6.604   6.111   8.592  1.1632 -1.3137 -0.6582
 2432TIP3    H231492   6.560   5.999   8.685 -1.5837  0.3159  0.1105
 2433TIP3   OH231493   0.154   4.342   7.636  0.1946 -0.7843  0.0816
 2433TIP3    H131494   0.103   4.344   7.717 -0.3779  0.0309 -0.2788
 2433TIP3    H231495   0.244   4.359   7.663 -0.2527  1.4679  0.3925
 2434TIP3   OH231496   6.786   4.606   7.921 -0.0351 -0.0034  0.7019
 2434TIP3    H131497   6.752   4.675   7.864  1.4973 -0.6127 -1.0601
 2434TIP3    H231498   6.793   4.647   8.007  1.3652  2.2784 -0.3960
 2435TIP3   OH231499   5.855   0.172   9.040 -0.3246  0.0927  0.1478
 2435TIP3    H131500   5.910   0.094   9.031 -1.9632 -1.3962  1.8947
 2435TIP3    H231501   5.902   0.229   9.101 -0.2794 -0.7977  0.9838
 2436TIP3   OH231502   7.593   3.930   8.361 -0.3016 -0.0499 -0.1206
 2436TIP3    H131503   7.640   3.949   8.442  0.3233 -1.9339  0.0172
 2436TIP3    H231504   7.598   4.012   8.311  2.2617  0.1819  0.3319
 2437TIP3   OH231505   2.379   5.360   9.304 -0.1010 -0.6007  0.1893
 2437TIP3    H131506   2.319   5.434   9.318  1.5057  0.5701  1.2088
 2437TIP3    H231507   2.356   5.328   9.217 -1.4163  0.5575  0.0624
 2438TIP3   OH231508   3.716   4.340   7.776  0.2749 -0.2162  0.0239
 2438TIP3    H131509   3.645   4.366   7.835  1.1525  1.3383  0.4413
 2438TIP3    H231510   3.795   4.343   7.829  0.8911 -0.2016 -0.8635
 2439TIP3   OH231511   2.473   7.154   8.834 -0.3125  0.3112  0.2062
 2439TIP3    H131512   2.461   7.070   8.879  0.6285  0.8458  1.5127
 2439TIP3    H231513   2.458   7.220   8.902  1.4108  1.1494 -0.1776
 2440TIP3   OH231514   6.097   6.975   8.783 -0.0933  0.4487 -0.4388
 2440TIP3    H131515   6.104   6.889   8.741  0.4094 -0.0597  0.6576
 2440TIP3    H231516   6.150   7.032   8.727  0.5683 -0.2147 -0.5075
 2441TIP3   OH231517   5.680   1.861   6.336 -0.4138  0.2472  0.1864
 2441TIP3    H131518   5.699   1.782   6.387 -0.8008 -0.8418 -1.3042
 2441TIP3    H231519   5.764   1.906   6.331  0.0727 -0.6345  0.1282
 2442TIP3   OH231520   7.426   1.295   8.474  0.3984 -0.0233  0.1136
 2442TIP3    H131521   7.362   1.225   8.464  2.1708 -1.6712 -0.2640
 2442TIP3    H231522   7.374   1.376   8.472 -1.9026 -1.3203  2.3174
 2443TIP3   OH231523   5.052   1.023   8.556 -0.0267 -0.1804 -0.3628
 2443TIP3    H131524   5.008   1.101   8.591 -0.9119 -0.7486 -0.1604
 2443TIP3    H231525   5.070   1.044   8.464 -2.2797 -0.5105 -0.9520
 2444TIP3   OH231526   5.389   2.223   6.468  0.6203  0.1126 -0.0940
 2444TIP3    H131527   5.436   2.249   6.389  1.7607  0.7983  0.7722
 2444TIP3    H231528   5.368   2.131   6.455 -0.6000  0.5873 -1.8424
 2445TIP3   OH231529   5.796   2.801   8.761 -0.2994 -0.3741 -0.6960
 2445TIP3    H131530   5.789   2.730   8.825 -1.2391  0.5847  0.3024
 2445TIP3    H231531   5.890   2.811   8.746 -0.0296 -0.3331  0.8768
 2446TIP3   OH231532   2.356   4.721   7.491  0.2328 -0.2048 -0.4189
 2446TIP3    H131533   2.304   4.724   7.411 -0.0347 -0.9419 -0.2854
 2446TIP3    H231534   2.295   4.692   7.559  0.4935  0.2585  0.0267
 2447TIP3   OH231535   4.508   4.253   6.916  0.3437 -0.1576 -0.7496
 2447TIP3    H131536   4.584   4.312   6.911  0.5701 -0.4565 -0.8825
 2447TIP3    H231537   4.455   4.288   6.987 -0.6175  1.5051 -2.2110
 2448TIP3   OH231538   2.971   4.195   8.792  0.2123  0.2017  0.3814
 2448TIP3    H131539   3.023   4.118   8.815  0.7968  1.0972  2.1821
 2448TIP3    H231540   3.035   4.263   8.772 -0.2975  0.5283 -0.1810
 2449TIP3   OH231541   5.412   5.679   9.394  0.2958 -0.1303 -0.7241
 2449TIP3    H131542   5.463   5.749   9.435  0.2848  0.0495 -1.0150
 2449TIP3    H231543   5.332   5.673   9.446  1.1076 -1.1941  0.4543
 2450TIP3   OH231544   6.847   7.401   7.573  0.7347 -0.1767  0.3269
 2450TIP3    H131545   6.894   7.370   7.651 -0.4049 -1.2259  0.6217
 2450TIP3    H231546   6.800   7.479   7.603 -1.5082 -1.8235  1.3815
 2451TIP3   OH231547   2.419   0.226   9.291 -0.3879  0.2196  0.1393
 2451TIP3    H131548   2.466   0.206   9.211 -0.7707 -1.6477  0.3460
 2451TIP3    H231549   2.483   0.211   9.361 -0.4582  0.4940  0.2659
 2452TIP3   OH231550   5.318   2.243   8.647  0.6464  0.1132 -0.3207
 2452TIP3    H131551   5.258   2.314   8.669  1.0761  0.1863  0.6633
 2452TIP3    H231552   5.393   2.286   8.606  0.8539  0.2173  0.1666
 2453TIP3   OH231553   7.103   4.693   9.455 -0.4039 -0.5526 -0.3006
 2453TIP3    H131554   7.071   4.743   9.380 -1.0576 -1.6233 -0.7614
 2453TIP3    H231555   7.190   4.730   9.473 -1.9119  2.6954  1.2178
 2454TIP3   OH231556   0.871   7.207   8.893 -0.6156  0.2156 -0.0851
 2454TIP3    H131557   0.948   7.159   8.861 -0.4078 -0.0619  0.8009
 2454TIP3    H231558   0.842   7.259   8.818  0.0826 -0.1298 -0.6037
 2455TIP3   OH231559   2.012   5.578   8.962  0.0769 -0.0888  0.4256
 2455TIP3    H131560   2.093   5.562   8.914 -0.3729 -1.1706 -0.0035
 2455TIP3    H231561   1.943   5.574   8.896 -0.3858  0.2232  0.8783
 2456TIP3   OH231562   2.629   1.199   9.041  0.4382  0.3718  0.2398
 2456TIP3    H131563   2.686   1.261   9.086  1.5555 -0.6631  0.2995
 2456TIP3    H231564   2.605   1.135   9.108  0.8313 -0.2969 -0.2387
 2457TIP3   OH231565   3.066   0.535   8.155  0.0222 -0.2006  0.3402
 2457TIP3    H131566   3.027   0.619   8.179 -1.0808 -1.0290  1.6369
 2457TIP3    H231567   3.124   0.514   8.229 -0.5621 -1.0826  0.5566
 2458TIP3   OH231568   4.419   5.312   8.725  0.3378  0.1497 -0.1644
 2458TIP3    H131569   4.369   5.240   8.763 -0.4499  1.3932  1.2738
 2458TIP3    H231570   4.351   5.372   8.693  0.9802  0.3085 -1.2668
 2459TIP3   OH231571   5.854   4.652   7.002  0.7944 -0.2430 -0.4712
 2459TIP3    H131572   5.911   4.691   6.936  3.0669 -0.4128  1.2591
 2459TIP3    H231573   5.778   4.620   6.952  1.8027  0.7212 -2.7815
 2460TIP3   OH231574   2.473   4.139   8.885 -0.1994  0.0909  0.6043
 2460TIP3    H131575   2.443   4.230   8.884 -1.0113 -0.1635  0.6393
 2460TIP3    H231576   2.399   4.089   8.850  1.0430 -0.3453 -1.5812
 2461TIP3   OH231577   1.438   1.860   8.987 -0.5657  0.1527 -0.0166
 2461TIP3    H131578   1.346   1.850   8.964 -0.7237  0.3930  0.5000
 2461TIP3    H231579   1.453   1.954   8.988 -0.4263  0.1294  0.3283
 2462TIP3   OH231580   0.237   3.452   6.652 -0.2719 -0.1539 -0.4263
 2462TIP3    H131581   0.308   3.450   6.588 -0.4089 -0.9970 -0.5681
 2462TIP3    H231582   0.165   3.405   6.609  0.3521 -2.7687  1.1315
 2463TIP3   OH231583   5.168   3.182   8.158 -0.4303 -0.9753  0.3028
 2463TIP3    H131584   5.102   3.225   8.103  0.3748 -0.0995  0.0017
 2463TIP3    H231585   5.245   3.176   8.102  0.5927  0.4314  1.4872
 2464TIP3   OH231586   2.865   6.555   9.506  0.1926  1.4566  0.3192
 2464TIP3    H131587   2.803   6.622   9.533  0.0396  1.0080  1.0889
 2464TIP3    H231588   2.941   6.604   9.473  0.2800  2.0121  1.3268
 2465TIP3   OH231589   0.685   5.731   7.662  0.2142  0.0766 -0.3937
 2465TIP3    H131590   0.597   5.719   7.626  0.0358 -0.1327  0.1107
 2465TIP3    H231591   0.744   5.704   7.591 -0.0833  1.7201 -1.3260
 2466TIP3   OH231592   5.232   0.733   7.988 -0.3260 -0.2026 -0.4177
 2466TIP3    H131593   5.301   0.666   7.993 -0.1526  0.0217  0.5246
 2466TIP3    H231594   5.257   0.788   7.913  2.0558  1.4609  1.4019
 2467TIP3   OH231595   6.801   2.429   6.828  0.0825 -0.1773 -0.3948
 2467TIP3    H131596   6.862   2.420   6.901  0.4454 -1.8842 -0.8534
 2467TIP3    H231597   6.855   2.419   6.749 -0.6893 -1.2167 -0.8174
 2468TIP3   OH231598   4.054   5.661   8.646  0.6772 -0.0490 -0.1406
 2468TIP3    H131599   4.110   5.587   8.669  0.5139  0.2078  1.1663
 2468TIP3    H231600   4.049   5.713   8.726 -0.0500  0.8275 -0.7358
 2469TIP3   OH231601   1.135   1.022   7.094 -0.3071  0.3554  0.1158
 2469TIP3    H131602   1.212   0.970   7.069  0.5237  1.0440  1.1350
 2469TIP3    H231603   1.172   1.106   7.120 -1.5844  1.3050 -1.0351
 2470TIP3   OH231604   4.574   1.510   8.873 -0.1259  0.1138  0.0714
 2470TIP3    H131605   4.607   1.563   8.801 -3.3820  0.9093 -1.0216
 2470TIP3    H231606   4.487   1.482   8.844 -0.7025 -1.3426  2.8475
 2471TIP3   OH231607   4.487   5.270   9.056 -0.4972 -0.0567  0.8887
 2471TIP3    H131608   4.532   5.231   8.981 -1.5801 -0.1155  0.2358
 2471TIP3    H231609   4.398   5.235   9.050 -1.3755  2.0971  0.5766
 2472TIP3   OH231610   7.416   1.814   8.613  0.3439  0.4301  0.1521
 2472TIP3    H131611   7.443   1.849   8.698  1.2995  0.3134 -0.0909
 2472TIP3    H231612   7.464   1.868   8.549  0.1667  0.0700 -0.2852
 2473TIP3   OH231613   6.652   0.495   8.441 -0.0423 -0.1392  0.3600
 2473TIP3    H131614   6.561   0.499   8.470  0.1375 -0.9248  1.0696
 2473TIP3    H231615   6.648   0.459   8.353 -0.4329  0.0782  0.2865
 2474TIP3   OH231616   4.863   2.819   7.233 -0.0881 -0.0736 -0.5629
 2474TIP3    H131617   4.835   2.744   7.181 -0.0795  1.6702 -3.2525
 2474TIP3    H231618   4.848   2.895   7.177 -1.3895  2.1719  2.5010
 2475TIP3   OH231619   4.342   1.493   8.221 -0.0477 -0.4203  0.4535
 2475TIP3    H131620   4.396   1.437   8.165  0.8600  0.3089  0.5738
 2475TIP3    H231621   4.363   1.464   8.310 -1.2458 -1.3594  0.4576
 2476TIP3   OH231622   2.841   1.058   6.980  0.2375 -0.2297 -0.2175
 2476TIP3    H131623   2.774   1.034   6.916  0.2325  0.2171 -0.3874
 2476TIP3    H231624   2.916   1.084   6.927  0.6359 -0.9657 -0.0235
 2477TIP3   OH231625   3.689   0.624   6.637  0.0679 -0.3715 -0.1521
 2477TIP3    H131626   3.615   0.675   6.603  0.3241 -0.1618 -0.4033
 2477TIP3    H231627   3.649   0.561   6.697 -0.0352  1.8553  2.2955
 2478TIP3   OH231628   0.176   3.012   9.285 -0.2467 -0.0286 -0.6048
 2478TIP3    H131629   0.082   3.012   9.304 -0.2957 -1.1715 -0.7719
 2478TIP3    H231630   0.211   3.085   9.336 -1.2734  0.6130 -0.7999
 2479TIP3   OH231631   6.080   6.201   7.668  0.1117  0.4009  0.4519
 2479TIP3    H131632   6.067   6.120   7.718  0.4751 -0.4472 -0.7749
 2479TIP3    H231633   6.156   6.242   7.708 -0.5295  0.5506  1.5770
 2480TIP3   OH231634   0.407   7.515   8.343  0.0540 -0.5109 -0.3337
 2480TIP3    H131635   0.460   7.482   8.415 -0.5019 -1.9847 -0.5605
 2480TIP3    H231636   0.344   7.445   8.326 -0.9565  0.5414 -1.0948
 2481TIP3   OH231637   1.363   1.445   9.449 -0.6970 -0.0969 -0.4425
 2481TIP3    H131638   1.426   1.515   9.466  0.8787 -1.5063 -0.2449
 2481TIP3    H231639   1.367   1.431   9.355  0.0231 -0.8457 -0.3043
 2482TIP3   OH231640   3.032   4.285   6.897  0.3138 -0.0211 -0.2233
 2482TIP3    H131641   3.071   4.372   6.897  0.1791  0.0571  0.8999
 2482TIP3    H231642   2.944   4.298   6.931  0.2638 -0.5757 -0.1251
 2483TIP3   OH231643   7.079   5.093   9.674 -0.3054  0.2719 -0.8930
 2483TIP3    H131644   7.029   5.023   9.635  0.9380  0.0755 -2.2168
 2483TIP3    H231645   7.015   5.143   9.725 -1.1822 -1.8842  0.2355
 2484TIP3   OH231646   6.083   1.947   7.187 -0.3278  0.2899 -0.1897
 2484TIP3    H131647   6.028   1.999   7.246 -1.3813  0.4034 -1.2327
 2484TIP3    H231648   6.054   1.972   7.099  0.4437 -0.6829 -0.7374
 2485TIP3   OH231649   2.443   0.678   6.673 -0.4720  0.1375 -0.0793
 2485TIP3    H131650   2.352   0.674   6.641 -0.5557  1.9374 -0.2082
 2485TIP3    H231651   2.495   0.697   6.595 -0.1582  0.3711  0.1830
 2486TIP3   OH231652   5.221   1.546   8.014  0.0777 -0.4095 -0.5018
 2486TIP3    H131653   5.295   1.497   8.048 -0.1433 -0.6019 -0.2963
 2486TIP3    H231654   5.245   1.638   8.026 -0.0975 -0.4756  0.3836
 2487TIP3   OH231655   3.359   3.901   7.879 -0.3893  0.1356  0.2305
 2487TIP3    H131656   3.321   3.900   7.967  0.5847  3.0840  0.7981
 2487TIP3    H231657   3.451   3.875   7.892 -0.2959  0.3827  0.0860
 2488TIP3   OH231658   6.208   5.199   9.585 -0.5627 -0.3188  1.1577
 2488TIP3    H131659   6.277   5.137   9.612  2.0274  2.3798  1.2142
 2488TIP3    H231660   6.223   5.212   9.492 -0.5699  0.7365  1.2897
 2489TIP3   OH231661   4.379   3.840   7.217  0.2130 -0.3009  0.0399
 2489TIP3    H131662   4.396   3.822   7.125  3.5367 -0.3447  0.5480
 2489TIP3    H231663   4.358   3.933   7.221 -0.0526 -0.3239 -0.7418
 2490TIP3   OH231664   4.632   2.321   8.207 -0.3993 -0.2660 -0.0738
 2490TIP3    H131665   4.540   2.314   8.182 -0.5077 -0.3741  0.3547
 2490TIP3    H231666   4.632   2.318   8.302  0.1298 -1.2317 -0.0919
 2491TIP3   OH231667   5.301   3.408   9.071 -1.1323 -0.1377  0.0415
 2491TIP3    H131668   5.237   3.468   9.034  1.2974  2.3148 -0.5350
 2491TIP3    H231669   5.380   3.461   9.082  0.4256 -2.6175  1.9899
 2492TIP3   OH231670   3.899   5.141   8.145 -0.2784 -0.2208  1.2968
 2492TIP3    H131671   3.919   5.066   8.088  0.3633  0.7859  0.1464
 2492TIP3    H231672   3.846   5.104   8.216 -1.2015 -1.5065 -0.0083
 2493TIP3   OH231673   0.393   3.133   7.621  0.3160  0.1821  0.2759
 2493TIP3    H131674   0.452   3.165   7.553 -0.6965 -0.0052 -0.7179
 2493TIP3    H231675   0.408   3.039   7.624  0.0568  0.1304  0.0035
 2494TIP3   OH231676   4.542   2.720   7.429 -0.1809  0.1564  0.5634
 2494TIP3    H131677   4.620   2.715   7.485  0.6980 -0.9836 -0.6946
 2494TIP3    H231678   4.553   2.801   7.380 -0.3580  0.5675  1.2010
 2495TIP3   OH231679   0.287   1.771   6.983  0.2696  0.4631 -0.1265
 2495TIP3    H131680   0.300   1.726   6.900  0.0170 -1.9889  1.0792
 2495TIP3    H231681   0.358   1.740   7.039 -0.3407  0.9903  0.9802
 2496TIP3   OH231682   4.973   1.226   7.235 -0.4562 -0.0029  0.3704
 2496TIP3    H131683   5.013   1.182   7.310  0.9377 -0.6316 -0.7103
 2496TIP3    H231684   4.985   1.165   7.162 -0.6903  1.1238 -0.6379
 2497TIP3   OH231685   1.201   5.774   7.725 -0.1194  0.2413 -0.3402
 2497TIP3    H131686   1.192   5.696   7.671 -0.4962 -0.4874  0.7471
 2497TIP3    H231687   1.159   5.844   7.675  0.0136 -0.2992 -1.2139
 2498TIP3   OH231688   7.642   4.662   7.492 -0.3676  0.3305 -0.3524
 2498TIP3    H131689   7.735   4.644   7.479 -0.4541 -0.1568 -0.3255
 2498TIP3    H231690   7.606   4.666   7.403 -0.6135 -1.1056 -0.3302
 2499TIP3   OH231691   7.225   7.326   9.063  0.6982  0.5335 -0.5262
 2499TIP3    H131692   7.307   7.279   9.045  0.6703  0.6983 -1.1276
 2499TIP3    H231693   7.236   7.411   9.019  0.5481  0.8958  0.1265
 2500TIP3   OH231694   0.746   4.784   7.244  0.2871 -0.5264 -0.0593
 2500TIP3    H131695   0.790   4.726   7.307 -0.2118 -0.9776 -0.1218
 2500TIP3    H231696   0.676   4.730   7.207  0.3219 -0.1367 -0.7086
 2501TIP3   OH231697   6.886   2.257   7.015 -0.5590 -0.3495  0.4388
 2501TIP3    H131698   6.911   2.175   7.059  0.0325 -0.6728 -0.4772
 2501TIP3    H231699   6.790   2.256   7.016 -0.5787 -0.1715  2.0174
 2502TIP3   OH231700   4.603   2.286   8.494 -0.1544 -0.4165  0.2754
 2502TIP3    H131701   4.560   2.369   8.514 -2.4143 -1.4924  0.2003
 2502TIP3    H231702   4.584   2.230   8.569  1.4884 -0.8405  0.4053
 2503TIP3   OH231703   0.069   0.965   7.639  0.0416 -0.1651 -0.8429
 2503TIP3    H131704   0.151   1.015   7.646  0.9739 -1.8409  2.3059
 2503TIP3    H231705   0.097   0.875   7.625 -1.3644 -0.5147 -1.5440
 2504TIP3   OH231706   2.582   1.291   8.147  0.2143 -0.2398  0.1378
 2504TIP3    H131707   2.532   1.372   8.143  0.4384 -0.1518 -1.1386
 2504TIP3    H231708   2.674   1.318   8.145  0.3144 -0.4606  1.2525
 2505TIP3   OH231709   1.719   1.420   9.433  0.8942 -0.3254 -0.2167
 2505TIP3    H131710   1.730   1.506   9.474  0.3608 -1.0280  1.5055
 2505TIP3    H231711   1.625   1.407   9.428  0.9696 -0.9012 -0.2437
 2506TIP3   OH231712   1.612   4.678   9.366  0.0674 -0.5040 -0.2098
 2506TIP3    H131713   1.575   4.746   9.310  1.6950 -1.8008 -3.1018
 2506TIP3    H231714   1.536   4.637   9.408 -1.0904  1.5590 -0.1389
 2507TIP3   OH231715   5.690   3.263   6.875 -0.3085  0.0016 -0.2388
 2507TIP3    H131716   5.618   3.300   6.823  1.5962  3.5372 -0.7005
 2507TIP3    H231717   5.762   3.253   6.813  1.2056  1.8265  1.0755
 2508TIP3   OH231718   1.339   2.856   7.143  0.1419 -0.3607  0.0977
 2508TIP3    H131719   1.337   2.862   7.047 -2.2846 -0.6913  0.0662
 2508TIP3    H231720   1.356   2.946   7.172  2.9377 -0.5743 -0.5841
 2509TIP3   OH231721   5.297   2.459   6.599 -0.0185 -0.3608  0.0023
 2509TIP3    H131722   5.294   2.412   6.682 -1.3593 -2.8067 -1.3299
 2509TIP3    H231723   5.315   2.392   6.533 -2.7173  0.7535 -2.0781
 2510TIP3   OH231724   1.624   2.566   8.458  0.4224 -0.3935  0.1667
 2510TIP3    H131725   1.694   2.502   8.470  0.9768  0.3613  1.1369
 2510TIP3    H231726   1.670   2.650   8.449 -0.2253 -0.2434 -2.3520
 2511TIP3   OH231727   1.100   6.564   6.906 -0.5561 -0.1329  0.4203
 2511TIP3    H131728   1.071   6.636   6.962  0.6238 -1.0535  2.3178
 2511TIP3    H231729   1.124   6.494   6.967  0.3779 -1.3626 -1.2659
 2512TIP3   OH231730   0.434   5.050   6.927  0.3161 -0.2994  0.1173
 2512TIP3    H131731   0.495   4.978   6.914 -0.9047 -1.2705 -0.4518
 2512TIP3    H231732   0.476   5.125   6.885  1.8592 -0.5199  1.2000
 2513TIP3   OH231733   7.281   1.565   7.346  0.0408 -0.3494 -0.1113
 2513TIP3    H131734   7.306   1.495   7.285  0.9193  0.8619 -1.1731
 2513TIP3    H231735   7.293   1.525   7.433  1.7269 -1.1467 -0.6596
 2514TIP3   OH231736   4.485   2.563   8.793  0.1777  0.3179 -0.1727
 2514TIP3    H131737   4.509   2.537   8.704 -0.4636 -1.0238  0.0177
 2514TIP3    H231738   4.390   2.561   8.794  0.1694  0.6832  0.4478
 2515TIP3   OH231739   2.376   2.223   7.971 -0.2098 -0.0686 -0.9182
 2515TIP3    H131740   2.292   2.191   8.004  0.1782 -0.9536 -0.7626
 2515TIP3    H231741   2.373   2.318   7.985 -0.9859 -0.1510 -0.4757
 2516TIP3   OH231742   0.372   3.036   6.981  0.1510 -0.3125 -0.3344
 2516TIP3    H131743   0.406   2.947   6.994 -0.0999 -0.1726  1.7054
 2516TIP3    H231744   0.426   3.091   7.038 -0.3116  0.6855 -0.8274
 2517TIP3   OH231745   2.360   0.919   7.984 -0.1425  0.2289  0.1228
 2517TIP3    H131746   2.363   1.009   7.952  0.2688 -0.2399 -1.2180
 2517TIP3    H231747   2.359   0.865   7.905  0.2064 -0.9680  0.9049
 2518TIP3   OH231748   0.232   0.959   7.075  0.0085  0.2454 -0.1526
 2518TIP3    H131749   0.276   0.937   6.993  0.1900 -1.1351  0.2861
 2518TIP3    H231750   0.272   0.901   7.139 -0.3127  1.1317  0.8708
 2519TIP3   OH231751   0.189   3.674   7.265 -0.6175  0.0735 -0.2615
 2519TIP3    H131752   0.170   3.737   7.334 -1.3266  0.1775 -0.5455
 2519TIP3    H231753   0.244   3.723   7.203  0.4656 -0.1721  0.4626
 2520TIP3   OH231754   3.008   3.946   7.810 -0.0124  0.0324  0.0785
 2520TIP3    H131755   3.069   3.999   7.861 -1.7908  1.8688  0.4041
 2520TIP3    H231756   3.031   3.964   7.719  0.7915 -0.3744  0.1914
 2521TIP3   OH231757   2.319   6.871   8.612 -0.0547 -0.6418 -0.1651
 2521TIP3    H131758   2.261   6.912   8.675 -0.3746 -2.8332  1.0700
 2521TIP3    H231759   2.261   6.823   8.553  0.3954 -1.2002 -0.1679
 2522TIP3   OH231760   6.810   7.663   6.843  0.8184  0.0760 -0.0477
 2522TIP3    H131761   6.754   7.634   6.915  1.6304 -0.1561  0.5076
 2522TIP3    H231762   6.763   7.638   6.764 -0.1853  0.5269  0.3982
 2523TIP3   OH231763   6.529   1.418   9.064 -0.4430 -0.1110 -0.0319
 2523TIP3    H131764   6.481   1.474   9.125  0.4569  1.3979 -0.6429
 2523TIP3    H231765   6.462   1.364   9.022 -1.3631  0.6351  0.4592
 2524TIP3   OH231766   5.474   7.405   7.603 -0.4651  0.0257 -0.8427
 2524TIP3    H131767   5.471   7.475   7.538  0.5917  0.1553 -0.7759
 2524TIP3    H231768   5.560   7.415   7.645 -0.3522 -1.2114 -0.7358
 2525TIP3   OH231769   2.621   0.451   8.719 -0.0160  0.1210  0.6010
 2525TIP3    H131770   2.611   0.547   8.717  1.1030  0.3311  2.6668
 2525TIP3    H231771   2.548   0.421   8.772  0.0325 -0.1149  0.5324
 2526TIP3   OH231772   6.627   1.845   8.898 -0.1450  0.0531  0.8228
 2526TIP3    H131773   6.709   1.824   8.942 -0.8342 -1.6718  1.3364
 2526TIP3    H231774   6.633   1.939   8.882  1.1387  0.2994  2.4669
 2527TIP3   OH231775   0.826   4.964   7.445 -0.4077 -0.1101  0.4090
 2527TIP3    H131776   0.830   4.916   7.363  1.2294 -1.7605  1.3810
 2527TIP3    H231777   0.844   5.055   7.421  0.1075 -0.5699 -1.0381
 2528TIP3   OH231778   0.506   5.819   8.051 -0.3561  0.2044 -0.2940
 2528TIP3    H131779   0.416   5.825   8.083 -0.3532 -1.6508  0.1674
 2528TIP3    H231780   0.532   5.729   8.069  1.2495  0.4116 -1.3737
 2529TIP3   OH231781   5.105   0.616   8.505  0.0795 -0.2368  0.1001
 2529TIP3    H131782   5.097   0.521   8.504  0.5157 -0.3138  1.6879
 2529TIP3    H231783   5.120   0.640   8.413  0.0656 -1.6918 -0.3028
 2530TIP3   OH231784   0.149   6.323   7.830  0.7729  0.1090 -0.4203
 2530TIP3    H131785   0.067   6.308   7.782 -0.7867  2.1059  1.3920
 2530TIP3    H231786   0.193   6.238   7.830 -1.7236 -1.2836 -0.7205
 2531TIP3   OH231787   7.200   6.545   8.412 -0.9063  0.8155  0.1888
 2531TIP3    H131788   7.281   6.587   8.383 -1.8329  1.7631 -1.1362
 2531TIP3    H231789   7.198   6.560   8.507  0.5644  0.5725  0.2768
 2532TIP3   OH231790   1.038   1.920   8.376  0.4555  0.5298  0.2035
 2532TIP3    H131791   0.998   1.939   8.460  1.0943  2.5634  0.1039
 2532TIP3    H231792   0.970   1.875   8.326 -0.2646  0.2034  1.4521
 2533TIP3   OH231793   6.278   3.075   8.397 -0.2153  0.4501 -0.5581
 2533TIP3    H131794   6.356   3.027   8.369 -0.7123 -1.8821  1.7877
 2533TIP3    H231795   6.205   3.032   8.352 -0.7344 -1.6639  2.0386
 2534TIP3   OH231796   6.075   2.252   7.658  0.1158 -0.5636 -0.2875
 2534TIP3    H131797   6.041   2.165   7.636  0.4016 -0.3207 -1.7855
 2534TIP3    H231798   6.140   2.271   7.590  0.7086  0.4568  0.5263
 2535TIP3   OH231799   4.144   5.331   7.616 -0.0158 -0.3477 -0.1748
 2535TIP3    H131800   4.226   5.302   7.575 -0.5134 -2.4604  0.2415
 2535TIP3    H231801   4.077   5.315   7.549 -0.2747  0.1359 -0.0341
 2536TIP3   OH231802   3.412   5.818   9.375  0.4115 -0.6516  0.1528
 2536TIP3    H131803   3.334   5.798   9.428  1.8112 -1.2147  2.1044
 2536TIP3    H231804   3.426   5.738   9.324  0.8187 -1.3076  1.2640
 2537TIP3   OH231805   1.086   4.952   7.863  0.5923  0.7338  0.0637
 2537TIP3    H131806   1.172   4.948   7.906 -0.0418  0.9948  1.4151
 2537TIP3    H231807   1.028   4.991   7.929 -0.4511  1.0694 -1.0192
 2538TIP3   OH231808   1.350   7.460   8.122  0.4254  0.3133 -0.6149
 2538TIP3    H131809   1.432   7.466   8.072  1.1370 -0.1700  0.4501
 2538TIP3    H231810   1.295   7.529   8.086  1.4096  0.8460 -1.1506
 2539TIP3   OH231811   3.284   0.877   9.350 -0.4777 -0.4815 -0.0070
 2539TIP3    H131812   3.364   0.828   9.369  0.1737 -0.1821 -1.7663
 2539TIP3    H231813   3.219   0.810   9.332  0.0176 -0.7478 -0.8957
 2540TIP3   OH231814   6.505   0.131   8.196  0.1057  0.0579 -0.1125
 2540TIP3    H131815   6.554   0.086   8.128  0.2648 -1.0138  0.6758
 2540TIP3    H231816   6.546   0.217   8.204  0.5452 -0.0836 -0.8536
 2541TIP3   OH231817   5.866   2.522   7.123  0.0970  0.3503 -0.3171
 2541TIP3    H131818   5.826   2.481   7.200 -0.3595 -1.0094 -1.2338
 2541TIP3    H231819   5.825   2.608   7.118  2.2200  1.6829  2.5615
 2542TIP3   OH231820   7.403   0.680   8.983 -0.1197  0.2300  0.2571
 2542TIP3    H131821   7.321   0.651   8.944 -0.7681 -3.1804  3.4869
 2542TIP3    H231822   7.376   0.728   9.062  1.0097  0.5519  0.4647
 2543TIP3   OH231823   0.630   1.291   8.395 -0.0167  0.6121  0.2262
 2543TIP3    H131824   0.552   1.259   8.347 -0.5825  1.5284  0.5184
 2543TIP3    H231825   0.660   1.214   8.443 -0.6621  0.2015  0.0012
 2544TIP3   OH231826   6.639   3.549   7.482 -0.0400 -0.0378 -0.0482
 2544TIP3    H131827   6.580   3.573   7.410 -1.7368  0.6423  1.4942
 2544TIP3    H231828   6.716   3.513   7.438 -0.2116  2.0263 -2.2910
 2545TIP3   OH231829   1.066   1.195   9.053  0.4698  0.0981  0.0970
 2545TIP3    H131830   1.137   1.164   9.108  0.7405 -2.6511 -1.5819
 2545TIP3    H231831   0.988   1.188   9.108  1.2174  1.5241  1.4067
 2546TIP3   OH231832   6.924   0.416   8.310 -0.3720 -0.3148 -0.0077
 2546TIP3    H131833   6.902   0.353   8.379  1.4311 -1.1523 -0.1480
 2546TIP3    H231834   7.014   0.441   8.328 -0.8927  1.9434 -0.2288
 2547TIP3   OH231835   1.491   1.156   8.819  0.4875  0.3276 -0.0745
 2547TIP3    H131836   1.460   1.197   8.900 -0.8636 -0.6333 -0.0758
 2547TIP3    H231837   1.506   1.230   8.760 -0.9306  0.9128  0.2461
 2548TIP3   OH231838   5.126   6.830   8.550  0.1752 -0.0759  0.0205
 2548TIP3    H131839   5.110   6.782   8.632 -0.1944 -0.0047 -0.0054
 2548TIP3    H231840   5.046   6.882   8.538  0.4329  0.2889 -0.1264
 2549TIP3   OH231841   6.492   2.312   8.081 -0.1739  0.2337 -0.3786
 2549TIP3    H131842   6.478   2.313   7.986  1.2746 -0.0401 -0.6271
 2549TIP3    H231843   6.501   2.404   8.105 -1.8624  0.3997 -0.2548
 2550TIP3   OH231844   6.967   5.444   8.610 -0.1571 -0.0074  0.8636
 2550TIP3    H131845   6.905   5.512   8.582  0.9475  0.6728 -0.0286
 2550TIP3    H231846   6.914   5.381   8.658 -1.6485  0.2578 -0.3633
 2551TIP3   OH231847   1.035   1.077   6.358  0.0436  0.0281  0.3902
 2551TIP3    H131848   1.035   1.016   6.284 -0.4349 -1.2693  1.4091
 2551TIP3    H231849   0.967   1.140   6.337  1.8539  1.4836 -1.6172
 2552TIP3   OH231850   3.192   3.312   8.007  0.1780 -0.0039 -0.3597
 2552TIP3    H131851   3.154   3.309   7.919 -1.7910  1.9079  0.3361
 2552TIP3    H231852   3.214   3.404   8.020  0.0149 -0.1758  1.3124
 2553TIP3   OH231853   0.504   1.865   7.789  0.3800 -1.0160 -0.5178
 2553TIP3    H131854   0.540   1.830   7.871 -1.0382  3.2758  2.2754
 2553TIP3    H231855   0.419   1.822   7.780  0.8831 -2.1198 -0.2747
 2554TIP3   OH231856   1.385   2.950   9.392 -0.2909 -0.2208  0.2353
 2554TIP3    H131857   1.359   3.037   9.422 -0.2494 -0.2287  0.2940
 2554TIP3    H231858   1.473   2.961   9.357  0.4934 -0.6106  1.9857
 2555TIP3   OH231859   1.147   4.681   7.997  0.0870 -0.2344 -0.1026
 2555TIP3    H131860   1.066   4.629   8.000  0.8607 -1.4732 -0.0416
 2555TIP3    H231861   1.152   4.722   8.084 -0.9739  0.6459 -0.4465
 2556TIP3   OH231862   2.860   3.312   8.482  0.3691 -0.1972  0.6763
 2556TIP3    H131863   2.937   3.344   8.436  0.8236 -2.2271 -0.1021
 2556TIP3    H231864   2.819   3.390   8.518  1.3977  1.2104 -1.0431
 2557TIP3   OH231865   5.252   3.805   7.221 -0.2090  0.4354  0.2578
 2557TIP3    H131866   5.201   3.772   7.147  1.3085 -1.3271 -0.0771
 2557TIP3    H231867   5.263   3.729   7.278  1.9412  0.7459  0.3348
 2558TIP3   OH231868   5.624   4.885   9.692  0.1010  0.1765 -0.6627
 2558TIP3    H131869   5.647   4.794   9.710 -1.1542 -0.0160  0.1060
 2558TIP3    H231870   5.528   4.886   9.694  0.0663  1.2954 -1.8072
 2559TIP3   OH231871   1.988   0.776   8.027  0.2606  0.3939  0.0885
 2559TIP3    H131872   1.909   0.820   7.996  1.5922  1.3628 -2.1512
 2559TIP3    H231873   2.027   0.837   8.090  0.2310  0.8095 -0.2930
 2560TIP3   OH231874   3.710   3.570   8.760  0.5410  0.3985  0.2378
 2560TIP3    H131875   3.618   3.595   8.768  1.0384  2.6012 -0.3158
 2560TIP3    H231876   3.718   3.491   8.813 -1.6474  0.1916  0.3475
 2561TIP3   OH231877   2.401   1.390   8.874 -0.0019 -0.0581  0.3918
 2561TIP3    H131878   2.404   1.442   8.794 -0.1770 -1.0312 -0.2735
 2561TIP3    H231879   2.468   1.428   8.930 -0.0524  0.7996 -0.1156
 2562TIP3   OH231880   6.464   5.744   8.596 -0.9172 -0.4067 -0.4338
 2562TIP3    H131881   6.442   5.727   8.504  1.1589  3.7145 -1.9340
 2562TIP3    H231882   6.383   5.777   8.634 -1.1994  0.1887 -1.4986
 2563TIP3   OH231883   0.305   5.351   8.002  0.3366 -0.3976 -0.2690
 2563TIP3    H131884   0.213   5.375   8.012 -0.0959 -1.2848 -1.8399
 2563TIP3    H231885   0.345   5.429   7.964  0.2824  0.0420  0.5497
 2564TIP3   OH231886   0.685   6.870   7.687 -0.5409 -0.6381  0.5672
 2564TIP3    H131887   0.754   6.892   7.749 -0.6712 -0.1572  0.5437
 2564TIP3    H231888   0.645   6.791   7.722  0.5701 -1.4174  0.1440
 2565TIP3   OH231889   6.363   7.239   7.001  0.3495 -0.2649  0.1313
 2565TIP3    H131890   6.455   7.221   6.979  0.7869  1.4681  0.4112
 2565TIP3    H231891   6.366   7.280   7.087 -0.5609  0.8763 -0.3541
 2566TIP3   OH231892   4.675   1.617   8.289 -0.9831 -0.5337 -0.1054
 2566TIP3    H131893   4.770   1.618   8.277 -0.8951 -3.8901 -0.6047
 2566TIP3    H231894   4.663   1.611   8.384 -0.6588 -1.2901 -0.1130
 2567TIP3   OH231895   5.048   6.495   8.551  0.1410  0.0583  0.2239
 2567TIP3    H131896   5.084   6.551   8.620  1.0281 -0.4207  0.1634
 2567TIP3    H231897   5.002   6.555   8.493  1.4149  0.7926 -0.0625
 2568TIP3   OH231898   7.577   4.554   8.803  0.4621 -0.4618  0.3165
 2568TIP3    H131899   7.602   4.562   8.711  1.2350  0.1600  0.5669
 2568TIP3    H231900   7.587   4.461   8.822 -0.0234 -0.6507 -0.3111
 2569TIP3   OH231901   6.706   3.650   8.036 -0.1365  0.0329 -0.1237
 2569TIP3    H131902   6.766   3.602   7.979  0.7085  0.9879 -0.0671
 2569TIP3    H231903   6.679   3.586   8.102  1.1742 -0.2959  0.1174
 2570TIP3   OH231904   4.812   7.438   8.477 -0.3900 -0.2589  0.4246
 2570TIP3    H131905   4.875   7.509   8.464 -0.4452  0.0511  1.7676
 2570TIP3    H231906   4.752   7.447   8.403  0.3995  0.2283 -0.1767
 2571TIP3   OH231907   2.155   0.981   8.144  0.2301  0.3530  0.0755
 2571TIP3    H131908   2.243   0.948   8.123 -0.0619 -0.5029  0.1474
 2571TIP3    H231909   2.133   1.038   8.070  0.1386 -0.8169 -0.8282
 2572TIP3   OH231910   1.362   5.687   9.242  0.3777  0.3965 -0.2739
 2572TIP3    H131911   1.387   5.664   9.152 -1.0665  0.4291 -0.7088
 2572TIP3    H231912   1.390   5.612   9.294 -0.4188 -0.4672 -1.0417
 2573TIP3   OH231913   5.430   2.436   8.440  0.0781 -0.5963  0.2150
 2573TIP3    H131914   5.508   2.472   8.397 -0.1447  0.1503  0.4291
 2573TIP3    H231915   5.374   2.512   8.455 -1.3186 -1.2913 -1.2243
 2574TIP3   OH231916   5.853   5.893   8.528  0.4116  0.0515 -0.6251
 2574TIP3    H131917   5.863   5.843   8.609  0.0308  1.0382  0.0538
 2574TIP3    H231918   5.904   5.973   8.542  0.6840  0.0523 -1.5300
 2575TIP3   OH231919   6.890   5.638   9.256 -0.0110 -0.2116 -0.1694
 2575TIP3    H131920   6.905   5.545   9.272 -0.7551 -0.2158  0.5217
 2575TIP3    H231921   6.818   5.662   9.314 -0.4550  0.5845 -1.0157
 2576TIP3   OH231922   5.519   2.795   8.755 -0.1069 -0.0755 -0.0213
 2576TIP3    H131923   5.471   2.838   8.684  0.0016  0.5524  0.2803
 2576TIP3    H231924   5.610   2.826   8.744 -0.1402  0.2371  0.5447
 2577TIP3   OH231925   6.117   7.287   6.606 -0.3956  0.1006  0.4567
 2577TIP3    H131926   6.090   7.217   6.546 -2.4292  2.7138 -1.9761
 2577TIP3    H231927   6.189   7.331   6.561  0.6814 -0.1828  1.8299
 2578TIP3   OH231928   6.110   6.952   6.949 -0.8071 -0.6456 -0.3418
 2578TIP3    H131929   6.142   6.891   6.881  1.1879 -0.6919  0.5676
 2578TIP3    H231930   6.110   7.037   6.905 -0.5325 -0.8295 -0.7152
 2579TIP3   OH231931   4.983   1.631   9.337  0.0783 -1.0334  0.3801
 2579TIP3    H131932   4.954   1.557   9.283  0.1065 -1.1124  0.4729
 2579TIP3    H231933   5.027   1.689   9.275  0.8352 -1.5143  0.4546
 2580TIP3   OH231934   3.517   6.001   7.318 -0.0469  0.7800  0.5815
 2580TIP3    H131935   3.455   6.059   7.362 -2.6893 -2.3272  1.3109
 2580TIP3    H231936   3.586   5.986   7.382 -1.6581 -0.3203  2.1468
 2581TIP3   OH231937   4.178   6.176   8.843 -0.2578 -0.1739  0.3383
 2581TIP3    H131938   4.111   6.172   8.912  0.3937 -0.4663  0.9689
 2581TIP3    H231939   4.253   6.132   8.881  0.8149  1.4849  0.2378
 2582TIP3   OH231940   7.156   2.835   9.469  0.5055 -0.0382  0.3618
 2582TIP3    H131941   7.212   2.874   9.402 -0.6199 -0.6238 -0.9649
 2582TIP3    H231942   7.159   2.741   9.451 -0.4091 -0.1338  0.6631
 2583TIP3   OH231943   7.137   3.629   8.766 -0.1860  0.3539 -0.2731
 2583TIP3    H131944   7.118   3.720   8.787  0.5723  1.0037 -2.1643
 2583TIP3    H231945   7.125   3.623   8.671 -0.8955 -1.6970 -0.1066
 2584TIP3   OH231946   6.972   0.047   8.699  0.0834  0.0140 -0.2758
 2584TIP3    H131947   7.057   0.007   8.714  0.2416  0.9211  1.6220
 2584TIP3    H231948   6.922   0.029   8.779 -1.3000  0.0043 -1.1055
 2585TIP3   OH231949   6.721   4.693   8.591  0.3675 -0.2230  0.3110
 2585TIP3    H131950   6.781   4.644   8.536 -0.6339 -0.4410 -0.6183
 2585TIP3    H231951   6.687   4.628   8.653  1.0447 -0.1029  0.8261
 2586TIP3   OH231952   6.956   2.509   6.629  0.5747  0.0886 -0.3129
 2586TIP3    H131953   7.050   2.515   6.641  0.7290 -1.3465 -0.5815
 2586TIP3    H231954   6.943   2.509   6.534  0.5109 -1.7730 -0.3356
 2587TIP3   OH231955   6.248   1.997   7.516  0.5022 -0.6376  0.4608
 2587TIP3    H131956   6.303   2.010   7.593  1.4476  1.5308 -0.4883
 2587TIP3    H231957   6.234   2.085   7.482  0.8614 -1.5743 -2.3433
 2588TIP3   OH231958   2.946   7.416   7.641 -0.2558 -0.5202  0.0181
 2588TIP3    H131959   3.010   7.404   7.570 -0.5038  1.0673 -0.5036
 2588TIP3    H231960   2.908   7.502   7.625 -1.4151 -0.7740  1.2292
 2589TIP3   OH231961   7.273   5.385   7.666 -0.2608  0.0395  0.7118
 2589TIP3    H131962   7.301   5.317   7.606 -1.4526 -0.4741  0.7115
 2589TIP3    H231963   7.265   5.341   7.751 -0.1364  0.3938  0.9118
 2590TIP3   OH231964   3.881   0.066   6.784 -0.3555 -0.4023 -0.0810
 2590TIP3    H131965   3.870   0.063   6.689  0.7160 -0.3787 -0.2177
 2590TIP3    H231966   3.794   0.089   6.818 -0.7835 -0.5785 -1.0413
 2591TIP3   OH231967   2.817   6.171   7.970 -0.3242  0.1421 -0.0655
 2591TIP3    H131968   2.871   6.093   7.980  0.2959  0.5665 -0.0617
 2591TIP3    H231969   2.772   6.159   7.887  0.0378 -0.0627 -0.2351
 2592TIP3   OH231970   2.777   3.129   9.330  0.0666 -0.2349 -0.3888
 2592TIP3    H131971   2.811   3.052   9.374  2.7967  0.8715 -0.3282
 2592TIP3    H231972   2.813   3.124   9.241 -1.3420  0.0129 -1.0059
 2593TIP3   OH231973   5.113   6.916   8.162  0.3457  0.2934  0.0173
 2593TIP3    H131974   5.196   6.955   8.190  0.9621  0.1757 -1.5727
 2593TIP3    H231975   5.048   6.984   8.180  0.6901  0.2312  1.6736
 2594TIP3   OH231976   4.383   7.241   8.274  0.0197 -0.1226 -0.1331
 2594TIP3    H131977   4.344   7.156   8.254 -0.4124 -0.3788  1.6102
 2594TIP3    H231978   4.447   7.256   8.205 -1.4740 -0.8141 -1.7183
 2595TIP3   OH231979   6.891   4.426   7.275 -0.0741  0.2889  0.3844
 2595TIP3    H131980   6.824   4.449   7.211  1.2348  1.3704 -0.6708
 2595TIP3    H231981   6.849   4.363   7.333 -1.0497 -1.5387 -2.1476
 2596TIP3   OH231982   5.152   6.711   7.968  0.3207 -0.3152  0.1671
 2596TIP3    H131983   5.172   6.757   7.886 -0.2792 -2.2947 -1.1732
 2596TIP3    H231984   5.140   6.781   8.032  0.2449  1.3452 -1.5547
 2597TIP3   OH231985   2.828   2.176   9.465 -0.8166  0.1825 -0.2531
 2597TIP3    H131986   2.864   2.187   9.553  2.3701 -3.9419 -0.6933
 2597TIP3    H231987   2.878   2.237   9.411 -1.6633  1.5986  0.5066
 2598TIP3   OH231988   0.486   6.865   8.445 -0.0452 -0.4685 -0.7028
 2598TIP3    H131989   0.525   6.806   8.510 -1.5890 -0.6402  0.1269
 2598TIP3    H231990   0.488   6.816   8.363 -0.6051 -1.3831 -0.1836
 2599TIP3   OH231991   0.760   3.822   9.152 -0.0287 -0.3108  0.0922
 2599TIP3    H131992   0.845   3.856   9.124  0.2446 -2.1357 -1.5108
 2599TIP3    H231993   0.776   3.791   9.242  0.5963  0.6266  0.3225
 2600TIP3   OH231994   0.099   1.553   7.415 -0.0361  0.1062  0.5910
 2600TIP3    H131995   0.066   1.552   7.505  0.4798 -0.0801  0.7816
 2600TIP3    H231996   0.084   1.642   7.385 -0.6964  0.0300  0.6778
 2601TIP3   OH231997   5.359   3.193   7.942 -0.3776  0.3782  0.1140
 2601TIP3    H131998   5.291   3.243   7.897 -0.3733  0.7871  0.5527
 2601TIP3    H231999   5.379   3.121   7.882 -0.4804  0.8217 -0.4640
 2602TIP3   OH232000   4.826   6.649   8.407  0.3195 -0.3944  0.0920
 2602TIP3    H132001   4.759   6.584   8.388 -0.8713  0.0365  2.4659
 2602TIP3    H232002   4.847   6.687   8.322 -0.8199 -2.0904 -1.0001
 2603TIP3   OH232003   2.714   7.647   9.230  0.1309  0.0506 -0.1168
 2603TIP3    H132004   2.806   7.674   9.222  0.0644  0.8550  1.4429
 2603TIP3    H232005   2.717   7.570   9.286 -0.1406 -0.0452 -0.2328
 2604TIP3   OH232006   2.106   5.681   7.660  0.0349 -0.2475  0.2237
 2604TIP3    H132007   2.081   5.608   7.717  0.3467 -0.9648 -0.5516
 2604TIP3    H232008   2.152   5.641   7.586  0.7387  0.7779  0.0689
 2605TIP3   OH232009   7.300   2.219   8.308 -0.5670 -0.1621  0.8061
 2605TIP3    H132010   7.278   2.126   8.299  0.9698 -0.3758 -1.4548
 2605TIP3    H232011   7.311   2.232   8.402  2.0653 -3.0074  1.0232
 2606TIP3   OH232012   6.645   2.191   9.279  1.1545 -0.3353 -0.1428
 2606TIP3    H132013   6.634   2.277   9.239 -0.3831 -0.3792  0.1152
 2606TIP3    H232014   6.739   2.172   9.271  1.6542  1.6760  0.4441
 2607TIP3   OH232015   0.378   4.391   7.757  0.5415  0.3227 -0.5672
 2607TIP3    H132016   0.433   4.469   7.768  2.5678 -0.9447 -1.1124
 2607TIP3    H232017   0.430   4.319   7.793 -1.0969 -0.8621 -0.4296
 2608TIP3   OH232018   0.112   2.890   7.652 -0.4858 -0.2408  0.0167
 2608TIP3    H132019   0.057   2.935   7.717  0.5749 -0.4490  1.1007
 2608TIP3    H232020   0.126   2.955   7.584  0.2339  0.7766  1.0958
 2609TIP3   OH232021   0.275   7.267   7.597 -0.3705  0.1936 -0.3010
 2609TIP3    H132022   0.332   7.192   7.579  2.1839  1.6600  1.1901
 2609TIP3    H232023   0.255   7.260   7.690 -0.8281  0.9082 -0.3357
 2610TIP3   OH232024   6.620   7.668   8.928  0.7465  0.7326 -0.2431
 2610TIP3    H132025   6.578   7.712   8.855  1.1063  0.0442 -0.8822
 2610TIP3    H232026   6.671   7.736   8.972 -2.5470  2.0986  1.8052
 2611TIP3   OH232027   0.139   7.533   8.505  0.1254  0.0212 -0.1504
 2611TIP3    H132028   0.053   7.503   8.477 -0.0307  1.2420 -1.0820
 2611TIP3    H232029   0.122   7.591   8.579  0.1876 -0.1556  0.0011
 2612TIP3   OH232030   6.694   4.780   8.240 -0.4724  0.2052 -0.8459
 2612TIP3    H132031   6.723   4.869   8.219  0.2854  0.1104 -0.2102
 2612TIP3    H232032   6.669   4.783   8.332 -1.4289  0.0003 -1.0837
 2613TIP3   OH232033   7.392   2.195   7.533 -0.6529  0.4734  0.0375
 2613TIP3    H132034   7.310   2.241   7.515 -1.0819 -0.1874  0.2966
 2613TIP3    H232035   7.428   2.240   7.610  0.5150  2.4186 -1.5520
 2614TIP3   OH232036   4.152   4.557   8.182 -0.1882 -0.3971  0.2347
 2614TIP3    H132037   4.154   4.539   8.276  0.6264 -0.5754  0.1906
 2614TIP3    H232038   4.165   4.651   8.175  1.7033 -0.6239  0.2448
 2615TIP3   OH232039   4.403   6.908   7.594  0.3598 -0.0066  0.4335
 2615TIP3    H132040   4.392   6.971   7.665 -1.1574 -0.2254  0.4253
 2615TIP3    H232041   4.345   6.940   7.524 -0.1474 -1.1872  0.2896
 2616TIP3   OH232042   6.838   0.648   9.248  0.2208  0.4631  0.6306
 2616TIP3    H132043   6.851   0.599   9.166 -1.3154  1.5453 -0.3245
 2616TIP3    H232044   6.926   0.668   9.279  0.9048 -2.6568  0.9499
 2617TIP3   OH232045   5.176   6.680   6.630  0.1187 -0.5265 -0.2149
 2617TIP3    H132046   5.166   6.766   6.672 -0.0030 -0.4422 -0.4166
 2617TIP3    H232047   5.092   6.664   6.587 -0.8515 -1.9442  2.0167
 2618TIP3   OH232048   6.399   1.268   7.385  0.3583  0.0310 -1.0652
 2618TIP3    H132049   6.493   1.272   7.365  0.1934 -0.9274 -2.1195
 2618TIP3    H232050   6.377   1.358   7.409  1.7258  0.0966  0.0892
 2619TIP3   OH232051   5.099   3.081   8.501 -0.3821  0.1565  0.1695
 2619TIP3    H132052   5.181   3.041   8.532 -0.4800  1.2957  2.0743
 2619TIP3    H232053   5.116   3.175   8.505 -1.6792  0.3996  0.2949
 2620TIP3   OH232054   5.372   4.839   9.623  0.0741  0.0956  0.6020
 2620TIP3    H132055   5.342   4.770   9.682  1.9085 -0.4176  1.0017
 2620TIP3    H232056   5.379   4.796   9.537 -0.6680  0.3251  0.4143
 2621TIP3   OH232057   4.360   3.082   7.959 -0.3613 -0.4673 -0.4203
 2621TIP3    H132058   4.320   3.121   8.037 -0.0219 -0.7527 -0.0977
 2621TIP3    H232059   4.447   3.056   7.988  0.7824  1.7818 -1.5638
 2622TIP3   OH232060   6.810   6.633   7.993 -0.7684 -0.2226 -0.5794
 2622TIP3    H132061   6.821   6.693   8.066 -1.5349  0.3659 -0.9298
 2622TIP3    H232062   6.888   6.578   7.995 -0.2936  0.4529  0.0539
 2623TIP3   OH232063   6.210   2.685   8.153  0.2059  0.2725 -0.4528
 2623TIP3    H132064   6.172   2.716   8.235  0.8631  1.9813 -0.7445
 2623TIP3    H232065   6.202   2.760   8.093 -1.2885 -1.2792 -2.3371
 2624TIP3   OH232066   4.009   1.239   9.405 -0.7778  0.6101 -0.0425
 2624TIP3    H132067   3.978   1.284   9.483  0.7298 -1.9606  2.2258
 2624TIP3    H232068   3.962   1.156   9.404  0.6026 -0.2158 -0.7002
 2625TIP3   OH232069   6.319   2.090   8.035  0.3146 -0.2315 -0.4172
 2625TIP3    H132070   6.232   2.120   8.063  0.2540  1.7707 -2.4484
 2625TIP3    H232071   6.379   2.158   8.068  1.1686 -1.6139  0.9961
 2626TIP3   OH232072   5.751   3.727   6.865 -0.0342 -0.6396 -0.3252
 2626TIP3    H132073   5.672   3.774   6.837 -0.7578 -0.6710  1.5359
 2626TIP3    H232074   5.821   3.764   6.812 -0.9121  1.1495 -0.3072
 2627TIP3   OH232075   7.252   6.610   6.706  0.4630  0.7463 -0.1398
 2627TIP3    H132076   7.264   6.515   6.704  0.6864  0.7871 -0.9626
 2627TIP3    H232077   7.157   6.622   6.695  0.5794  0.6546 -1.2561
 2628TIP3   OH232078   6.372   2.960   9.534  0.0485 -0.1348  0.4960
 2628TIP3    H132079   6.442   2.922   9.587  1.8441  1.3406 -0.6755
 2628TIP3    H232080   6.354   3.045   9.575  1.0081  0.7399 -0.8385
 2629TIP3   OH232081   2.784   2.530   8.534 -0.1175 -0.1607 -0.6241
 2629TIP3    H132082   2.873   2.528   8.498  0.3618 -0.5652  0.5433
 2629TIP3    H232083   2.742   2.604   8.489  1.3312  1.0874 -0.0093
 2630TIP3   OH232084   5.156   4.876   9.317  0.0431 -0.4168  0.0610
 2630TIP3    H132085   5.192   4.960   9.345  1.6317 -1.1184  0.1945
 2630TIP3    H232086   5.215   4.845   9.248  0.1258 -1.9301  0.7695
 2631TIP3   OH232087   1.004   2.989   8.925 -0.1793 -0.5067 -0.3251
 2631TIP3    H132088   0.946   3.042   8.981 -0.8544 -2.2414  0.6974
 2631TIP3    H232089   1.092   3.011   8.955 -0.3967  0.5775 -0.4324
 2632TIP3   OH232090   5.465   0.097   7.647  0.5992 -0.0682  0.1353
 2632TIP3    H132091   5.412   0.171   7.615 -0.6066 -1.5580 -1.5224
 2632TIP3    H232092   5.468   0.036   7.573  0.8797 -2.0377  1.6784
 2633TIP3   OH232093   1.861   7.574   7.982 -0.1760 -0.5136  0.6861
 2633TIP3    H132094   1.900   7.649   7.937  2.4862 -1.5176  1.1320
 2633TIP3    H232095   1.931   7.540   8.038 -2.0109 -1.9496  2.2815
 2634TIP3   OH232096   0.291   7.321   8.551  0.2940  0.2499  0.4225
 2634TIP3    H132097   0.383   7.343   8.568  0.1006  1.0700  0.4577
 2634TIP3    H232098   0.246   7.406   8.549 -0.3912 -0.1153 -0.0366
 2635TIP3   OH232099   3.137   7.173   9.633 -0.1424  0.3846  1.0971
 2635TIP3    H132100   3.043   7.167   9.651 -0.5640 -0.0580 -1.0274
 2635TIP3    H232101   3.174   7.092   9.668 -1.0847 -0.9015 -0.7105
 2636TIP3   OH232102   2.114   7.364   6.885 -0.0970 -0.0547 -0.1909
 2636TIP3    H132103   2.114   7.286   6.941  1.3210  1.3356  1.8660
 2636TIP3    H232104   2.082   7.434   6.941 -2.6425  0.7066 -2.3910
 2637TIP3   OH232105   2.324   6.964   7.182  0.4161 -0.0565  0.6879
 2637TIP3    H132106   2.308   6.995   7.271 -0.3295 -0.2330  0.6237
 2637TIP3    H232107   2.391   6.897   7.192  1.7524  1.2653  0.8742
 2638TIP3   OH232108   5.486   3.497   8.396  0.0585  0.0977 -0.1726
 2638TIP3    H132109   5.408   3.447   8.371 -1.3643  2.2431 -0.3154
 2638TIP3    H232110   5.491   3.488   8.491  1.0230 -1.8911 -0.3672
 2639TIP3   OH232111   7.181   3.887   9.506  0.3346 -0.0997 -0.0051
 2639TIP3    H132112   7.105   3.893   9.448  1.8851 -2.4498 -2.5470
 2639TIP3    H232113   7.212   3.977   9.514 -1.7324  0.6828 -0.2301
 2640TIP3   OH232114   0.933   2.189   7.585  0.6755 -0.3670  0.0241
 2640TIP3    H132115   0.853   2.166   7.632 -0.7380 -1.2504 -2.6307
 2640TIP3    H232116   1.001   2.187   7.652 -1.3312 -0.5749  2.1902
 2641TIP3   OH232117   6.637   6.932   6.708  0.0829 -0.2424 -0.0821
 2641TIP3    H132118   6.717   6.890   6.741 -0.0589  0.2950  1.0092
 2641TIP3    H232119   6.625   6.896   6.620  0.8706 -1.2193  0.1917
 2642TIP3   OH232120   0.050   4.138   7.028 -0.1225  0.4691 -0.0777
 2642TIP3    H132121   0.079   4.180   6.947 -1.0216  0.1345 -0.5860
 2642TIP3    H232122   0.033   4.211   7.089  0.3294  0.7309 -0.2665
 2643TIP3   OH232123   1.739   0.746   7.828  0.4349 -0.5087  0.2405
 2643TIP3    H132124   1.697   0.665   7.799  0.4227 -0.7323  0.8669
 2643TIP3    H232125   1.796   0.771   7.756 -1.8683  0.6271 -1.3092
 2644TIP3   OH232126   3.095   2.555   6.813 -0.3472  0.5967  0.3035
 2644TIP3    H132127   3.118   2.612   6.740  3.2625  0.4882  1.1841
 2644TIP3    H232128   3.151   2.584   6.885 -1.0246 -1.7101  1.8920
 2645TIP3   OH232129   3.442   6.748   8.438 -0.3870 -0.0156 -0.3021
 2645TIP3    H132130   3.514   6.704   8.393 -0.3346  1.1898 -1.4398
 2645TIP3    H232131   3.482   6.790   8.514 -0.1871 -0.6948 -0.0253
 2646TIP3   OH232132   3.922   1.583   8.304 -0.4090 -0.6194 -0.3863
 2646TIP3    H132133   3.971   1.605   8.225  0.4793  0.6189  0.4868
 2646TIP3    H232134   3.849   1.645   8.304  1.8411  2.3172  1.8308
 2647TIP3   OH232135   6.675   1.774   7.143  0.2511  0.3454 -0.2152
 2647TIP3    H132136   6.705   1.816   7.063  1.8283  1.2692  0.8212
 2647TIP3    H232137   6.580   1.768   7.133  0.3883  0.7720 -1.9780
 2648TIP3   OH232138   2.909   4.908   7.295 -0.4575  0.0619 -0.1750
 2648TIP3    H132139   2.852   4.947   7.362 -0.4653  0.5103 -0.4406
 2648TIP3    H232140   2.994   4.949   7.309 -0.7244  0.9904 -1.1379
 2649TIP3   OH232141   5.465   4.100   7.864 -0.4467 -0.0043  0.5127
 2649TIP3    H132142   5.439   4.009   7.845 -1.8155 -0.1325  2.6700
 2649TIP3    H232143   5.514   4.094   7.946 -0.4281  1.1854  0.6068
 2650TIP3   OH232144   5.058   2.653   9.009 -0.5521  0.1293  0.4515
 2650TIP3    H132145   5.036   2.577   8.956 -1.7289 -0.9732  2.3714
 2650TIP3    H232146   5.143   2.681   8.978 -0.1054 -1.9546 -0.3589
 2651TIP3   OH232147   0.677   0.880   8.748 -0.2502 -0.3103  0.2365
 2651TIP3    H132148   0.584   0.896   8.730  0.1090 -0.6321 -2.2802
 2651TIP3    H232149   0.724   0.945   8.697  0.9770  0.9571  2.7726
 2652TIP3   OH232150   3.667   1.166   7.956  0.0550  0.2740 -0.0172
 2652TIP3    H132151   3.577   1.141   7.935  0.0273 -1.2149  1.7372
 2652TIP3    H232152   3.719   1.089   7.936  0.6857  0.4875  0.7608
 2653TIP3   OH232153   6.261   6.229   8.291  0.2423  0.2259  0.0524
 2653TIP3    H132154   6.307   6.288   8.231  0.0119  0.8539  0.4923
 2653TIP3    H232155   6.177   6.271   8.307  0.1128 -0.1748  0.4527
 2654TIP3   OH232156   3.904   0.185   7.089 -0.0110 -0.1412 -0.3751
 2654TIP3    H132157   3.938   0.127   7.021 -1.3801  0.9315 -2.0567
 2654TIP3    H232158   3.982   0.213   7.137  0.8243 -2.2587 -0.3502
 2655TIP3   OH232159   3.725   4.402   8.218  0.5985 -0.0374 -0.1966
 2655TIP3    H132160   3.632   4.382   8.226  0.7397 -0.4481  0.5872
 2655TIP3    H232161   3.762   4.379   8.304  1.4701 -0.1486 -0.5846
 2656TIP3   OH232162   3.491   2.405   8.253  0.8558  0.4266 -0.0510
 2656TIP3    H132163   3.444   2.322   8.261 -1.3399  1.6711  0.8861
 2656TIP3    H232164   3.582   2.383   8.273  0.5810 -1.9315 -0.9865
 2657TIP3   OH232165   7.245   5.578   9.156  0.1889 -0.1133  0.0063
 2657TIP3    H132166   7.198   5.653   9.193 -0.7097 -0.8923  0.4887
 2657TIP3    H232167   7.181   5.507   9.155  1.0484 -0.9144 -0.3503
 2658TIP3   OH232168   4.036   7.244   7.731  0.4039 -0.0467  0.0914
 2658TIP3    H132169   3.959   7.199   7.696  0.0291  0.0136  0.8208
 2658TIP3    H232170   4.090   7.262   7.654 -0.0221 -0.6332 -0.3568
 2659TIP3   OH232171   3.325   5.299   7.696  0.4440  0.1071 -0.0533
 2659TIP3    H132172   3.286   5.258   7.618 -0.3857 -1.0073  0.9076
 2659TIP3    H232173   3.402   5.246   7.716  1.8393  1.5781 -1.2272
 2660TIP3   OH232174   4.263   0.990   8.712  0.4001 -0.0820 -0.7981
 2660TIP3    H132175   4.302   0.922   8.767  1.3601 -0.4842 -1.9196
 2660TIP3    H232176   4.251   1.065   8.771  0.5475 -0.7870  0.1534
 2661TIP3   OH232177   3.952   4.968   8.647 -0.1372 -0.2701  0.7291
 2661TIP3    H132178   3.925   4.878   8.629 -1.4081  0.2801 -0.3730
 2661TIP3    H232179   4.042   4.973   8.615 -0.2463 -1.0136  0.2694
 2662TIP3   OH232180   1.396   6.166   8.221  0.4100 -0.3723 -0.2999
 2662TIP3    H132181   1.476   6.199   8.261 -0.6625  2.5666 -0.3318
 2662TIP3    H232182   1.330   6.170   8.291 -0.2679 -0.2161 -0.9282
 2663TIP3   OH232183   0.884   5.378   7.564 -0.1229 -0.4186 -0.3282
 2663TIP3    H132184   0.829   5.390   7.486  0.1140  0.5389 -0.3628
 2663TIP3    H232185   0.880   5.462   7.609  1.9371 -0.0512 -0.7423
 2664TIP3   OH232186   3.174   3.992   8.823 -0.3701 -0.3553  0.5310
 2664TIP3    H132187   3.131   3.925   8.877 -0.4209 -3.0806 -2.5650
 2664TIP3    H232188   3.261   4.002   8.862 -0.0419 -2.9407  0.6461
 2665TIP3   OH232189   3.171   6.036   8.791  0.2422  0.0178 -0.0290
 2665TIP3    H132190   3.126   5.952   8.800 -0.1421  0.1047 -0.9641
 2665TIP3    H232191   3.200   6.037   8.699 -0.0415  1.0449 -0.1153
 2666TIP3   OH232192   4.307   5.877   8.185 -0.0534  0.2357 -0.1130
 2666TIP3    H132193   4.258   5.959   8.185  0.0038  0.2785 -0.8180
 2666TIP3    H232194   4.249   5.815   8.141 -0.0475 -0.0690  0.3122
 2667TIP3   OH232195   3.651   0.285   6.787  0.3768 -0.1627 -0.2780
 2667TIP3    H132196   3.736   0.329   6.788  0.2942 -0.0048 -0.0944
 2667TIP3    H232197   3.587   0.356   6.791  0.2390 -0.2906 -0.1970
 2668TIP3   OH232198   3.291   3.006   7.928 -0.0509  0.7350  0.3986
 2668TIP3    H132199   3.384   3.023   7.945  0.3142  0.3564 -1.1314
 2668TIP3    H232200   3.246   3.062   7.991  1.2035  0.1402  1.8914
 2669TIP3   OH232201   4.209   1.886   7.123  0.2242 -0.0049  0.5266
 2669TIP3    H132202   4.117   1.867   7.108  0.7854 -1.5625 -1.3521
 2669TIP3    H232203   4.221   1.975   7.090 -0.2790 -0.4299 -0.8705
 2670TIP3   OH232204   4.831   5.849   8.982  0.1625  0.3982  0.5972
 2670TIP3    H132205   4.918   5.811   8.999  0.2269  0.4021  0.2717
 2670TIP3    H232206   4.840   5.895   8.899  0.2292  1.5961  1.2472
 2671TIP3   OH232207   6.943   2.475   9.209 -0.8279 -0.5930 -0.3058
 2671TIP3    H132208   6.920   2.518   9.291 -0.6848 -1.6564  0.3096
 2671TIP3    H232209   6.988   2.542   9.158 -0.7080  0.0099  0.5787
 2672TIP3   OH232210   1.331   0.210   8.197  0.2983 -0.1586 -0.1012
 2672TIP3    H132211   1.289   0.270   8.259 -2.1244 -0.3541 -1.4487
 2672TIP3    H232212   1.410   0.257   8.169  1.9305 -0.3451  3.5277
 2673TIP3   OH232213   0.013   5.752   8.202  0.3112 -0.0604  0.0563
 2673TIP3    H132214   0.014   5.710   8.116 -0.3644 -0.4846  0.2451
 2673TIP3    H232215  -0.073   5.731   8.238  1.2268 -1.4047  1.5911
 2674TIP3   OH232216   0.753   3.465   8.655 -0.8413 -0.1870 -0.1476
 2674TIP3    H132217   0.836   3.465   8.607 -0.9091  1.8844 -0.3668
 2674TIP3    H232218   0.735   3.372   8.672  1.6285 -0.6859  0.1529
 2675TIP3   OH232219   0.619   2.503   8.074 -0.7412 -0.2347 -0.8264
 2675TIP3    H132220   0.540   2.556   8.084 -0.0562  1.0583 -1.8650
 2675TIP3    H232221   0.687   2.552   8.121 -0.6306 -1.5347  0.4008
 2676TIP3   OH232222   1.112   6.794   9.075  0.1196 -0.0240  0.6251
 2676TIP3    H132223   1.026   6.801   9.035  0.8817  0.4726 -1.0173
 2676TIP3    H232224   1.128   6.700   9.081 -0.1622 -0.1091  0.0783
 2677TIP3   OH232225   4.009   4.663   9.266  0.1048  0.9297  0.0383
 2677TIP3    H132226   4.084   4.692   9.317  0.5989  0.3949 -0.3589
 2677TIP3    H232227   4.047   4.635   9.182 -0.1053 -2.0744  0.8266
 2678TIP3   OH232228   3.270   5.268   8.526  0.5575 -0.1405  0.6267
 2678TIP3    H132229   3.292   5.176   8.541 -1.2046 -1.0750 -1.7527
 2678TIP3    H232230   3.320   5.292   8.448 -1.2471 -0.0870 -0.5743
 2679TIP3   OH232231   5.952   4.075   6.877 -0.5623  0.0526  0.3219
 2679TIP3    H132232   5.882   4.141   6.881 -1.8640 -1.3630  2.2610
 2679TIP3    H232233   5.986   4.071   6.966  0.1202 -1.2304  0.0199
 2680TIP3   OH232234   1.297   1.377   8.094  0.1212 -0.2424  0.1218
 2680TIP3    H132235   1.216   1.328   8.104  1.0989 -1.9131  0.3078
 2680TIP3    H232236   1.352   1.320   8.039  1.6809  0.1681  1.2042
 2681TIP3   OH232237   7.352   7.327   6.614 -0.3676  0.3296  0.0239
 2681TIP3    H132238   7.341   7.243   6.659  0.0129 -0.5370 -1.4053
 2681TIP3    H232239   7.306   7.315   6.531  0.8928  1.0178 -0.8152
 2682TIP3   OH232240   6.919   6.375   8.301 -0.1801  0.2240 -0.8921
 2682TIP3    H132241   6.896   6.360   8.392 -2.2163  0.3097 -1.3443
 2682TIP3    H232242   7.005   6.419   8.304 -0.7566  1.2980  1.0233
 2683TIP3   OH232243   3.329   4.194   7.801  0.5142 -0.4155  0.0597
 2683TIP3    H132244   3.358   4.111   7.838 -0.3560 -0.6133  0.3240
 2683TIP3    H232245   3.373   4.200   7.716  0.8386 -0.9831  0.1866
 2684TIP3   OH232246   0.505   1.996   6.936 -0.3593 -0.1057 -0.5227
 2684TIP3    H132247   0.512   1.920   6.993  0.8766 -0.4377 -1.0803
 2684TIP3    H232248   0.434   2.048   6.974 -1.7331 -1.8750 -0.5775
 2685TIP3   OH232249   5.507   4.157   8.951 -0.3858  0.4755 -0.1597
 2685TIP3    H132250   5.594   4.174   8.985 -0.3264  1.3146 -0.7057
 2685TIP3    H232251   5.477   4.080   9.000  1.5818 -1.3394 -1.5673
 2686TIP3   OH232252   5.803   1.559   7.582 -0.5164 -0.4469  0.2163
 2686TIP3    H132253   5.817   1.474   7.542 -1.1074  0.8753 -3.0991
 2686TIP3    H232254   5.774   1.616   7.510  2.2752  3.2194  1.6349
 2687TIP3   OH232255   5.202   3.768   7.551  0.3524  0.3895  0.2871
 2687TIP3    H132256   5.239   3.703   7.491 -1.0015  2.1417 -2.6810
 2687TIP3    H232257   5.132   3.722   7.596  0.3763 -0.6207 -0.6539
 2688TIP3   OH232258   7.221   3.920   6.407  0.2367 -0.8567  1.1050
 2688TIP3    H132259   7.140   3.882   6.441 -1.5069  1.3045 -0.3498
 2688TIP3    H232260   7.238   3.995   6.463 -0.0563 -0.0084  0.0932
 2689TIP3   OH232261   6.302   0.241   8.053  0.0722 -0.7355 -0.8908
 2689TIP3    H132262   6.386   0.219   8.092  0.0030 -1.5784 -1.1874
 2689TIP3    H232263   6.318   0.320   8.002  0.0140  0.7510  1.3057
 2690TIP3   OH232264   0.573   5.882   7.185  0.6144  0.5061 -0.0206
 2690TIP3    H132265   0.640   5.820   7.157  0.8400  1.8365 -2.8026
 2690TIP3    H232266   0.519   5.895   7.107 -1.7058  0.9850  1.5794
 2691TIP3   OH232267   4.156   7.246   9.499  0.0378 -0.4829  0.1171
 2691TIP3    H132268   4.221   7.208   9.441  0.4747  0.6527 -0.1589
 2691TIP3    H232269   4.202   7.316   9.544 -0.7038 -0.3828  0.7374
 2692TIP3   OH232270   3.989   5.576   7.617  0.0691 -0.2421 -0.2831
 2692TIP3    H132271   3.901   5.606   7.592 -0.2869 -1.9782 -1.2315
 2692TIP3    H232272   4.045   5.601   7.543 -0.0158 -0.9344 -0.5802
 2693TIP3   OH232273   6.427   3.431   7.913  0.4420 -0.2101 -0.3501
 2693TIP3    H132274   6.504   3.437   7.857  1.8336 -1.0723  1.3664
 2693TIP3    H232275   6.450   3.482   7.991 -0.9604 -0.0246 -0.0330
 2694TIP3   OH232276   1.545   4.664   7.154  0.6943 -0.0334  0.2006
 2694TIP3    H132277   1.552   4.568   7.145 -1.8215 -0.7874  3.9996
 2694TIP3    H232278   1.543   4.696   7.064  1.2235 -3.5723 -1.2533
 2695TIP3   OH232279   1.480   1.230   7.958 -0.3370  0.1314 -0.1482
 2695TIP3    H132280   1.568   1.198   7.935 -0.7712 -0.6040 -0.8141
 2695TIP3    H232281   1.427   1.214   7.880 -1.1193  0.3522  0.3294
 2696TIP3   OH232282   7.484   4.124   8.566 -0.1013 -0.3509  0.2503
 2696TIP3    H132283   7.565   4.146   8.519 -0.2235 -0.9771 -0.2707
 2696TIP3    H232284   7.423   4.101   8.496 -0.5827 -0.3547  0.6738
 2697TIP3   OH232285   0.031   1.728   9.206 -0.2216  0.0514  0.1310
 2697TIP3    H132286   0.044   1.823   9.210  0.1761  0.0737 -1.2097
 2697TIP3    H232287   0.105   1.696   9.154 -0.5079 -0.9656  0.3201
 2698TIP3   OH232288   2.411   4.584   7.837  0.0906 -0.2472  0.4966
 2698TIP3    H132289   2.452   4.667   7.813 -0.1454 -0.2286  0.1400
 2698TIP3    H232290   2.324   4.589   7.797  0.2433 -0.8621  0.0766
 2699TIP3   OH232291   7.111   2.262   7.586 -0.2142 -0.3992 -0.2204
 2699TIP3    H132292   7.143   2.352   7.586 -2.3582  0.4327  1.2297
 2699TIP3    H232293   7.150   2.222   7.664  0.6419 -0.7495 -0.7999
 2700TIP3   OH232294   1.348   0.168   9.189  0.4183  0.1112 -0.0138
 2700TIP3    H132295   1.315   0.222   9.261 -1.9320 -1.7940  0.4581
 2700TIP3    H232296   1.354   0.228   9.115 -1.2070  1.2442  0.7099
 2701TIP3   OH232297   0.417   5.560   7.841 -0.4534  0.4860 -0.3634
 2701TIP3    H132298   0.353   5.630   7.826 -1.2820 -0.4189 -1.2306
 2701TIP3    H232299   0.500   5.597   7.811 -1.2241  0.4518 -2.8017
 2702TIP3   OH232300   1.391   6.799   9.121  0.6409 -0.9783  0.0509
 2702TIP3    H132301   1.302   6.824   9.097  0.7326 -0.2009  0.4703
 2702TIP3    H232302   1.387   6.704   9.132 -0.0145 -1.0147 -0.4287
 2703TIP3   OH232303   5.927   6.540   8.575 -0.7562  0.2029  0.6909
 2703TIP3    H132304   5.936   6.483   8.498  2.0983 -1.1602  1.9054
 2703TIP3    H232305   5.926   6.628   8.539  2.2078 -0.2871 -0.9593
 2704TIP3   OH232306   1.894   5.419   7.675 -0.0742  0.5976  0.3886
 2704TIP3    H132307   1.959   5.363   7.718 -0.3152 -0.9925 -1.1788
 2704TIP3    H232308   1.890   5.497   7.729  1.8918  0.0187  1.4839
 2705TIP3   OH232309   3.487   3.747   8.547  0.5332  1.0167  0.5268
 2705TIP3    H132310   3.481   3.652   8.557 -1.5145  1.0714  0.1622
 2705TIP3    H232311   3.521   3.759   8.458  0.9042  0.6235  0.6108
 2706TIP3   OH232312   0.033   6.631   7.131  0.0957  0.3514 -0.4268
 2706TIP3    H132313   0.036   6.726   7.142  0.1540  0.3413 -0.3562
 2706TIP3    H232314   0.019   6.619   7.037  1.2669  0.4122 -0.6254
 2707TIP3   OH232315   3.292   2.401   9.249  0.0875 -0.1396  0.0438
 2707TIP3    H132316   3.212   2.455   9.246  0.4451  0.4659  1.0276
 2707TIP3    H232317   3.354   2.449   9.194  1.4600  2.3092  3.3801
 2708TIP3   OH232318   0.837   6.509   9.213  0.1451 -0.3053  0.2914
 2708TIP3    H132319   0.773   6.445   9.245 -0.0869  1.2351  3.2160
 2708TIP3    H232320   0.785   6.585   9.188  0.6746  0.3836  1.2142
 2709TIP3   OH232321   4.851   0.848   6.714  0.4222 -0.6336 -0.4542
 2709TIP3    H132322   4.913   0.776   6.699 -0.3029 -1.0308 -1.6837
 2709TIP3    H232323   4.903   0.915   6.758  0.9003 -2.2368  1.6119
 2710TIP3   OH232324   5.147   2.455   8.675 -0.0926 -0.1093  0.5516
 2710TIP3    H132325   5.175   2.545   8.662  0.1066 -0.3382 -0.7231
 2710TIP3    H232326   5.056   2.453   8.645 -0.4137 -0.1304  1.4883
 2711TIP3   OH232327   1.645   6.035   8.381  0.1246 -0.1886  0.3166
 2711TIP3    H132328   1.738   6.029   8.406  0.6182 -0.8998 -1.4905
 2711TIP3    H232329   1.617   6.120   8.414  2.1764  1.2471 -1.3108
 2712TIP3   OH232330   0.598   6.181   8.329  0.5821 -0.1415 -0.5029
 2712TIP3    H132331   0.573   6.274   8.331  0.0278 -0.3040  1.2060
 2712TIP3    H232332   0.528   6.136   8.375  1.7246 -1.1893  0.2764
 2713TIP3   OH232333   3.757   2.319   8.305  0.0762 -0.2766  0.1058
 2713TIP3    H132334   3.807   2.237   8.307  1.2028  0.3647 -1.0508
 2713TIP3    H232335   3.790   2.370   8.379 -1.4741 -1.2882  1.5953
 2714TIP3   OH232336   7.410   2.621   6.925  0.3267 -0.3849 -0.5705
 2714TIP3    H132337   7.447   2.537   6.898  1.9222  0.3272 -0.7367
 2714TIP3    H232338   7.412   2.675   6.846  1.2324  0.4275 -0.0308
 2715TIP3   OH232339   4.963   3.234   7.467 -0.7124 -0.1299  0.4389
 2715TIP3    H132340   5.009   3.210   7.548  0.4359  0.3942 -0.0343
 2715TIP3    H232341   4.968   3.329   7.464 -1.0632 -0.1245 -0.0667
 2716TIP3   OH232342   6.191   3.407   8.357 -0.4546  0.5504 -0.3297
 2716TIP3    H132343   6.264   3.465   8.337 -0.6756  0.5753 -1.1142
 2716TIP3    H232344   6.167   3.427   8.447 -0.6790  1.8365 -0.6613
 2717TIP3   OH232345   1.440   1.922   7.088 -0.1500 -0.3361 -0.0723
 2717TIP3    H132346   1.524   1.875   7.094 -0.2476 -0.5160 -0.1109
 2717TIP3    H232347   1.375   1.860   7.121 -0.3400 -0.3959 -0.5399
 2718TIP3   OH232348   0.963   2.925   9.601  0.3472 -0.3451 -0.4544
 2718TIP3    H132349   1.045   2.877   9.600  0.9839  0.6622  0.5042
 2718TIP3    H232350   0.969   2.982   9.678 -0.1808  1.5546 -1.7446
 2719TIP3   OH232351   6.505   7.452   9.074 -0.2418 -0.3846  0.4928
 2719TIP3    H132352   6.562   7.519   9.036  1.1081 -0.3211  2.4807
 2719TIP3    H232353   6.512   7.378   9.015  1.1430 -0.0224  0.1746
 2720TIP3   OH232354   5.768   2.196   9.388  0.7686 -0.1455 -0.2929
 2720TIP3    H132355   5.778   2.291   9.382 -0.2775 -0.1221 -2.5115
 2720TIP3    H232356   5.843   2.161   9.339 -0.8000 -0.3124 -2.7395
 2721TIP3   OH232357   6.163   4.539   8.593 -0.4830  0.5854 -0.0617
 2721TIP3    H132358   6.158   4.445   8.610  0.2298  0.6363  0.5400
 2721TIP3    H232359   6.164   4.547   8.498  1.4309 -0.1754 -0.1624
 2722TIP3   OH232360   3.451   1.598   9.157 -0.0969  0.3341  0.3343
 2722TIP3    H132361   3.458   1.687   9.191 -1.4565 -0.3464  2.6343
 2722TIP3    H232362   3.357   1.584   9.147  0.0750 -0.9692  0.3866
 2723TIP3   OH232363   3.486   2.455   6.951 -0.2780 -0.1867 -0.3917
 2723TIP3    H132364   3.582   2.450   6.956 -0.2523  1.5965  2.2847
 2723TIP3    H232365   3.467   2.547   6.936 -1.6076 -0.4509 -0.4744
 2724TIP3   OH232366   2.911   1.596   8.775 -0.5077  0.2467 -0.4112
 2724TIP3    H132367   2.841   1.547   8.732  0.6004 -1.3166 -0.4796
 2724TIP3    H232368   2.907   1.569   8.866  1.2606 -1.4619 -0.7749
 2725TIP3   OH232369   6.167   2.833   7.759  0.8638  0.3493  0.1634
 2725TIP3    H132370   6.163   2.751   7.710 -1.6960 -1.3311  2.8644
 2725TIP3    H232371   6.091   2.882   7.728  1.0396  0.6619  0.2304
 2726TIP3   OH232372   4.620   2.602   9.314 -0.5091  0.0278  0.2779
 2726TIP3    H132373   4.602   2.673   9.376  1.9293  0.0991  0.9798
 2726TIP3    H232374   4.699   2.629   9.267 -0.2880 -1.6192 -0.3911
 2727TIP3   OH232375   7.011   6.130   9.383  0.4393 -0.3417 -1.0859
 2727TIP3    H132376   7.098   6.138   9.423 -0.1602 -0.4265  0.2735
 2727TIP3    H232377   6.965   6.066   9.437 -0.7780  0.3637 -1.2508
 2728TIP3   OH232378   4.646   4.503   8.257  0.6117 -0.4705  0.4729
 2728TIP3    H132379   4.702   4.581   8.253 -0.2149  0.1293 -3.5374
 2728TIP3    H232380   4.694   4.438   8.205 -0.9170 -0.9601 -0.3713
 2729TIP3   OH232381   2.254   1.973   9.086 -0.7506 -0.9868 -0.5031
 2729TIP3    H132382   2.249   1.941   8.996  0.5514  0.9346 -1.3372
 2729TIP3    H232383   2.197   2.050   9.086  0.3670 -0.1349 -0.1140
 2730TIP3   OH232384   1.267   5.347   9.377 -0.9001 -0.0539  0.6444
 2730TIP3    H132385   1.219   5.399   9.441  0.2240 -0.0983  1.5676
 2730TIP3    H232386   1.234   5.376   9.292 -0.9917  1.4729  1.1717
 2731TIP3   OH232387   1.534   2.235   7.431 -0.2622 -0.1675  0.3798
 2731TIP3    H132388   1.526   2.240   7.336  2.0354  0.7434  0.1625
 2731TIP3    H232389   1.521   2.325   7.461  1.5830  0.0575  0.6185
 2732TIP3   OH232390   6.793   4.866   9.332  0.4174 -0.1513  0.1264
 2732TIP3    H132391   6.835   4.873   9.417  0.8131 -1.3219  0.0531
 2732TIP3    H232392   6.865   4.867   9.269  0.4234 -2.4361  0.0140
 2733TIP3   OH232393   1.720   2.066   8.326  0.4099 -0.5768  0.2195
 2733TIP3    H132394   1.748   1.984   8.368  1.8192 -0.0287  0.4066
 2733TIP3    H232395   1.736   2.051   8.233 -0.1355 -0.8134  0.1617
 2734TIP3   OH232396   3.174   5.421   7.876  0.4451  0.1637 -0.1597
 2734TIP3    H132397   3.114   5.468   7.818  1.6150  1.9761  0.0106
 2734TIP3    H232398   3.228   5.369   7.817 -0.2137 -0.2179 -0.4420
 2735TIP3   OH232399   4.769   5.152   7.552  0.0663  0.6160  0.1570
 2735TIP3    H132400   4.843   5.186   7.603 -1.1433 -0.5615  2.9093
 2735TIP3    H232401   4.700   5.217   7.564  0.0928  0.8803 -0.9935
 2736TIP3   OH232402   3.268   5.884   7.099 -0.3501  0.2611 -0.3678
 2736TIP3    H132403   3.272   5.791   7.078 -0.2910 -0.0661  0.9547
 2736TIP3    H232404   3.359   5.915   7.089 -0.8645  1.0498 -4.1469
 2737TIP3   OH232405   6.898   4.940   8.766 -0.0634  0.4835  0.3494
 2737TIP3    H132406   6.810   4.916   8.796  0.5323 -0.1514  1.6964
 2737TIP3    H232407   6.942   4.856   8.753  0.5990  0.7977  0.5195
 2738TIP3   OH232408   0.100   0.526   6.723 -0.0188  0.4836 -0.4391
 2738TIP3    H132409   0.115   0.521   6.629 -0.2813 -0.0168 -0.4598
 2738TIP3    H232410   0.183   0.555   6.760 -0.0584  1.1724 -0.8666
 2739TIP3   OH232411   5.715   2.917   8.515 -0.1669  0.2912  0.1061
 2739TIP3    H132412   5.742   2.992   8.462 -0.9146  1.1466  0.9019
 2739TIP3    H232413   5.776   2.917   8.589 -1.4601  1.4508  1.2309
 2740TIP3   OH232414   3.479   7.194   9.466  0.6493  0.3520 -0.2418
 2740TIP3    H132415   3.556   7.157   9.424  0.4002 -1.3057  0.6584
 2740TIP3    H232416   3.472   7.145   9.549 -1.9723 -0.3486 -0.7870
 2741TIP3   OH232417   4.465   4.670   7.480 -0.3755  0.0245  0.2461
 2741TIP3    H132418   4.477   4.664   7.385 -0.4162  1.1345  0.1588
 2741TIP3    H232419   4.443   4.762   7.496 -2.8636 -0.6255  1.0612
 2742TIP3   OH232420   6.525   0.255   9.364 -0.3115  0.0662  0.4336
 2742TIP3    H132421   6.517   0.160   9.359 -1.8707  0.2395 -1.8465
 2742TIP3    H232422   6.442   0.287   9.328  0.3686  2.3008  0.7491
 2743TIP3   OH232423   7.008   3.273   7.123  0.1702 -0.6392 -0.0991
 2743TIP3    H132424   6.935   3.231   7.078  0.9897 -0.0901 -2.0481
 2743TIP3    H232425   7.034   3.345   7.065  1.7356 -0.3097  0.9426
 2744TIP3   OH232426   4.072   7.576   7.783 -1.1486 -0.9702 -0.0929
 2744TIP3    H132427   4.047   7.639   7.851 -2.0981 -0.4947 -0.8573
 2744TIP3    H232428   4.066   7.491   7.825  1.7554 -0.5295  1.4752
 2745TIP3   OH232429   7.107   4.656   7.779 -0.5749 -0.1563 -0.1973
 2745TIP3    H132430   7.178   4.713   7.806 -2.3777  1.3208  1.7688
 2745TIP3    H232431   7.068   4.700   7.703 -0.9464  0.4137  0.3112
 2746TIP3   OH232432   7.076   1.086   8.047  0.4296 -0.4324  0.3373
 2746TIP3    H132433   6.983   1.110   8.038 -0.1151 -1.7816  1.8449
 2746TIP3    H232434   7.090   1.080   8.142  2.3431  0.6877  0.1696
 2747TIP3   OH232435   6.461   1.279   7.738 -0.3475  0.0428  0.4449
 2747TIP3    H132436   6.409   1.356   7.715  1.3680  0.9914 -0.5269
 2747TIP3    H232437   6.410   1.205   7.707 -2.2382  0.6975  1.7615
 2748TIP3   OH232438   7.360   4.359   7.438 -0.7663 -0.4495 -0.0379
 2748TIP3    H132439   7.306   4.438   7.429  1.0269  0.7899 -0.5160
 2748TIP3    H232440   7.313   4.305   7.501 -1.5239  1.5037  1.1684
 2749TIP3   OH232441   5.240   1.818   8.882  0.2679 -0.2607 -0.1458
 2749TIP3    H132442   5.231   1.895   8.827  0.8090 -0.6376 -0.7756
 2749TIP3    H232443   5.208   1.746   8.829  1.4440 -0.7373 -0.2559
 2750TIP3   OH232444   0.030   0.782   7.105  0.0194  0.4132 -0.1885
 2750TIP3    H132445   0.079   0.864   7.096 -0.2398  0.6128  0.1895
 2750TIP3    H232446  -0.062   0.809   7.099 -0.0716  0.1815  0.1611
 2751TIP3   OH232447   0.892   1.172   7.595  0.0976  0.1238 -0.2641
 2751TIP3    H132448   0.920   1.089   7.632  1.2506  0.7933  0.4205
 2751TIP3    H232449   0.936   1.238   7.648  0.2101  1.1520 -1.5950
 2752TIP3   OH232450   4.070   3.224   8.407  0.4311 -0.1612  0.4329
 2752TIP3    H132451   4.022   3.147   8.379  1.5180 -0.3562 -0.9442
 2752TIP3    H232452   4.013   3.265   8.473 -1.5282 -0.4792 -0.9953
 2753TIP3   OH232453   1.992   2.139   8.661  0.4546 -0.0379  0.2640
 2753TIP3    H132454   2.057   2.079   8.697  1.8982  1.3635  0.1270
 2753TIP3    H232455   2.028   2.226   8.679 -1.0187  0.7623 -0.5170
 2754TIP3   OH232456   0.984   2.728   6.856 -0.1178  0.2233 -0.6573
 2754TIP3    H132457   1.060   2.675   6.880  0.3635  0.6646 -1.1676
 2754TIP3    H232458   1.010   2.818   6.877 -0.3553  0.4162 -1.1616
 2755TIP3   OH232459   2.218   4.034   8.882 -0.2966 -0.5786 -0.4061
 2755TIP3    H132460   2.215   4.074   8.970 -0.3600  0.4084 -0.8367
 2755TIP3    H232461   2.169   3.953   8.890 -1.3354  0.0868  0.1904
 2756TIP3   OH232462   4.379   4.110   9.235  0.5122 -0.3883 -0.0191
 2756TIP3    H132463   4.431   4.065   9.303 -0.3269 -1.3270  0.0231
 2756TIP3    H232464   4.288   4.094   9.261  0.1327 -1.8430 -2.0084
 2757TIP3   OH232465   6.333   2.048   7.218 -0.7996  0.2279  0.2624
 2757TIP3    H132466   6.304   2.128   7.261 -2.9921  0.1473 -0.9427
 2757TIP3    H232467   6.263   1.985   7.232 -0.3201 -0.6486 -1.0292
 2758TIP3   OH232468   3.970   0.897   7.966  0.2660 -0.4045 -0.5977
 2758TIP3    H132469   4.062   0.897   7.993  0.6250 -2.1684 -1.6520
 2758TIP3    H232470   3.960   0.976   7.913  1.2135 -0.2713 -0.5862
 2759TIP3   OH232471   2.394   3.670   7.262 -0.4246 -0.2117  0.5412
 2759TIP3    H132472   2.385   3.582   7.225 -0.4982 -0.8794  2.0776
 2759TIP3    H232473   2.459   3.712   7.207 -0.8598 -0.9983 -0.6213
 2760TIP3   OH232474   0.737   1.989   7.988 -0.0389 -0.5247 -0.1059
 2760TIP3    H132475   0.692   1.956   7.910  0.1515  0.0452 -0.4644
 2760TIP3    H232476   0.728   2.084   7.982  2.9385 -0.2008 -1.2976
 2761TIP3   OH232477   3.662   0.073   8.405  0.3700 -0.3345  0.5244
 2761TIP3    H132478   3.677  -0.017   8.376 -1.3618 -0.4504 -0.0707
 2761TIP3    H232479   3.735   0.090   8.465 -0.8952 -3.2442  3.2000
 2762TIP3   OH232480   0.270   3.130   6.445 -0.3153 -0.2080  0.1308
 2762TIP3    H132481   0.185   3.162   6.473 -0.1927  1.0666 -0.8765
 2762TIP3    H232482   0.321   3.122   6.526 -1.4503 -1.2544  0.7757
 2763TIP3   OH232483   4.923   1.796   8.948  0.0866  0.7773 -0.4081
 2763TIP3    H132484   4.890   1.742   9.020 -1.0857  0.9903 -0.7667
 2763TIP3    H232485   5.011   1.821   8.975  0.9916 -1.9634 -0.6054
 2764TIP3   OH232486   1.465   2.113   8.354  0.2400  0.3543  0.1352
 2764TIP3    H132487   1.438   2.146   8.269  0.6711 -1.6467 -0.8296
 2764TIP3    H232488   1.560   2.102   8.347  0.0754 -1.3569  0.2838
 2765TIP3   OH232489   3.100   0.170   8.693  0.2442  0.0790  0.1241
 2765TIP3    H132490   3.135   0.197   8.778 -0.2525  2.0183 -0.2360
 2765TIP3    H232491   3.008   0.149   8.711 -0.1219  1.4296 -0.0711
 2766TIP3   OH232492   5.521   1.449   8.337 -0.2048 -0.8256  0.1068
 2766TIP3    H132493   5.490   1.359   8.325 -0.0714 -0.7140 -1.2560
 2766TIP3    H232494   5.542   1.479   8.249  0.1836  0.3979  0.5920
 2767TIP3   OH232495   4.200   2.400   8.884 -0.2133 -0.6752  0.0823
 2767TIP3    H132496   4.225   2.329   8.943 -0.9950 -2.1194 -1.2513
 2767TIP3    H232497   4.257   2.391   8.808  0.5169  0.9199  0.3902
 2768TIP3   OH232498   6.977   6.830   7.913  0.5063 -0.1812  0.0749
 2768TIP3    H132499   6.905   6.783   7.872  0.0960  1.6611 -1.4344
 2768TIP3    H232500   7.046   6.764   7.925  0.2968 -1.0231 -2.7534
 2769TIP3   OH232501   5.428   4.161   8.698 -0.4706  0.0479  0.3318
 2769TIP3    H132502   5.476   4.162   8.780  0.2409 -1.9772  0.0074
 2769TIP3    H232503   5.342   4.126   8.721 -0.9500  1.2878  0.4968
 2770TIP3   OH232504   1.660   6.907   8.642 -0.5064  0.1419 -0.1827
 2770TIP3    H132505   1.676   6.941   8.554 -3.8158  1.9141 -0.2869
 2770TIP3    H232506   1.674   6.982   8.700 -1.2743 -0.1429  0.3988
 2771TIP3   OH232507   1.430   5.644   8.618  0.4984 -0.5631 -0.0760
 2771TIP3    H132508   1.509   5.651   8.671 -0.0630 -2.5626  1.1163
 2771TIP3    H232509   1.420   5.731   8.579  2.3773  0.2031  1.0028
 2772TIP3   OH232510   2.818   5.416   9.028 -0.4453  0.2635  0.0015
 2772TIP3    H132511   2.763   5.428   9.105  0.5976  3.9302  0.3695
 2772TIP3    H232512   2.757   5.426   8.954 -0.9569 -0.0941  0.3677
 2773TIP3   OH232513   1.884   4.087   8.280  0.1266 -0.2525 -0.2312
 2773TIP3    H132514   1.930   4.075   8.196  1.2140 -0.3619  0.3608
 2773TIP3    H232515   1.806   4.137   8.257  0.8633  0.5187 -1.1870
 2774TIP3   OH232516   0.282   5.505   7.568  0.4421  0.0823 -0.5357
 2774TIP3    H132517   0.265   5.436   7.505  0.8810 -1.2487  0.7566
 2774TIP3    H232518   0.224   5.485   7.642 -0.2026  1.7070 -0.5544
 2775TIP3   OH232519   0.658   1.302   8.786 -0.8129 -0.2013  0.0396
 2775TIP3    H132520   0.569   1.269   8.784 -1.0264  0.4101 -1.8307
 2775TIP3    H232521   0.663   1.353   8.867 -1.6617 -1.5012  0.9379
 2776TIP3   OH232522   0.675   0.498   6.953 -0.3952 -0.6730  0.3373
 2776TIP3    H132523   0.584   0.510   6.979 -0.4218 -1.2570  0.5209
 2776TIP3    H232524   0.680   0.408   6.921  0.1882 -0.7624  0.6567
 2777TIP3   OH232525   2.748   1.090   8.814  0.0645  0.9250  0.2843
 2777TIP3    H132526   2.696   1.016   8.783 -0.0716  1.3201 -0.4557
 2777TIP3    H232527   2.703   1.121   8.892 -0.8156  1.2565 -0.3413
 2778TIP3   OH232528   3.289   2.074   7.111 -0.3310 -0.1148  0.8219
 2778TIP3    H132529   3.313   1.983   7.093  0.0890  0.1714 -0.1488
 2778TIP3    H232530   3.321   2.122   7.035  1.3354  1.1512  2.2210
 2779TIP3   OH232531   6.742   0.561   7.684 -0.5443 -0.1262  0.0539
 2779TIP3    H132532   6.708   0.472   7.668 -0.4377 -0.6543  2.3721
 2779TIP3    H232533   6.809   0.573   7.617 -1.4577 -1.2746 -1.1274
 2780TIP3   OH232534   2.858   0.283   8.924  0.5525  0.9453 -0.4606
 2780TIP3    H132535   2.840   0.309   8.834  0.8230  1.5638 -0.3392
 2780TIP3    H232536   2.916   0.207   8.917  0.4933  0.9340 -0.8072
 2781TIP3   OH232537   1.164   0.019   8.304 -0.8436 -0.2985 -0.1290
 2781TIP3    H132538   1.236   0.074   8.275 -0.2326 -0.6107  0.7282
 2781TIP3    H232539   1.085   0.061   8.271 -0.3219  0.5567 -0.2977
 2782TIP3   OH232540   0.328   1.409   7.376 -0.4957  0.2794  0.5811
 2782TIP3    H132541   0.332   1.372   7.463 -4.5114 -2.9922 -0.2925
 2782TIP3    H232542   0.268   1.484   7.385  1.9441  2.3204  1.0678
 2783TIP3   OH232543   3.103   5.371   9.118 -0.2794  0.1536 -0.1896
 2783TIP3    H132544   3.144   5.457   9.112  0.0337 -0.0730 -2.5380
 2783TIP3    H232545   3.011   5.386   9.096 -0.8180  0.2130  1.9464
 2784TIP3   OH232546   1.690   1.313   8.145  0.7681  0.1241  0.4990
 2784TIP3    H132547   1.622   1.251   8.116  0.3922  0.0458  1.5138
 2784TIP3    H232548   1.756   1.258   8.187 -0.2339  0.4938  2.6692
 2785TIP3   OH232549   4.985   3.959   8.188  0.0909  0.2695 -0.5105
 2785TIP3    H132550   4.968   4.036   8.242  1.1543  0.7974 -0.8963
 2785TIP3    H232551   5.068   3.979   8.144  0.7051 -1.3498 -0.1582
 2786TIP3   OH232552   4.086   7.545   6.860  0.0329 -0.4240  0.3237
 2786TIP3    H132553   4.046   7.585   6.782  1.0560 -0.7465 -0.3746
 2786TIP3    H232554   4.178   7.569   6.855  0.6314 -2.6136  0.0424
 2787TIP3   OH232555   6.590   0.730   8.841 -0.5061 -0.4602  0.2142
 2787TIP3    H132556   6.567   0.747   8.932  1.1378  0.2812  0.5389
 2787TIP3    H232557   6.549   0.647   8.820 -2.5204  0.2843  1.0165
 2788TIP3   OH232558   0.253   4.057   7.990 -0.5863  0.6365  0.1820
 2788TIP3    H132559   0.266   3.993   7.920  0.9028  0.8613  0.2186
 2788TIP3    H232560   0.199   4.012   8.055 -1.0583  0.0467 -0.6126
 2789TIP3   OH232561   3.037   0.586   6.988 -0.0118 -0.3990  0.3485
 2789TIP3    H132562   3.039   0.633   7.071  1.9663 -0.4843  0.3908
 2789TIP3    H232563   3.084   0.504   7.005  1.1851 -0.0436 -1.0517
 2790TIP3   OH232564   6.380   2.526   7.430  0.7488 -0.0533  0.1318
 2790TIP3    H132565   6.373   2.558   7.341  2.6994  0.0173 -0.0364
 2790TIP3    H232566   6.470   2.493   7.437  0.1980 -1.3810  1.6375
 2791TIP3   OH232567   1.082   6.986   7.994 -0.3419 -0.3743  0.3850
 2791TIP3    H132568   1.139   6.923   8.038 -0.4114 -1.4528 -1.0129
 2791TIP3    H232569   1.046   7.040   8.066  1.2571 -0.6161  1.4143
 2792TIP3   OH232570   5.698   2.746   7.059 -0.0503 -0.2110  0.1977
 2792TIP3    H132571   5.665   2.781   7.142  1.2954  0.7357  0.3852
 2792TIP3    H232572   5.684   2.817   6.996 -0.7468 -0.7929 -0.3079
 2793TIP3   OH232573   1.428   5.177   8.519  0.0605 -0.5990  0.0036
 2793TIP3    H132574   1.446   5.153   8.429  0.8879 -0.3290  0.0906
 2793TIP3    H232575   1.514   5.187   8.559 -0.2953 -0.4651  0.7555
 2794TIP3   OH232576   0.034   0.628   8.374  0.2625  0.1637  0.0367
 2794TIP3    H132577  -0.027   0.630   8.301 -0.2026  1.6595  0.4342
 2794TIP3    H232578   0.111   0.675   8.343  1.5241 -2.2006 -0.6633
 2795TIP3   OH232579   3.953   1.811   8.538 -0.5236 -0.0029 -0.0509
 2795TIP3    H132580   3.892   1.791   8.467 -1.2506  0.5135  0.4014
 2795TIP3    H232581   3.918   1.891   8.577  0.8177  0.6806 -0.1802
 2796TIP3   OH232582   7.343   0.679   7.771 -0.4728  0.3163  0.3911
 2796TIP3    H132583   7.401   0.605   7.752  0.5149  0.9704  0.7706
 2796TIP3    H232584   7.365   0.744   7.704  0.7730  1.3912  1.7787
 2797TIP3   OH232585   2.012   4.555   8.343 -0.1004  0.1295 -0.1915
 2797TIP3    H132586   2.098   4.518   8.360  0.0557  0.1851 -0.8161
 2797TIP3    H232587   2.010   4.567   8.248 -0.5394  0.7565 -0.1091
 2798TIP3   OH232588   4.829   5.373   6.821 -0.2242 -0.0985 -0.3822
 2798TIP3    H132589   4.765   5.308   6.792  0.9294 -0.4217 -2.4011
 2798TIP3    H232590   4.910   5.349   6.776  0.7471  1.5998  0.3502
 2799TIP3   OH232591   4.086   6.515   7.459 -0.1394 -0.0002  0.0323
 2799TIP3    H132592   4.097   6.550   7.370  0.8991  0.3564  0.2912
 2799TIP3    H232593   4.119   6.585   7.516 -1.6129  0.1444  0.7613
 2800TIP3   OH232594   2.476   1.921   9.398  0.0740 -0.1569 -0.2293
 2800TIP3    H132595   2.527   1.973   9.335  1.4718 -0.7422  0.3623
 2800TIP3    H232596   2.522   1.837   9.401 -0.3944 -0.3825  1.0293
 2801TIP3   OH232597   6.824   5.184   8.612  0.6583 -0.1558  0.2661
 2801TIP3    H132598   6.735   5.205   8.640  0.0304 -0.8334 -1.1153
 2801TIP3    H232599   6.854   5.119   8.676 -0.8380 -1.8661 -0.6568
 2802TIP3   OH232600   4.394   4.966   8.822 -0.0356  0.2664  0.1929
 2802TIP3    H132601   4.446   4.933   8.896  0.8743  0.0285 -0.5316
 2802TIP3    H232602   4.446   4.944   8.745 -0.1259  2.0477 -0.4230
 2803TIP3   OH232603   3.789   0.572   8.608  0.0285 -0.2699  0.2458
 2803TIP3    H132604   3.749   0.621   8.536  3.0446  0.8357 -0.8460
 2803TIP3    H232605   3.768   0.481   8.588 -0.3438  0.1124 -1.2977
 2804TIP3   OH232606   6.168   4.772   9.339  0.0498 -0.4699 -0.1097
 2804TIP3    H132607   6.245   4.733   9.298 -0.5692 -1.7851 -0.0763
 2804TIP3    H232608   6.177   4.752   9.432 -0.3038 -0.6026 -0.1023
 2805TIP3   OH232609   0.317   3.320   8.607  0.1375 -0.0277  0.4239
 2805TIP3    H132610   0.223   3.325   8.624  0.1991  0.3502  0.6826
 2805TIP3    H232611   0.353   3.273   8.682  0.4564  1.9549  1.5919
 2806TIP3   OH232612   5.127   5.450   7.346  0.9588  0.6767  0.2645
 2806TIP3    H132613   5.209   5.439   7.394  1.6355  0.1375 -0.9632
 2806TIP3    H232614   5.153   5.449   7.254 -0.3955  0.8512 -0.1408
 2807TIP3   OH232615   1.804   4.892   7.928 -0.4027 -0.1797  0.2022
 2807TIP3    H132616   1.815   4.799   7.907  0.4424  0.1154 -0.7088
 2807TIP3    H232617   1.884   4.934   7.896 -1.5978  1.1525 -1.1409
 2808TIP3   OH232618   2.908   6.562   8.754  0.3662 -0.4853  0.0392
 2808TIP3    H132619   2.842   6.605   8.700  0.2413 -0.1987  0.4100
 2808TIP3    H232620   2.992   6.595   8.721  0.2737  0.0211  0.2914
 2809TIP3   OH232621   2.390   5.340   7.233  0.7292  0.0979  0.4274
 2809TIP3    H132622   2.409   5.427   7.199 -0.1792  0.8037  1.6648
 2809TIP3    H232623   2.308   5.315   7.192  0.9888 -0.1906  0.0725
 2810TIP3   OH232624   3.714   4.626   8.997 -0.1197 -0.1733  0.0389
 2810TIP3    H132625   3.768   4.550   8.978 -0.7069 -0.5529 -0.1523
 2810TIP3    H232626   3.676   4.608   9.083  0.9548  0.6211  0.6985
 2811TIP3   OH232627   6.747   1.735   7.408  0.0080 -0.0389 -0.2321
 2811TIP3    H132628   6.661   1.756   7.445  0.4691  0.9217  0.3144
 2811TIP3    H232629   6.736   1.748   7.314 -0.4338  0.1269 -0.1604
 2812TIP3   OH232630   7.258   6.940   7.250  0.6463 -0.2142 -0.2921
 2812TIP3    H132631   7.252   7.034   7.262  2.0917  0.0461 -1.3331
 2812TIP3    H232632   7.176   6.915   7.208 -0.0857  0.4191  0.7080
 2813TIP3   OH232633   5.846   4.437   8.350  0.0017 -0.6560  0.0035
 2813TIP3    H132634   5.857   4.360   8.406  0.6458 -0.1130  0.6464
 2813TIP3    H232635   5.909   4.424   8.278 -0.3690 -1.0463 -0.2517
 2814TIP3   OH232636   4.341   2.816   8.803  0.0145  0.7913  0.4965
 2814TIP3    H132637   4.301   2.756   8.866 -1.2101  0.3626 -0.6269
 2814TIP3    H232638   4.433   2.792   8.802 -0.4095 -0.9934  0.2117
 2815TIP3   OH232639   0.469   6.330   7.737 -0.0017 -0.1542 -0.0728
 2815TIP3    H132640   0.484   6.255   7.795 -1.0009 -1.2135 -1.1052
 2815TIP3    H232641   0.409   6.387   7.785 -0.9183 -1.0808 -0.0815
 2816TIP3   OH232642   4.695   4.271   9.303  0.1394  0.1405  0.4558
 2816TIP3    H132643   4.750   4.286   9.226 -1.7889  0.8618 -0.8616
 2816TIP3    H232644   4.641   4.195   9.280  0.2250 -0.2556  1.5081
 2817TIP3   OH232645   3.927   6.470   8.406  0.0578 -0.0217  0.3582
 2817TIP3    H132646   4.020   6.451   8.392 -0.1788 -0.5144 -0.6244
 2817TIP3    H232647   3.890   6.388   8.439 -0.3333 -0.3365 -0.8094
 2818TIP3   OH232648   2.182   2.838   8.065 -0.0479  0.3579 -0.2107
 2818TIP3    H132649   2.146   2.925   8.083  1.7864  1.2245 -0.4939
 2818TIP3    H232650   2.188   2.797   8.152 -4.0991 -0.9440 -0.3232
 2819TIP3   OH232651   4.236   5.332   8.495 -0.6820  0.8397  0.0363
 2819TIP3    H132652   4.189   5.289   8.424  3.7421 -1.1371 -2.0718
 2819TIP3    H232653   4.233   5.425   8.474 -2.0540  0.5824 -0.9948
 2820TIP3   OH232654   5.470   1.941   7.462  0.1187  0.4186 -0.0549
 2820TIP3    H132655   5.418   1.998   7.404 -2.0606 -1.5054 -0.1256
 2820TIP3    H232656   5.405   1.894   7.513  1.9387  0.0574  2.0724
 2821TIP3   OH232657   0.644   5.311   7.936 -0.2223 -0.4466 -0.1270
 2821TIP3    H132658   0.561   5.304   7.889 -0.2017 -1.3539 -0.0610
 2821TIP3    H232659   0.699   5.365   7.880 -0.6303 -0.4211 -0.5104
 2822TIP3   OH232660   5.715   2.579   7.716 -0.1004  0.1086 -0.6070
 2822TIP3    H132661   5.748   2.606   7.630  0.8730  0.5153 -0.1139
 2822TIP3    H232662   5.781   2.518   7.749 -0.2084  0.3568  0.0740
 2823TIP3   OH232663   7.587   1.617   8.401 -0.1601 -0.3364  0.8501
 2823TIP3    H132664   7.615   1.596   8.490  0.6205  1.3841  1.0458
 2823TIP3    H232665   7.620   1.705   8.385 -0.6525 -0.4351 -1.0009
 2824TIP3   OH232666   0.623   1.890   8.793 -0.4113 -0.0675  0.2625
 2824TIP3    H132667   0.688   1.903   8.723 -1.4287  0.0268 -0.6973
 2824TIP3    H232668   0.543   1.929   8.758 -0.5405  1.5575  2.1962
 2825TIP3   OH232669   2.380   5.975   8.867 -0.5495 -0.0132  0.6328
 2825TIP3    H132670   2.431   6.027   8.929  0.9504  0.4933 -0.9467
 2825TIP3    H232671   2.371   6.032   8.790 -4.1701  0.2264  1.0508
 2826TIP3   OH232672   0.436   2.738   7.247  0.0698 -0.3004 -0.2281
 2826TIP3    H132673   0.444   2.647   7.218 -2.5750 -0.3917 -0.9359
 2826TIP3    H232674   0.520   2.778   7.222  0.7552 -2.1943 -1.1816
 2827TIP3   OH232675   5.999   1.754   6.613  0.0499  0.3643  0.7260
 2827TIP3    H132676   6.083   1.724   6.647  1.8044  2.7822 -1.2098
 2827TIP3    H232677   6.005   1.849   6.612 -1.2531  0.5516 -2.7999
 2828TIP3   OH232678   5.498   5.423   8.777  0.1301 -0.4381 -0.2888
 2828TIP3    H132679   5.463   5.339   8.807  2.1776 -0.2251  3.1661
 2828TIP3    H232680   5.524   5.406   8.686 -2.1677 -2.5818 -0.6855
 2829TIP3   OH232681   1.982   4.142   7.773 -0.2073  0.1538 -0.5617
 2829TIP3    H132682   1.967   4.185   7.689  1.4881  0.3901 -0.7774
 2829TIP3    H232683   1.997   4.050   7.751  2.1786  0.5364 -0.7852
 2830TIP3   OH232684   7.459   3.459   9.393  0.2541  0.3674 -0.1350
 2830TIP3    H132685   7.425   3.526   9.453  0.6821  1.7529 -1.3795
 2830TIP3    H232686   7.381   3.428   9.346  0.0708  0.1010  0.3457
 2831TIP3   OH232687   1.912   3.372   8.809  0.6506  0.3166 -0.0224
 2831TIP3    H132688   2.003   3.402   8.802  0.6093  0.8118  1.2543
 2831TIP3    H232689   1.918   3.277   8.808  1.3102  0.3266  1.2076
 2832TIP3   OH232690   6.863   4.201   7.917 -0.1902  0.7477  0.3475
 2832TIP3    H132691   6.879   4.113   7.953 -0.4437 -0.1268 -1.5335
 2832TIP3    H232692   6.949   4.231   7.888 -0.1195  1.0926  0.9027
 2833TIP3   OH232693   3.254   0.752   8.990 -0.2823 -0.0685 -0.6780
 2833TIP3    H132694   3.300   0.668   8.986  0.4450  0.3348 -1.0593
 2833TIP3    H232695   3.171   0.736   8.945 -0.6723 -0.8920  0.3027
 2834TIP3   OH232696   1.083   7.600   7.952 -0.4662 -0.0252 -0.4826
 2834TIP3    H132697   1.115   7.657   7.883  0.1372 -1.0542 -1.0825
 2834TIP3    H232698   0.995   7.633   7.972  0.3643  1.9296  0.1557
 2835TIP3   OH232699   4.349   4.045   6.840 -0.0240  0.1812 -0.2305
 2835TIP3    H132700   4.270   4.081   6.879  0.2836 -0.2921  0.9055
 2835TIP3    H232701   4.414   4.114   6.849 -0.0431  0.1968 -0.2126
 2836TIP3   OH232702   2.441   3.555   8.260 -0.2479  0.2604 -0.3870
 2836TIP3    H132703   2.377   3.493   8.296 -0.6932  0.2529 -1.1728
 2836TIP3    H232704   2.496   3.578   8.335  0.9023 -2.2174 -0.3447
 2837TIP3   OH232705   1.564   7.093   7.477  0.2835 -0.1625 -0.1175
 2837TIP3    H132706   1.566   7.170   7.421  3.9867 -0.4834 -0.6556
 2837TIP3    H232707   1.504   7.033   7.433 -1.1294  1.5868 -0.7363
 2838TIP3   OH232708   3.309   1.093   9.525  0.0894  0.0321 -0.2645
 2838TIP3    H132709   3.334   1.024   9.463  1.6202  0.6734 -0.4098
 2838TIP3    H232710   3.277   1.164   9.469  1.9475  0.8098 -0.4355
 2839TIP3   OH232711   5.515   6.807   8.143 -0.4775  0.3474  0.5253
 2839TIP3    H132712   5.566   6.884   8.118  1.1239 -0.5141  0.9994
 2839TIP3    H232713   5.484   6.772   8.059 -0.6417  1.1199  0.2541
 2840TIP3   OH232714   4.631   4.163   7.898 -0.0496 -0.3134 -0.5015
 2840TIP3    H132715   4.565   4.200   7.839  0.7695  0.1166 -1.1629
 2840TIP3    H232716   4.653   4.079   7.859  0.2139 -0.1975 -0.6066
 2841TIP3   OH232717   1.114   2.118   8.211 -0.1846  0.0524  0.4526
 2841TIP3    H132718   1.085   2.037   8.253  0.8319 -0.6880 -0.2275
 2841TIP3    H232719   1.197   2.095   8.171 -1.1810  0.6388 -2.1562
 2842TIP3   OH232720   0.545   3.605   9.213 -0.5864 -0.3809  0.0400
 2842TIP3    H132721   0.573   3.540   9.149 -0.4589 -1.1735  0.8810
 2842TIP3    H232722   0.626   3.632   9.257 -0.6066  0.5175 -0.4345
 2843TIP3   OH232723   4.655   4.979   9.480  0.3351 -0.1361  0.2693
 2843TIP3    H132724   4.697   4.999   9.397  1.6393 -0.5977  0.7888
 2843TIP3    H232725   4.727   4.962   9.540 -0.5523  0.9377  1.7094
 2844TIP3   OH232726   3.903   4.422   8.437  0.2027  0.3336  0.0511
 2844TIP3    H132727   3.984   4.473   8.438 -0.7840  2.0043 -0.4522
 2844TIP3    H232728   3.867   4.434   8.525 -0.2738  0.9692 -0.2170
 2845TIP3   OH232729   7.286   5.741   8.626  0.4231  0.0437  0.0301
 2845TIP3    H132730   7.379   5.765   8.628  0.7063 -1.0384  1.4353
 2845TIP3    H232731   7.253   5.781   8.545  2.7406 -1.8484 -2.0288
 2846TIP3   OH232732   3.121   6.458   8.461 -0.5805  0.4519 -0.0304
 2846TIP3    H132733   3.063   6.530   8.436 -1.7490  0.0706  1.3924
 2846TIP3    H232734   3.088   6.382   8.413 -1.8111  0.0656  1.3558
 2847TIP3   OH232735   4.268   1.061   9.176 -1.0525 -0.8426 -0.4761
 2847TIP3    H132736   4.235   0.978   9.211  0.8007 -1.7776 -0.7945
 2847TIP3    H232737   4.190   1.115   9.164 -2.2618 -2.3464  0.2178
 2848TIP3   OH232738   7.482   7.366   8.053  0.3267  0.3156 -0.4934
 2848TIP3    H132739   7.408   7.363   8.113  0.1039  1.3223 -0.7139
 2848TIP3    H232740   7.543   7.300   8.087  0.1128  0.7285  0.7167
 2849TIP3   OH232741   6.498   2.260   8.559  0.6916  0.5920 -0.4150
 2849TIP3    H132742   6.491   2.347   8.598  2.6338  0.6737 -0.1145
 2849TIP3    H232743   6.581   2.226   8.592 -0.2477 -1.5950 -0.1371
 2850TIP3   OH232744   0.862   0.980   6.946 -0.0774  0.1994 -0.5438
 2850TIP3    H132745   0.949   0.950   6.970 -0.2994  0.4005  0.5895
 2850TIP3    H232746   0.821   0.904   6.905  1.4024  0.7805 -3.3089
 2851TIP3   OH232747   1.657   0.101   8.011  0.5312 -0.5943  0.6002
 2851TIP3    H132748   1.723   0.035   7.989 -0.7116 -0.7163 -3.6640
 2851TIP3    H232749   1.574   0.055   8.005 -0.2233 -0.0612  4.3236
 2852TIP3   OH232750   2.868   7.451   7.899  0.2792  0.5572  0.6338
 2852TIP3    H132751   2.844   7.371   7.945  0.3199  0.9920  1.4422
 2852TIP3    H232752   2.898   7.422   7.813 -1.3980 -0.1526  0.2401
 2853TIP3   OH232753   6.778   5.359   9.308  0.1432 -0.8225 -0.0930
 2853TIP3    H132754   6.799   5.305   9.232 -0.4099 -0.0117 -0.8462
 2853TIP3    H232755   6.857   5.354   9.363  0.1604 -2.2480 -0.2033
 2854TIP3   OH232756   3.820   3.128   7.391 -0.0145  0.0910 -0.1795
 2854TIP3    H132757   3.746   3.187   7.406 -1.2625 -1.1963 -1.0092
 2854TIP3    H232758   3.866   3.125   7.475 -1.6633 -0.0793  0.7624
 2855TIP3   OH232759   7.243   2.223   7.824 -0.3122 -0.1039 -0.0517
 2855TIP3    H132760   7.210   2.148   7.874 -0.3891 -0.6435 -0.8874
 2855TIP3    H232761   7.234   2.297   7.883 -0.7682 -0.6585  0.5900
 2856TIP3   OH232762   6.246   4.490   6.471 -0.8532 -0.4018  0.1048
 2856TIP3    H132763   6.193   4.551   6.419 -1.0375  0.0950  0.8557
 2856TIP3    H232764   6.291   4.436   6.407  0.0556  1.1458 -0.6118
 2857TIP3   OH232765   3.246   5.297   7.240 -0.2292  0.0983 -0.4667
 2857TIP3    H132766   3.305   5.241   7.290 -0.6989 -0.7229 -0.8227
 2857TIP3    H232767   3.293   5.315   7.159  0.6623  1.6773  0.3432
 2858TIP3   OH232768   1.461   6.748   6.994  0.0258  0.4392  0.0121
 2858TIP3    H132769   1.499   6.789   6.916  0.6630 -0.6731 -0.2856
 2858TIP3    H232770   1.390   6.692   6.959 -0.1300  0.4593  0.2974
 2859TIP3   OH232771   4.803   2.959   7.753 -0.3608 -0.1492 -0.3345
 2859TIP3    H132772   4.898   2.970   7.743 -0.4540  0.0182 -1.0937
 2859TIP3    H232773   4.765   3.016   7.686 -1.0117  0.1736  0.3008
 2860TIP3   OH232774   1.279   6.077   7.710 -0.5959 -0.5383  0.0541
 2860TIP3    H132775   1.333   6.154   7.696 -1.5040  0.0065 -0.6403
 2860TIP3    H232776   1.274   6.067   7.805  0.1843 -0.2194  0.1301
 2861TIP3   OH232777   4.762   3.517   7.768  0.0924 -0.5574  0.0923
 2861TIP3    H132778   4.741   3.527   7.675  1.9323  0.9981 -0.2185
 2861TIP3    H232779   4.677   3.509   7.811 -1.0125  1.9465 -1.3941
 2862TIP3   OH232780   4.410   5.826   8.722 -0.2352 -0.3949  0.7948
 2862TIP3    H132781   4.435   5.887   8.792 -0.8380  1.4904 -0.5358
 2862TIP3    H232782   4.339   5.774   8.760 -1.5626  1.5849  1.1911
 2863TIP3   OH232783   5.418   7.340   7.857  0.0482  0.5736  0.1001
 2863TIP3    H132784   5.422   7.356   7.763 -0.9823  0.8695  0.0929
 2863TIP3    H232785   5.466   7.413   7.896 -0.4255  1.0340 -0.1571
 2864TIP3   OH232786   4.194   5.971   9.352 -0.1054  0.0641  0.0392
 2864TIP3    H132787   4.278   5.932   9.376 -0.7774 -1.1708  0.4535
 2864TIP3    H232788   4.147   5.979   9.435 -0.5893  0.3089 -0.2575
 2865TIP3   OH232789   5.685   3.751   7.838  0.7324  0.0681 -0.0588
 2865TIP3    H132790   5.603   3.709   7.864  0.6589 -0.1424 -0.6024
 2865TIP3    H232791   5.730   3.771   7.920  1.6996 -2.8659  0.2208
 2866TIP3   OH232792   3.698   5.322   7.811  0.1921  0.1486 -0.6752
 2866TIP3    H132793   3.730   5.336   7.722 -1.0666  1.2436 -0.9755
 2866TIP3    H232794   3.612   5.364   7.814 -0.3691 -0.9744  0.6858
 2867TIP3   OH232795   6.135   2.654   6.459 -0.2334 -0.7052  0.2410
 2867TIP3    H132796   6.191   2.645   6.382  0.0788 -1.1848  0.5197
 2867TIP3    H232797   6.169   2.589   6.521 -1.0795 -0.9826  0.4259
 2868TIP3   OH232798   6.174   3.274   8.123 -0.0260  0.3647  0.1465
 2868TIP3    H132799   6.179   3.349   8.063  2.8030  1.4255  1.5211
 2868TIP3    H232800   6.152   3.313   8.207  0.8119 -0.4375  0.7440
 2869TIP3   OH232801   5.777   4.043   7.925  0.1244 -1.0313 -0.6550
 2869TIP3    H132802   5.866   4.030   7.957  0.8033 -0.1940 -2.1089
 2869TIP3    H232803   5.784   4.034   7.830 -0.8404  1.4752 -1.0401
 2870TIP3   OH232804   7.049   7.187   8.142 -0.4502 -0.5783  0.1458
 2870TIP3    H132805   7.014   7.146   8.221 -0.0708  1.4349  1.4385
 2870TIP3    H232806   6.973   7.228   8.101 -0.4814 -0.7692  0.0125
 2871TIP3   OH232807   5.928   5.471   7.448  0.2022  0.0580 -0.2309
 2871TIP3    H132808   5.878   5.548   7.420  0.5000 -0.3016 -1.8218
 2871TIP3    H232809   5.991   5.456   7.378  1.1649 -0.7467  0.7741
 2872TIP3   OH232810   1.763   0.632   8.300 -0.4170 -0.0921 -0.6725
 2872TIP3    H132811   1.764   0.711   8.245 -2.0190 -0.3846 -1.1699
 2872TIP3    H232812   1.723   0.661   8.383 -0.7890 -0.3198 -0.7702
 2873TIP3   OH232813   0.771   1.562   7.981 -0.0244  0.3250  0.4357
 2873TIP3    H132814   0.819   1.543   8.062 -1.2209 -0.6379  0.9649
 2873TIP3    H232815   0.751   1.476   7.944  0.0885  0.7511 -0.6418
 2874TIP3   OH232816   6.699   6.240   7.258  0.1330 -0.7818  0.1297
 2874TIP3    H132817   6.675   6.240   7.165 -1.0176 -1.1443  0.4192
 2874TIP3    H232818   6.699   6.332   7.283  2.0586 -0.5193 -0.6013
 2875TIP3   OH232819   0.627   2.948   7.133  0.3013 -0.1265 -0.2151
 2875TIP3    H132820   0.604   3.040   7.121  0.8885  0.0510 -0.0158
 2875TIP3    H232821   0.723   2.947   7.132  0.3123 -0.6302  0.5568
 2876TIP3   OH232822   3.466   5.424   8.365  0.8752 -0.8882 -0.5588
 2876TIP3    H132823   3.558   5.408   8.388  0.8662  0.6411  0.7692
 2876TIP3    H232824   3.443   5.502   8.416 -0.8606 -0.6373 -1.6741
 2877TIP3   OH232825   3.111   4.505   9.074 -0.4744 -0.6119 -0.1124
 2877TIP3    H132826   3.020   4.524   9.098 -0.3616 -1.9725  1.5750
 2877TIP3    H232827   3.127   4.417   9.108  0.9438 -1.1518 -1.9904
 2878TIP3   OH232828   3.284   4.360   9.425 -1.1641  0.0451  0.3496
 2878TIP3    H132829   3.198   4.317   9.427 -2.5309  2.4643 -1.4451
 2878TIP3    H232830   3.275   4.434   9.485 -0.6018  0.7715 -0.4463
 2879TIP3   OH232831   6.630   3.364   6.858 -0.0463 -0.5871  0.0742
 2879TIP3    H132832   6.643   3.428   6.929  3.5995  0.6219 -1.4425
 2879TIP3    H232833   6.693   3.295   6.876 -1.4952 -2.0518 -0.2249
 2880TIP3   OH232834   0.634   4.884   9.257  0.7656 -0.3336  0.6453
 2880TIP3    H132835   0.648   4.826   9.182 -0.4407  0.4402 -0.2133
 2880TIP3    H232836   0.722   4.904   9.289  1.4021  0.2627 -1.3196
 2881TIP3   OH232837   4.942   1.143   8.916  0.0604 -0.2668  0.2918
 2881TIP3    H132838   4.975   1.169   8.830 -0.4104  1.3781  0.5770
 2881TIP3    H232839   4.860   1.191   8.926 -0.5609 -1.4482  1.1282
 2882TIP3   OH232840   0.172   4.918   8.621  0.2717  0.4983 -0.0171
 2882TIP3    H132841   0.153   4.985   8.687 -0.9380 -0.2419  0.4370
 2882TIP3    H232842   0.152   4.961   8.538  0.3060  0.9586  0.2055
 2883TIP3   OH232843   6.852   1.425   7.081  0.1269  0.2297 -0.0517
 2883TIP3    H132844   6.919   1.415   7.013  0.6161 -0.1267  0.4746
 2883TIP3    H232845   6.900   1.456   7.157  0.0511 -1.9051  0.9335
 2884TIP3   OH232846   1.357   7.405   8.869  0.6793 -0.5391  0.2117
 2884TIP3    H132847   1.343   7.479   8.929  1.7881  0.2733 -0.4807
 2884TIP3    H232848   1.339   7.328   8.922  0.2438  0.2008  1.1819
 2885TIP3   OH232849   5.938   1.153   8.303  0.0004 -0.0061  0.6492
 2885TIP3    H132850   5.891   1.142   8.386  0.0631 -1.6154  0.4939
 2885TIP3    H232851   5.869   1.158   8.237 -0.0039 -0.4482  0.6205
 2886TIP3   OH232852   5.418   4.894   8.516 -0.1734 -0.1206  0.2714
 2886TIP3    H132853   5.470   4.969   8.543 -0.7639 -0.3883  2.2721
 2886TIP3    H232854   5.459   4.865   8.434 -0.0950  2.5003 -0.7190
 2887TIP3   OH232855   6.761   1.794   7.778  0.4501  0.2304  0.1542
 2887TIP3    H132856   6.782   1.705   7.750  0.2187  0.4210 -0.6618
 2887TIP3    H232857   6.846   1.834   7.798  0.5229 -0.2909  0.9220
 2888TIP3   OH232858   6.927   4.669   8.865  0.2374 -0.0964  0.3370
 2888TIP3    H132859   6.870   4.685   8.940 -0.8835 -1.3172 -0.2321
 2888TIP3    H232860   7.014   4.696   8.896 -0.3899  0.4906  1.6765
 2889TIP3   OH232861   7.329   4.903   9.117 -0.6250  0.6940 -0.7358
 2889TIP3    H132862   7.366   4.931   9.201 -1.2401 -0.3362 -0.1041
 2889TIP3    H232863   7.405   4.888   9.061 -0.0944 -0.5751  0.2804
 2890TIP3   OH232864   1.163   2.526   8.628 -0.2406  0.2460 -0.6784
 2890TIP3    H132865   1.090   2.495   8.575 -0.2070  0.6868 -0.9906
 2890TIP3    H232866   1.138   2.614   8.655 -0.4489 -0.1398  0.4149
 2891TIP3   OH232867   3.802   1.873   9.350 -0.1343 -0.1934 -0.0223
 2891TIP3    H132868   3.731   1.938   9.353 -1.3111 -1.3356 -1.3830
 2891TIP3    H232869   3.882   1.925   9.359 -0.9923  1.5659 -1.6585
 2892TIP3   OH232870   6.791   3.704   9.195 -0.0195  0.3726 -0.4777
 2892TIP3    H132871   6.738   3.667   9.124 -1.0995 -0.9224  0.9473
 2892TIP3    H232872   6.822   3.628   9.244 -2.3949  1.2054  2.6141
 2893TIP3   OH232873   2.258   1.125   7.548 -0.2813 -0.3175  0.3519
 2893TIP3    H132874   2.287   1.211   7.517 -0.9205  0.4070  1.6780
 2893TIP3    H232875   2.165   1.121   7.523 -0.9349  0.4624  2.3753
 2894TIP3   OH232876   7.284   1.018   9.435  0.1712  0.3094 -0.5923
 2894TIP3    H132877   7.353   1.084   9.432  0.8679 -0.1186  2.5001
 2894TIP3    H232878   7.208   1.064   9.470  0.3523 -0.2390  0.5736
 2895TIP3   OH232879   6.755   2.219   8.642  0.1305 -0.0468  0.2498
 2895TIP3    H132880   6.806   2.258   8.571  0.6629  0.8836  1.1258
 2895TIP3    H232881   6.802   2.139   8.665  2.0620  1.4843  1.9813
 2896TIP3   OH232882   5.229   6.108   9.001 -0.7786 -0.0420 -0.4105
 2896TIP3    H132883   5.157   6.077   9.056 -0.6930 -0.2408 -0.4100
 2896TIP3    H232884   5.221   6.057   8.920 -1.7703  1.2458 -1.1706
 2897TIP3   OH232885   5.562   6.743   7.731  0.0732  0.4490 -0.0317
 2897TIP3    H132886   5.650   6.780   7.727  0.1411  0.1939 -1.5093
 2897TIP3    H232887   5.511   6.794   7.668 -0.7600  0.3601  0.5448
 2898TIP3   OH232888   7.215   0.357   7.230 -0.0794  0.2682 -0.4232
 2898TIP3    H132889   7.167   0.415   7.171 -0.0452  0.6022 -0.1253
 2898TIP3    H232890   7.215   0.272   7.185 -1.3913  0.1272 -0.2097
 2899TIP3   OH232891   1.620   2.876   7.538  0.0972 -0.0283  0.1064
 2899TIP3    H132892   1.622   2.814   7.610  0.7123 -0.1284  0.0104
 2899TIP3    H232893   1.586   2.826   7.463  1.6382 -0.5926 -0.2652
 2900TIP3   OH232894   5.984   7.533   6.973  0.3969  0.5686  0.0356
 2900TIP3    H132895   5.921   7.605   6.980 -0.6007 -0.3281  0.6372
 2900TIP3    H232896   6.066   7.570   7.005  0.2891  1.8571 -1.0546
 2901TIP3   OH232897   6.414   7.588   7.346 -0.4641 -0.3835 -0.2725
 2901TIP3    H132898   6.423   7.493   7.356  0.6468 -0.4904 -1.9234
 2901TIP3    H232899   6.344   7.599   7.282 -1.1966 -0.0284  0.5621
 2902TIP3   OH232900   3.712   0.785   7.749 -0.0696 -0.5828 -0.8179
 2902TIP3    H132901   3.758   0.703   7.766 -1.1000 -0.9987  0.0331
 2902TIP3    H232902   3.747   0.814   7.665  0.8599 -1.4982 -0.7721
 2903TIP3   OH232903   3.319   4.460   7.445 -0.5607  0.2477 -1.0786
 2903TIP3    H132904   3.282   4.548   7.451  3.2213  2.0389 -1.1471
 2903TIP3    H232905   3.347   4.451   7.354 -0.1129 -0.6869 -0.8610
 2904TIP3   OH232906   5.470   6.050   8.675  0.0923 -0.1742  0.6534
 2904TIP3    H132907   5.544   6.018   8.623  0.2400 -0.5648  1.0966
 2904TIP3    H232908   5.433   6.120   8.622 -0.1569 -0.9870 -0.2791
 2905TIP3   OH232909   7.546   3.749   9.244 -0.1492 -0.2815  0.5951
 2905TIP3    H132910   7.535   3.821   9.306  0.0586 -0.5096  0.8981
 2905TIP3    H232911   7.456   3.723   9.223 -0.2507  0.5915 -0.1459
 2906TIP3   OH232912   4.569   6.998   7.953  0.0522  0.6338  0.2603
 2906TIP3    H132913   4.663   7.000   7.938  0.0409  1.4120  0.2596
 2906TIP3    H232914   4.550   6.907   7.975  0.8980  0.5995  0.8956
 2907TIP3   OH232915   2.199   6.641   7.817 -0.3917 -0.4485 -0.4861
 2907TIP3    H132916   2.219   6.549   7.799  0.4513 -0.5239  0.7435
 2907TIP3    H232917   2.105   6.641   7.835 -0.5461 -0.9350 -1.2135
 2908TIP3   OH232918   3.377   2.001   9.735 -0.7989  0.5031  0.2658
 2908TIP3    H132919   3.361   1.974   9.825 -1.3819 -1.3401 -0.3546
 2908TIP3    H232920   3.407   1.922   9.691  2.5734  1.9900 -0.5071
 2909TIP3   OH232921   4.453   4.281   7.685  0.1179 -0.0773  0.1474
 2909TIP3    H132922   4.513   4.355   7.678  0.2970 -0.2219  0.1416
 2909TIP3    H232923   4.378   4.305   7.631  0.6337 -0.3475 -0.7143
 2910TIP3   OH232924   2.779   5.657   9.556  0.6827 -0.5333 -0.3842
 2910TIP3    H132925   2.715   5.696   9.496  2.0805  1.1725 -0.8348
 2910TIP3    H232926   2.820   5.587   9.506  0.2275 -0.6497 -0.6036
 2911TIP3   OH232927   4.111   0.193   8.268  0.1934  0.2407  0.2348
 2911TIP3    H132928   4.140   0.103   8.280  2.0398  0.9543  1.6302
 2911TIP3    H232929   4.152   0.221   8.186  1.5618  0.4858  0.9717
 2912TIP3   OH232930   1.200   7.565   7.525 -0.4537  0.3757 -0.0096
 2912TIP3    H132931   1.145   7.538   7.598 -0.4813 -1.3827 -0.6207
 2912TIP3    H232932   1.157   7.642   7.489 -2.0500 -0.4502  0.0682
 2913TIP3   OH232933   1.742   3.533   8.468  0.7470 -0.4967 -0.3224
 2913TIP3    H132934   1.662   3.514   8.419  1.5503 -1.7711 -1.1914
 2913TIP3    H232935   1.718   3.518   8.559  0.1656 -1.5827 -0.6286
 2914TIP3   OH232936   0.460   3.018   8.311  0.3022  0.1004  0.9339
 2914TIP3    H132937   0.431   3.110   8.316 -0.1257  0.1262 -1.1642
 2914TIP3    H232938   0.544   3.022   8.268 -0.5415 -0.5922 -0.8567
 2915TIP3   OH232939   1.854   0.256   8.606  0.3646 -0.3058  0.4707
 2915TIP3    H132940   1.894   0.304   8.533 -0.6183  0.9884  0.7476
 2915TIP3    H232941   1.832   0.170   8.569  1.5717 -0.3380 -0.2218
 2916TIP3   OH232942   5.397   3.049   8.469  1.0816  0.0943 -0.0955
 2916TIP3    H132943   5.398   2.970   8.522  1.7476  1.2203  1.6655
 2916TIP3    H232944   5.415   3.019   8.380  0.4234 -1.8062  0.3764
 2917TIP3   OH232945   2.562   3.442   7.479  0.5381 -0.1006 -0.0080
 2917TIP3    H132946   2.567   3.372   7.413  0.2690  1.4330 -1.7475
 2917TIP3    H232947   2.613   3.514   7.441  1.7239  0.3132  2.2305
 2918TIP3   OH232948   4.472   7.636   8.509 -0.0111  0.1125 -0.3673
 2918TIP3    H132949   4.458   7.720   8.553 -0.0249  0.4858 -1.0524
 2918TIP3    H232950   4.564   7.638   8.481 -0.8736  1.5928 -3.6609
 2919TIP3   OH232951   4.626   2.644   8.232 -0.2789 -0.1871  0.3421
 2919TIP3    H132952   4.553   2.627   8.173  0.5699 -1.0843 -0.4915
 2919TIP3    H232953   4.701   2.602   8.190  0.9536  1.5789  0.6517
 2920TIP3   OH232954   5.312   1.159   7.589 -0.4808 -0.1471  0.4231
 2920TIP3    H132955   5.287   1.241   7.630 -1.1395  1.7791 -3.3925
 2920TIP3    H232956   5.228   1.118   7.565 -0.2408  0.7269 -2.2556
 2921TIP3   OH232957   5.933   5.158   9.546  0.2756  0.6861 -0.6116
 2921TIP3    H132958   6.024   5.168   9.573  0.1400  1.0175 -0.2577
 2921TIP3    H232959   5.926   5.067   9.518  0.5434  0.4565  0.0435
 2922TIP3   OH232960   2.763   5.033   9.178 -0.3271  0.0468 -0.4940
 2922TIP3    H132961   2.818   4.973   9.228 -0.3368 -0.1137 -0.6780
 2922TIP3    H232962   2.721   5.088   9.245  1.3624  1.3248 -0.4252
 2923TIP3   OH232963   3.962   1.117   7.741 -0.1784  0.5071  0.2175
 2923TIP3    H132964   3.938   1.208   7.723 -0.8088  0.2350 -0.3593
 2923TIP3    H232965   4.052   1.110   7.711 -0.0018  1.0252  0.5905
 2924TIP3   OH232966   5.509   1.155   8.670 -0.1733  0.0197  0.2046
 2924TIP3    H132967   5.520   1.106   8.752 -3.1435 -1.7162 -0.2476
 2924TIP3    H232968   5.461   1.095   8.613  0.1597  1.8481 -2.1747
 2925TIP3   OH232969   0.469   7.337   8.831 -0.0297  0.4789  0.2492
 2925TIP3    H132970   0.443   7.246   8.845  1.0588 -0.1584 -1.6059
 2925TIP3    H232971   0.422   7.386   8.899  0.8719 -1.6756  2.6047
 2926TIP3   OH232972   6.133   2.474   9.417  0.2997 -0.0040 -0.3533
 2926TIP3    H132973   6.052   2.441   9.379  0.0930 -1.1625  1.0239
 2926TIP3    H232974   6.143   2.425   9.498  3.4358 -1.4449 -1.4483
 2927TIP3   OH232975   2.830   6.303   9.152  0.4165  0.1283 -0.0608
 2927TIP3    H132976   2.861   6.217   9.179 -0.0367  0.7505  2.6753
 2927TIP3    H232977   2.770   6.285   9.079  3.4640 -1.4388 -2.4276
 2928TIP3   OH232978   5.850   4.196   8.537 -0.3896  0.1664 -0.3124
 2928TIP3    H132979   5.870   4.172   8.628  0.8890  3.3003  0.3785
 2928TIP3    H232980   5.755   4.210   8.537 -0.5283 -0.6627  0.2927
 2929TIP3   OH232981   5.714   6.022   7.089  0.4520  0.1971 -0.3640
 2929TIP3    H132982   5.738   6.071   7.168 -0.5318 -0.4835  0.3848
 2929TIP3    H232983   5.629   6.058   7.064  0.7020  0.3187 -1.0498
 2930TIP3   OH232984   3.696   6.867   9.034  0.1732 -0.0272  0.2613
 2930TIP3    H132985   3.639   6.845   8.961 -0.7830 -1.1068  1.3013
 2930TIP3    H232986   3.663   6.951   9.066 -1.0335 -0.7721  1.0261
 2931TIP3   OH232987   2.948   0.391   9.271 -0.6542  0.5901 -0.1842
 2931TIP3    H132988   3.029   0.398   9.322 -0.7158  0.4333 -0.0660
 2931TIP3    H232989   2.977   0.398   9.180 -0.6028  1.4354 -0.1116
 2932TIP3   OH232990   7.677   1.774   6.789 -0.4544  0.0035 -0.3441
 2932TIP3    H132991   7.754   1.726   6.757 -0.6416 -1.7344  1.6139
 2932TIP3    H232992   7.605   1.713   6.782 -0.9987  0.4585  0.8854
 2933TIP3   OH232993   6.861   0.204   8.495  0.6241 -0.5023 -0.1957
 2933TIP3    H132994   6.833   0.129   8.443 -1.5040 -0.9549  1.4781
 2933TIP3    H232995   6.918   0.166   8.562 -1.2171 -0.8656  1.2452
 2934TIP3   OH232996   4.106   6.298   7.204  0.2145  0.6580  0.4127
 2934TIP3    H132997   4.100   6.394   7.207  0.2439  0.6384  1.4357
 2934TIP3    H232998   4.030   6.272   7.151  0.6961  1.2776 -0.6254
 2935TIP3   OH232999   0.359   6.489   8.073 -0.5441 -0.3527  0.4124
 2935TIP3    H133000   0.330   6.562   8.018 -2.9742 -1.1244  0.5730
 2935TIP3    H233001   0.279   6.455   8.113  0.6529 -2.4036  1.2370
 2936TIP3   OH233002   2.423   3.837   6.761 -0.0363 -0.0108 -0.4937
 2936TIP3    H133003   2.399   3.877   6.845  0.7471  0.4611 -0.4840
 2936TIP3    H233004   2.398   3.745   6.770  2.7818 -0.7202  1.4337
 2937TIP3   OH233005   6.430   5.980   8.239  0.0861 -0.3321  0.2446
 2937TIP3    H133006   6.378   6.051   8.278  1.0354 -0.1811  1.3059
 2937TIP3    H233007   6.371   5.905   8.238 -0.4202  0.0496  0.6465
 2938TIP3   OH233008   7.526   3.743   7.561 -0.5514 -0.3751 -0.2684
 2938TIP3    H133009   7.520   3.710   7.471 -1.7903 -2.3657  0.4861
 2938TIP3    H233010   7.451   3.801   7.570 -1.3182 -1.3684 -0.0897
 2939TIP3   OH233011   0.183   1.790   7.792 -0.1563  0.3187  0.0732
 2939TIP3    H133012   0.132   1.794   7.872  0.4472 -0.7401  0.5368
 2939TIP3    H233013   0.123   1.754   7.727 -0.1829 -0.3212  0.4505
 2940TIP3   OH233014   6.949   0.398   6.435  0.1772 -0.4513  0.0047
 2940TIP3    H133015   6.974   0.486   6.406  0.4466 -0.5306 -0.0080
 2940TIP3    H233016   6.987   0.391   6.523 -0.1034 -0.4425  0.1275
 2941TIP3   OH233017   3.667   6.580   9.478  0.1005 -0.1219  0.1687
 2941TIP3    H133018   3.754   6.587   9.439 -0.7826 -0.2465 -1.9290
 2941TIP3    H233019   3.635   6.495   9.449 -0.9108  0.1335  0.5076
 2942TIP3   OH233020   6.931   0.619   7.500 -0.5620  0.4979  0.7080
 2942TIP3    H133021   6.919   0.669   7.420 -1.3929  0.6542  0.9287
 2942TIP3    H233022   7.009   0.565   7.483 -0.4428  0.8884 -0.0122
 2943TIP3   OH233023   0.832   1.995   9.110  0.7025  0.3288 -0.0339
 2943TIP3    H133024   0.837   1.900   9.097  0.4547  0.4898 -1.5957
 2943TIP3    H233025   0.871   2.010   9.196  2.6010 -1.0093 -0.5875
 2944TIP3   OH233026   2.805   3.161   8.967 -0.0743 -0.1015 -0.3570
 2944TIP3    H133027   2.857   3.214   8.906 -0.4466  0.1414 -0.4701
 2944TIP3    H233028   2.743   3.223   9.005 -3.1395 -1.0770 -3.2989
 2945TIP3   OH233029   0.354   2.661   9.295  0.9047  0.4020  0.1108
 2945TIP3    H133030   0.403   2.717   9.355  1.0729  0.8013 -0.3922
 2945TIP3    H233031   0.357   2.707   9.211 -1.3732  1.0658  0.3229
 2946TIP3   OH233032   5.179   2.281   9.294  0.1079  0.3088 -0.0188
 2946TIP3    H133033   5.184   2.370   9.330 -1.4806  0.8452 -1.0268
 2946TIP3    H233034   5.265   2.266   9.255  0.5739  1.1920  0.6398
 2947TIP3   OH233035   3.644   2.177   7.623 -0.5870 -0.5605  0.2953
 2947TIP3    H133036   3.665   2.251   7.679 -0.1202 -0.4724  0.0099
 2947TIP3    H233037   3.629   2.104   7.684  0.3988 -0.5861  0.5272
 2948TIP3   OH233038   0.153   4.204   8.726 -0.5264  0.0437 -0.0032
 2948TIP3    H133039   0.206   4.135   8.767 -2.5241 -2.0012 -0.6112
 2948TIP3    H233040   0.150   4.274   8.792 -0.2672 -1.4104  1.6438
 2949TIP3   OH233041   0.932   5.618   7.682 -0.4696 -0.3590  0.4053
 2949TIP3    H133042   0.887   5.647   7.761  1.7939  0.4451  1.4919
 2949TIP3    H233043   0.974   5.697   7.648 -0.7236 -0.8580 -1.1522
 2950TIP3   OH233044   4.685   1.010   9.218  0.0070 -0.5309 -0.3607
 2950TIP3    H133045   4.779   0.993   9.216 -0.1061 -1.9854  2.1370
 2950TIP3    H233046   4.674   1.077   9.286 -0.6089  1.5936 -2.4262
 2951TIP3   OH233047   3.638   4.579   8.620  0.0295 -0.2213  0.3482
 2951TIP3    H133048   3.587   4.639   8.565 -0.6477 -1.8658 -0.8937
 2951TIP3    H233049   3.582   4.564   8.697 -1.1332 -1.4949 -0.6981
 2952TIP3   OH233050   4.624   3.715   8.073 -0.0932  0.4011 -0.5389
 2952TIP3    H133051   4.541   3.685   8.112 -0.5150  0.8396 -1.0851
 2952TIP3    H233052   4.683   3.641   8.084 -1.1109 -0.6596 -1.8317
 2953TIP3   OH233053   4.756   7.181   7.654 -0.2152 -0.4141  0.0467
 2953TIP3    H133054   4.781   7.260   7.607  1.5684 -1.9480 -1.8146
 2953TIP3    H233055   4.667   7.163   7.626 -0.8417  1.1828  0.9228
 2954TIP3   OH233056   4.202   6.930   8.888  0.0124 -0.1042 -0.1867
 2954TIP3    H133057   4.181   6.959   8.799 -1.0459 -0.7768 -0.1638
 2954TIP3    H233058   4.122   6.890   8.920  0.1666  0.7427  1.3405
 2955TIP3   OH233059   1.425   7.058   7.110  0.0545  0.2695 -0.0342
 2955TIP3    H133060   1.491   7.100   7.055  0.9145 -0.9090  0.0593
 2955TIP3    H233061   1.369   7.009   7.049  2.2620 -2.7883  0.1425
 2956TIP3   OH233062   3.008   0.092   8.234 -0.3113  0.3386  0.2712
 2956TIP3    H133063   3.023   0.015   8.289 -1.5962  0.6373  1.0886
 2956TIP3    H233064   2.975   0.159   8.294  0.0148  1.2830 -0.5621
 2957TIP3   OH233065   0.931   6.266   6.997  0.4826 -0.3092  0.0640
 2957TIP3    H133066   0.919   6.214   7.076  2.2792  0.5221  0.9262
 2957TIP3    H233067   1.018   6.243   6.965  2.2746  3.4241  1.5780
 2958TIP3   OH233068   4.430   5.734   7.608 -0.9808  0.0898 -0.2781
 2958TIP3    H133069   4.477   5.795   7.551  0.9037 -1.3431 -0.3468
 2958TIP3    H233070   4.447   5.648   7.571 -0.4019 -0.8185  1.9576
 2959TIP3   OH233071   2.298   5.752   9.213 -0.3708  0.3632  0.0709
 2959TIP3    H133072   2.220   5.782   9.166 -0.5520 -0.2175 -0.0062
 2959TIP3    H233073   2.269   5.676   9.262  0.2434 -0.1193 -0.2956
 2960TIP3   OH233074   6.593   7.386   6.789  0.3976 -0.1847 -0.1667
 2960TIP3    H133075   6.616   7.453   6.725  0.5216 -0.5519 -0.5108
 2960TIP3    H233076   6.516   7.420   6.833  0.7955  0.4417  0.0570
 2961TIP3   OH233077   7.622   3.307   8.305  0.6074 -0.4928 -0.1048
 2961TIP3    H133078   7.645   3.250   8.232 -2.8695 -2.4675  0.1035
 2961TIP3    H233079   7.549   3.360   8.273 -0.9238 -1.3247  1.7603
 2962TIP3   OH233080   5.561   5.717   8.762 -0.2070  0.5720  0.2428
 2962TIP3    H133081   5.507   5.637   8.764 -1.5698  1.4719  2.1976
 2962TIP3    H233082   5.557   5.745   8.670  0.0831 -1.4217 -0.4425
 2963TIP3   OH233083   1.084   2.156   7.326  0.2934 -0.7140  0.0783
 2963TIP3    H133084   1.163   2.163   7.380  0.4186 -0.3372 -0.1484
 2963TIP3    H233085   1.013   2.184   7.383  0.6753  1.8441 -0.5526
 2964TIP3   OH233086   7.301   5.770   7.012  1.1081 -0.0843 -0.1981
 2964TIP3    H133087   7.297   5.734   7.101 -0.2404  0.2334 -0.0997
 2964TIP3    H233088   7.323   5.862   7.025 -1.1454  0.4901  0.0152
 2965TIP3   OH233089   2.334   3.827   7.914 -0.1634 -0.3157  0.2953
 2965TIP3    H133090   2.267   3.776   7.960  0.2011  0.7823  2.1833
 2965TIP3    H233091   2.407   3.831   7.976  1.2268 -0.5425 -1.2800
 2966TIP3   OH233092   6.344   6.534   6.848  0.0468  0.2736 -0.1164
 2966TIP3    H133093   6.303   6.458   6.890  0.7400 -2.3063 -3.6469
 2966TIP3    H233094   6.437   6.514   6.848  0.1831  0.7691 -1.6249
 2967TIP3   OH233095   0.445   4.951   9.032  0.1539  0.3149  0.2832
 2967TIP3    H133096   0.538   4.974   9.033  0.1477  0.4293 -0.7425
 2967TIP3    H233097   0.440   4.877   8.971 -0.3593 -0.0510  0.7529
 2968TIP3   OH233098   2.959   5.237   7.256 -0.5498  0.4836  0.3637
 2968TIP3    H133099   2.933   5.227   7.165 -0.6093  1.8786  0.1959
 2968TIP3    H233100   3.037   5.182   7.265 -0.3888  0.5313 -0.6053
 2969TIP3   OH233101   5.658   4.958   8.788  0.1705 -0.0300  0.0324
 2969TIP3    H133102   5.637   4.865   8.779  1.6238 -0.5666  1.5287
 2969TIP3    H233103   5.636   4.997   8.704  0.9400 -2.0215 -1.1480
 2970TIP3   OH233104   5.303   3.575   7.351 -0.5042 -0.7355 -0.1589
 2970TIP3    H133105   5.392   3.569   7.388 -0.1220  0.1884 -0.8945
 2970TIP3    H233106   5.299   3.503   7.288 -0.6009 -1.3218  0.4962
 2971TIP3   OH233107   5.654   4.552   6.857  0.1637 -0.0770 -0.3195
 2971TIP3    H133108   5.608   4.633   6.879 -1.2122 -0.6717 -0.8514
 2971TIP3    H233109   5.594   4.483   6.886  0.2407 -0.8900 -1.9702
 2972TIP3   OH233110   3.627   5.593   7.916  0.1046 -0.0694  0.2117
 2972TIP3    H133111   3.679   5.644   7.854  0.6828  0.8095  1.3748
 2972TIP3    H233112   3.690   5.564   7.982 -0.3652 -1.6384 -0.0050
 2973TIP3   OH233113   2.655   6.618   7.903  0.4123 -0.2832  0.0901
 2973TIP3    H133114   2.722   6.645   7.966 -0.9034 -1.0622  1.8967
 2973TIP3    H233115   2.586   6.684   7.911  0.0945 -0.5595 -0.3065
 2974TIP3   OH233116   6.430   5.908   7.370  0.0020 -0.1885  0.2498
 2974TIP3    H133117   6.364   5.849   7.334 -1.2168  1.3577 -0.1694
 2974TIP3    H233118   6.379   5.981   7.405  1.5411  1.7514 -1.3636
 2975TIP3   OH233119   4.197   3.283   7.550 -0.0488  0.0002 -0.5067
 2975TIP3    H133120   4.209   3.267   7.644 -0.4240 -0.2945 -0.5084
 2975TIP3    H233121   4.267   3.344   7.527  1.5556 -1.7645 -0.5364
 2976TIP3   OH233122   4.244   3.353   6.841 -0.4707 -0.1355  0.1101
 2976TIP3    H133123   4.318   3.294   6.832  0.9397  1.2655  1.7536
 2976TIP3    H233124   4.173   3.299   6.875 -0.6077 -1.7156 -2.4039
 2977TIP3   OH233125   4.871   2.055   8.217  0.3226 -0.3208  0.6171
 2977TIP3    H133126   4.932   2.108   8.166 -0.9195  0.6078  0.0274
 2977TIP3    H233127   4.857   2.104   8.297 -1.0817  0.4682 -0.0691
 2978TIP3   OH233128   6.107   6.775   7.294  1.1318  0.2001 -0.0693
 2978TIP3    H133129   6.129   6.864   7.266  1.0869  0.3049  0.2320
 2978TIP3    H233130   6.087   6.729   7.212  1.5847  0.3457 -0.2701
 2979TIP3   OH233131   1.310   6.330   8.944 -0.1525 -0.3026  0.8050
 2979TIP3    H133132   1.232   6.276   8.946 -2.2691  2.4823  3.3738
 2979TIP3    H233133   1.374   6.282   8.997 -0.5708 -1.9214 -0.0966
 2980TIP3   OH233134   3.084   7.301   8.309 -0.1901  0.2682  0.5710
 2980TIP3    H133135   3.106   7.260   8.225 -1.2009  0.1005  0.3821
 2980TIP3    H233136   3.136   7.382   8.310  2.6102 -1.4092  1.3806
 2981TIP3   OH233137   0.444   0.262   8.129 -0.1262  0.0964  0.1435
 2981TIP3    H133138   0.459   0.168   8.126 -0.8515 -0.0236  0.0975
 2981TIP3    H233139   0.399   0.276   8.213  0.9046  0.5499  0.6529
 2982TIP3   OH233140   5.895   4.362   9.457  0.3884 -0.3317 -1.1635
 2982TIP3    H133141   5.895   4.313   9.375  2.7314 -1.6095 -0.5014
 2982TIP3    H233142   5.988   4.380   9.474 -0.0023 -0.2645  1.2658
 2983TIP3   OH233143   5.002   5.166   9.317 -0.1335 -0.6282  0.2040
 2983TIP3    H133144   5.085   5.158   9.271 -0.0135 -0.6554  0.4241
 2983TIP3    H233145   4.955   5.235   9.269  0.0762 -0.5071  0.1683
 2984TIP3   OH233146   3.945   2.660   7.325  0.3689  0.1050  0.4197
 2984TIP3    H133147   3.888   2.589   7.355 -1.2913  0.9022 -0.7108
 2984TIP3    H233148   3.941   2.726   7.395 -0.5138  0.3710  0.1240
 2985TIP3   OH233149   0.915   2.901   7.195  0.0346 -0.3847 -0.3008
 2985TIP3    H133150   0.920   2.948   7.112 -0.4131 -0.5879 -0.4471
 2985TIP3    H233151   0.998   2.920   7.238 -0.6406  1.6050  0.2328
 2986TIP3   OH233152   4.680   6.234   8.506  0.6922  0.2429  0.7885
 2986TIP3    H133153   4.731   6.180   8.445  2.2355  3.6750 -1.2405
 2986TIP3    H233154   4.640   6.301   8.451 -2.4101  0.3996  2.9734
 2987TIP3   OH233155   7.552   4.705   7.755 -0.3427 -0.3305 -0.0803
 2987TIP3    H133156   7.465   4.743   7.746 -0.8147 -0.8744  1.7768
 2987TIP3    H233157   7.594   4.720   7.670 -1.8025  1.0232 -0.6054
 2988TIP3   OH233158   3.051   5.796   7.283 -0.2351 -0.3428  0.5532
 2988TIP3    H133159   3.074   5.848   7.206 -0.2577 -1.6441 -0.3657
 2988TIP3    H233160   3.026   5.711   7.247 -0.2157 -0.9840  2.0136
 2989TIP3   OH233161   0.317   4.146   9.189 -0.0021 -0.7262  0.4998
 2989TIP3    H133162   0.341   4.237   9.207  0.3122 -0.7339  0.1334
 2989TIP3    H233163   0.400   4.098   9.195  0.4783 -0.4904 -2.5867
 2990TIP3   OH233164   5.438   3.522   7.774 -0.3087 -0.1846 -0.1555
 2990TIP3    H133165   5.452   3.585   7.702 -1.1455  0.7275  0.4508
 2990TIP3    H233166   5.479   3.441   7.743  2.1585  1.0388 -0.3445
 2991TIP3   OH233167   3.940   2.120   8.313 -0.4905 -0.0334  0.0246
 2991TIP3    H133168   4.001   2.104   8.241  0.8238 -1.2850  1.3758
 2991TIP3    H233169   3.898   2.035   8.328 -1.1014  0.3356  0.4362
 2992TIP3   OH233170   4.302   4.748   9.063 -0.2986 -0.1115 -0.6123
 2992TIP3    H133171   4.246   4.825   9.075 -1.2530 -0.8521 -0.1179
 2992TIP3    H233172   4.338   4.731   9.151 -1.7700 -1.4417 -0.2160
 2993TIP3   OH233173   3.557   7.106   7.992  0.9191  0.1412 -0.4234
 2993TIP3    H133174   3.580   7.176   7.931 -0.3233  0.2050 -0.8564
 2993TIP3    H233175   3.481   7.141   8.040  1.6348 -0.0574  0.9114
 2994TIP3   OH233176   6.324   6.545   7.420 -0.0434 -0.1436  0.4866
 2994TIP3    H133177   6.370   6.467   7.389  0.1858  0.2921 -0.2978
 2994TIP3    H233178   6.232   6.529   7.399  0.0364 -0.1003  0.0913
 2995TIP3   OH233179   3.514   3.724   9.151 -0.5753  0.3412  0.2535
 2995TIP3    H133180   3.425   3.757   9.137 -1.1035 -0.4754  1.5732
 2995TIP3    H233181   3.502   3.640   9.196  0.8410 -0.2215 -0.3587
 2996TIP3   OH233182   1.270   5.772   8.899  0.2021  0.4543 -0.4882
 2996TIP3    H133183   1.322   5.806   8.826 -1.2872  2.2142 -0.8070
 2996TIP3    H233184   1.182   5.805   8.883 -0.4682 -0.2829  1.4010
 2997TIP3   OH233185   5.820   6.291   7.585  0.3626 -0.1011 -0.7417
 2997TIP3    H133186   5.906   6.266   7.617  0.2931  0.3695 -0.1619
 2997TIP3    H233187   5.825   6.386   7.573  0.1727 -0.1793 -1.4888
 2998TIP3   OH233188   7.357   6.065   7.418 -0.3364  1.0800  0.6937
 2998TIP3    H133189   7.390   5.981   7.449 -0.0994 -0.0326 -2.3496
 2998TIP3    H233190   7.425   6.098   7.359 -1.6008  2.1256 -0.2387
 2999TIP3   OH233191   4.968   3.140   8.807 -0.3223  0.0294  0.3925
 2999TIP3    H133192   4.902   3.079   8.774 -1.4196  0.7222  1.2137
 2999TIP3    H233193   4.974   3.120   8.901  1.1426 -0.4652  0.2155
 3000TIP3   OH233194   6.406   6.171   6.950 -0.3628  0.3514  0.2903
 3000TIP3    H133195   6.369   6.203   6.867 -0.4283  0.7725  0.4801
 3000TIP3    H233196   6.488   6.219   6.960  0.3354 -0.7057 -0.2152
 3001TIP3   OH233197   4.520   5.249   8.383 -0.1816 -0.1407  0.3616
 3001TIP3    H133198   4.545   5.341   8.368 -1.8512  0.1883 -0.7978
 3001TIP3    H233199   4.450   5.254   8.449 -1.5026 -0.3464 -0.9566
 3002TIP3   OH233200   5.194   1.116   9.084 -0.3711  0.2516  0.2088
 3002TIP3    H133201   5.141   1.148   9.011 -0.6424 -0.2499  0.1863
 3002TIP3    H233202   5.143   1.045   9.122 -0.3719  0.7010  1.0799
 3003TIP3   OH233203   0.415   2.034   8.260 -0.3398  0.6459 -0.7158
 3003TIP3    H133204   0.459   2.115   8.287  1.2494  0.2138 -1.8320
 3003TIP3    H233205   0.482   1.966   8.272 -0.9375 -0.1644 -1.8228
 3004TIP3   OH233206   3.215   1.749   9.429 -0.1631 -0.7008  0.0600
 3004TIP3    H133207   3.173   1.834   9.425  1.1981 -0.0160 -0.5056
 3004TIP3    H233208   3.181   1.702   9.352 -0.5790 -0.5052  0.1220
 3005TIP3   OH233209   3.108   1.338   9.159 -0.1216 -0.4699 -0.0206
 3005TIP3    H133210   3.189   1.289   9.142 -0.1320 -0.9984  1.3604
 3005TIP3    H233211   3.049   1.310   9.089 -0.1323 -2.4697  0.7253
 3006TIP3   OH233212   2.445   7.289   7.281  0.0003  0.2495  0.2322
 3006TIP3    H133213   2.398   7.224   7.333 -0.0501  0.5062  0.5040
 3006TIP3    H233214   2.385   7.363   7.274 -0.3417 -0.1064 -0.9060
 3007TIP3   OH233215   5.136   5.624   7.980 -0.2769 -0.6830  0.5185
 3007TIP3    H133216   5.171   5.696   7.928 -0.1273 -1.5902 -0.6818
 3007TIP3    H233217   5.068   5.586   7.925 -0.9292 -0.9440  1.4889
 3008TIP3   OH233218   0.076   2.426   7.418 -0.2488 -0.0456  0.6509
 3008TIP3    H133219  -0.016   2.408   7.437 -0.7904  1.9685  0.1828
 3008TIP3    H233220   0.082   2.522   7.415  1.4249 -0.1308 -1.3233
 3009TIP3   OH233221   0.153   1.228   7.236 -0.2045 -0.0419  0.2061
 3009TIP3    H133222   0.208   1.153   7.213 -0.3501  0.0385 -0.4218
 3009TIP3    H233223   0.214   1.292   7.275 -0.0995 -0.5209  0.8494
 3010TIP3   OH233224   6.465   4.583   9.621  0.0942  0.1192 -0.4102
 3010TIP3    H133225   6.528   4.627   9.564  0.1165  0.4642 -0.1214
 3010TIP3    H233226   6.496   4.492   9.624  0.7597  0.3479 -0.0252
 3011TIP3   OH233227   5.774   4.743   7.800 -0.5900  0.7746  0.2475
 3011TIP3    H133228   5.807   4.734   7.711 -1.0942  2.3013 -0.1226
 3011TIP3    H233229   5.698   4.801   7.793 -2.3983 -1.3010  1.3148
 3012TIP3   OH233230   3.256   3.778   7.644  0.1786  0.0794 -0.4645
 3012TIP3    H133231   3.236   3.857   7.594  0.5943  0.2556 -0.3554
 3012TIP3    H233232   3.271   3.810   7.733  1.2881 -0.0049 -0.6169
 3013TIP3   OH233233   5.516   6.691   8.722 -0.0096 -0.0016 -0.6383
 3013TIP3    H133234   5.476   6.746   8.654 -1.8362 -0.7320 -0.2370
 3013TIP3    H233235   5.508   6.602   8.687 -2.4370 -0.5746  1.1023
 3014TIP3   OH233236   0.996   7.147   8.186  0.0878 -0.2137  0.1213
 3014TIP3    H133237   1.022   7.225   8.236 -0.5046  0.4258 -0.5519
 3014TIP3    H233238   0.902   7.139   8.201  0.1783 -0.9299  0.3513
 3015TIP3   OH233239   3.868   4.119   6.947  0.1651 -0.1901 -0.3760
 3015TIP3    H133240   3.815   4.066   7.008  1.8550 -0.9674  0.4775
 3015TIP3    H233241   3.850   4.209   6.971  2.2938 -0.4457  2.7627
 3016TIP3   OH233242   1.525   5.498   9.379  0.5816 -0.8782  0.4556
 3016TIP3    H133243   1.577   5.456   9.311 -0.0328  1.3774 -1.5430
 3016TIP3    H233244   1.476   5.426   9.420  3.0884 -2.6653  0.5322
 3017TIP3   OH233245   3.223   4.786   8.677 -0.2741 -0.3852 -0.1971
 3017TIP3    H133246   3.224   4.714   8.741 -0.0122 -0.8602 -0.7243
 3017TIP3    H233247   3.256   4.861   8.726 -2.3585 -0.1097  0.9158
 3018TIP3   OH233248   5.947   0.955   7.764  0.6223  0.2050  0.9535
 3018TIP3    H133249   5.971   0.873   7.720 -1.6864 -0.9830  1.7409
 3018TIP3    H233250   5.984   1.024   7.708  1.2468 -1.3217 -0.6141
 3019TIP3   OH233251   3.653   6.866   9.443  0.4180 -0.1895  0.3688
 3019TIP3    H133252   3.740   6.904   9.454  1.0268 -1.0343 -1.2051
 3019TIP3    H233253   3.654   6.789   9.501  0.8167 -0.3290  0.1859
 3020TIP3   OH233254   2.265   0.249   8.072  0.1907 -0.2635 -0.4526
 3020TIP3    H133255   2.268   0.162   8.031 -1.8034 -1.0711  0.9405
 3020TIP3    H233256   2.325   0.242   8.147 -0.9209 -0.9103  0.4079
 3021TIP3   OH233257   7.193   6.445   6.933 -0.1355  0.1425 -0.2272
 3021TIP3    H133258   7.223   6.398   6.855 -0.5262 -0.7153  0.1177
 3021TIP3    H233259   7.264   6.506   6.953 -0.8405  1.7795 -2.3420
 3022TIP3   OH233260   2.569   1.571   9.029  0.6516  0.3590 -0.5660
 3022TIP3    H133261   2.600   1.525   9.107 -0.5286  1.4688  0.6226
 3022TIP3    H233262   2.642   1.626   9.002  2.3642 -2.5740 -2.4545
 3023TIP3   OH233263   4.934   2.572   7.810 -0.1064 -0.0453  0.5244
 3023TIP3    H133264   4.850   2.529   7.828 -1.4059  1.3194 -1.8390
 3023TIP3    H233265   4.951   2.625   7.888 -3.0106  1.9309 -0.0298
 3024TIP3   OH233266   0.096   0.319   8.921  0.3985 -0.1523  0.0639
 3024TIP3    H133267   0.042   0.277   8.854 -0.3603  0.1692  0.4671
 3024TIP3    H233268   0.147   0.248   8.959 -0.5233 -0.6331  0.4136
 3025TIP3   OH233269   2.183   3.647   7.044  0.1668  0.0115  0.3961
 3025TIP3    H133270   2.253   3.611   6.989  0.6710  1.4551  0.0225
 3025TIP3    H233271   2.169   3.735   7.008 -1.7173 -0.1718  0.5945
 3026TIP3   OH233272   6.002   7.347   7.728  0.3318  0.6563 -0.0843
 3026TIP3    H133273   6.044   7.263   7.745  0.2805  0.5017 -0.7060
 3026TIP3    H233274   6.040   7.377   7.645  0.2111  1.1596  0.0359
 3027TIP3   OH233275   1.280   3.406   8.718  0.0206 -0.3249  0.3437
 3027TIP3    H133276   1.238   3.487   8.748 -0.3605  0.8413 -2.9579
 3027TIP3    H233277   1.218   3.338   8.742 -1.1301  0.7315  0.4868
 3028TIP3   OH233278   1.899   1.245   8.504  1.0358  0.5229 -0.2935
 3028TIP3    H133279   1.856   1.176   8.453 -0.4764  0.6609  0.7167
 3028TIP3    H233280   1.987   1.251   8.468  0.9256 -1.3520 -0.9657
 3029TIP3   OH233281   5.392   2.934   8.214  0.1013 -0.0949 -0.0320
 3029TIP3    H133282   5.303   2.909   8.187 -0.7550 -0.8856  3.1044
 3029TIP3    H233283   5.445   2.857   8.194 -0.7379 -1.1136  1.5264
 3030TIP3   OH233284   0.460   7.091   7.271 -0.0353  0.0993  0.4005
 3030TIP3    H133285   0.387   7.029   7.269  1.1317 -1.3052 -0.4047
 3030TIP3    H233286   0.436   7.158   7.207 -0.9719  0.1047  0.7316
 3031TIP3   OH233287   0.238   0.261   8.632 -0.2219  0.1363  0.3903
 3031TIP3    H133288   0.169   0.327   8.622 -0.0333  0.0355 -2.0664
 3031TIP3    H233289   0.193   0.186   8.672 -0.7904  1.1373  1.7283
 3032TIP3   OH233290   6.409   2.913   8.887  0.1034 -0.2391  0.2067
 3032TIP3    H133291   6.348   2.841   8.871 -0.0980  0.2956 -1.6240
 3032TIP3    H233292   6.392   2.975   8.816  0.6477  1.3717  1.4400
 3033TIP3   OH233293   7.437   0.237   8.348 -0.3725  0.0207  0.4882
 3033TIP3    H133294   7.343   0.223   8.349 -0.5178  0.9966  0.4862
 3033TIP3    H233295   7.472   0.159   8.305 -1.2330  0.0203 -0.2187
 3034TIP3   OH233296   6.059   3.860   8.334 -0.1623  0.5609 -0.5916
 3034TIP3    H133297   6.081   3.861   8.427 -0.6868  0.3725 -0.4659
 3034TIP3    H233298   6.088   3.946   8.302 -1.5689  1.3390  0.1193
 3035TIP3   OH233299   7.249   4.876   6.641  0.1751  0.3158 -0.1243
 3035TIP3    H133300   7.281   4.792   6.671 -0.5430 -0.0363 -0.3071
 3035TIP3    H233301   7.212   4.858   6.554 -1.1653  0.5208  0.3708
 3036TIP3   OH233302   6.075   1.543   7.414 -0.4098  0.1037 -0.2226
 3036TIP3    H133303   6.004   1.585   7.462  0.4421  0.6720  0.5994
 3036TIP3    H233304   6.140   1.613   7.402 -0.5303 -0.0581 -2.1014
 3037TIP3   OH233305   7.464   4.269   6.740  0.2064  0.1840 -0.0544
 3037TIP3    H133306   7.548   4.225   6.754  0.0013 -0.1617  0.0738
 3037TIP3    H233307   7.488   4.362   6.732  0.6282  0.0640 -0.2536
 3038TIP3   OH233308   2.158   1.951   7.506  0.4380  0.2996  0.2289
 3038TIP3    H133309   2.253   1.954   7.505  0.4784 -0.7618 -0.1267
 3038TIP3    H233310   2.135   1.920   7.593  0.4371  0.0963  0.1567
 3039TIP3   OH233311   3.105   0.050   7.187  0.1032 -0.2842  0.3237
 3039TIP3    H133312   3.175   0.111   7.163 -0.2136 -0.9445 -2.7388
 3039TIP3    H233313   3.043   0.102   7.237  1.1286  1.2169  0.0929
 3040TIP3   OH233314   1.559   0.006   9.045 -0.3953 -0.1148  0.4695
 3040TIP3    H133315   1.588   0.068   9.112  0.5776 -1.1691  1.0782
 3040TIP3    H233316   1.507  -0.058   9.093 -0.0740 -0.6249  0.1489
 3041TIP3   OH233317   6.430   2.818   7.413  0.1163 -0.4149  0.2923
 3041TIP3    H133318   6.382   2.745   7.451 -2.7695  1.0573 -0.1676
 3041TIP3    H233319   6.444   2.793   7.322  0.7474 -1.0785  0.5617
 3042TIP3   OH233320   0.626   1.639   9.029 -0.0705 -0.0401 -0.1828
 3042TIP3    H133321   0.581   1.689   8.961  1.4118  1.5294 -0.0775
 3042TIP3    H233322   0.585   1.553   9.026 -1.5248  0.6434 -1.5728
 3043TIP3   OH233323   6.441   3.993   8.270  0.2780  0.2957  0.0892
 3043TIP3    H133324   6.439   3.917   8.212  1.8460  0.7062 -0.5513
 3043TIP3    H233325   6.499   3.967   8.341 -0.1096  0.4959  0.4875
 3044TIP3   OH233326   7.578   3.003   7.771  0.3174 -0.3988 -0.5746
 3044TIP3    H133327   7.534   2.997   7.686 -2.4683  1.1845  0.6058
 3044TIP3    H233328   7.516   3.051   7.826  2.1625 -1.0650  2.2749
 3045TIP3   OH233329   5.071   0.737   9.007  0.0585  0.2959 -0.0333
 3045TIP3    H133330   5.066   0.757   8.913 -2.3122  1.1417  0.1906
 3045TIP3    H233331   5.046   0.645   9.013 -1.0773  0.5785 -0.1676
 3046TIP3   OH233332   1.011   4.521   7.417 -0.0573 -0.0497  0.1652
 3046TIP3    H133333   1.086   4.533   7.476 -0.8195  0.5425  1.0396
 3046TIP3    H233334   0.942   4.575   7.456 -0.4688  0.6577 -1.4841
 3047TIP3   OH233335   6.908   4.859   9.579  0.0023  0.4030  0.5264
 3047TIP3    H133336   6.966   4.791   9.544 -0.6635 -0.4310  1.0148
 3047TIP3    H233337   6.867   4.819   9.656  0.9292  1.9502  1.9181
 3048TIP3   OH233338   6.281   1.579   8.733  0.7339  0.1605 -0.3357
 3048TIP3    H133339   6.257   1.486   8.734  0.9852  0.0842 -1.2572
 3048TIP3    H233340   6.281   1.604   8.826 -1.0655 -0.3145 -0.1649
 3049TIP3   OH233341   1.767   1.092   7.610  0.3405 -0.3284  0.1007
 3049TIP3    H133342   1.724   1.127   7.532  0.9510  1.4302  0.5209
 3049TIP3    H233343   1.861   1.104   7.593  0.5962 -1.9340  0.2092
 3050TIP3   OH233344   3.897   7.346   6.886 -0.3572  0.2461  0.2429
 3050TIP3    H133345   3.888   7.324   6.793  0.4441  1.3207 -0.1076
 3050TIP3    H233346   3.956   7.420   6.887  1.5344 -1.1872  1.7794
 3051TIP3   OH233347   6.859   0.907   7.883  0.2135 -0.1480  0.0575
 3051TIP3    H133348   6.943   0.908   7.929  0.1379  1.2909  0.2068
 3051TIP3    H233349   6.883   0.909   7.790  0.3818  1.6951  0.1024
 3052TIP3   OH233350   4.820   2.217   7.737  0.2063 -0.2692 -0.4224
 3052TIP3    H133351   4.765   2.295   7.741 -1.1403 -1.1707 -0.8939
 3052TIP3    H233352   4.795   2.165   7.813  1.0228 -0.3170 -0.1690
 3053TIP3   OH233353   0.623   1.585   7.672  0.6420  0.0650 -0.2749
 3053TIP3    H133354   0.666   1.513   7.717 -1.4988  0.0582  1.9682
 3053TIP3    H233355   0.664   1.664   7.706  0.3388 -0.0016  0.2537
 3054TIP3   OH233356   5.956   0.654   8.862  0.4413  0.0044  1.0704
 3054TIP3    H133357   5.941   0.594   8.789 -0.1308 -0.3647  1.4797
 3054TIP3    H233358   6.047   0.681   8.852  0.0610  0.8529 -0.4258
 3055TIP3   OH233359   2.817   5.629   7.052  0.3588 -0.1097 -0.0674
 3055TIP3    H133360   2.760   5.702   7.076  1.8250  1.3753 -0.9026
 3055TIP3    H233361   2.763   5.551   7.067 -1.2039  1.1094  1.0066
 3056TIP3   OH233362   6.875   0.038   7.332  0.3013  0.9563 -0.5144
 3056TIP3    H133363   6.936  -0.018   7.380  1.1225 -1.2994 -3.8708
 3056TIP3    H233364   6.791   0.025   7.376  0.9289 -1.1761  0.1795
 3057TIP3   OH233365   6.534   7.007   8.430  0.5079 -0.0611  0.0136
 3057TIP3    H133366   6.509   6.953   8.505  0.7475  0.4845  0.4943
 3057TIP3    H233367   6.627   7.024   8.442 -0.0102  2.4139  1.1709
 3058TIP3   OH233368   7.065   5.365   9.031  0.4454  0.1691  0.0770
 3058TIP3    H133369   7.010   5.287   9.031  2.6574 -1.4791  0.8745
 3058TIP3    H233370   7.003   5.437   9.018 -2.0537 -1.4328  1.9917
 3059TIP3   OH233371   1.454   6.531   8.070  0.6339 -0.7097  0.2728
 3059TIP3    H133372   1.506   6.476   8.129  0.7141 -0.7583  0.1575
 3059TIP3    H233373   1.378   6.477   8.048  2.9792 -2.8333 -3.7053
 3060TIP3   OH233374   6.326   3.893   7.780  0.7563  0.4314 -0.2029
 3060TIP3    H133375   6.244   3.844   7.784  1.0874 -0.4254 -2.3293
 3060TIP3    H233376   6.299   3.985   7.784 -0.2022  0.1515  0.1349
 3061TIP3   OH233377   5.364   4.373   8.534  0.3849 -0.5379 -0.0163
 3061TIP3    H133378   5.400   4.297   8.580  1.0896  0.2519  0.7738
 3061TIP3    H233379   5.423   4.385   8.459  0.2536 -0.7889 -0.1599
 3062TIP3   OH233380   2.964   0.958   6.688 -0.3544  0.1376 -0.7943
 3062TIP3    H133381   3.055   0.938   6.706 -0.4814 -0.7769 -1.1020
 3062TIP3    H233382   2.921   0.873   6.685 -1.1698  0.5430 -0.9069
 3063TIP3   OH233383   4.446   1.328   8.022 -0.0766  0.7981  0.4296
 3063TIP3    H133384   4.385   1.313   7.950 -0.4719  1.6096  0.5917
 3063TIP3    H233385   4.430   1.254   8.082  0.9950 -0.4654 -0.7856
 3064TIP3   OH233386   6.425   5.260   7.829 -0.4693 -0.5941  0.3988
 3064TIP3    H133387   6.383   5.319   7.766  1.6902  0.6414  0.0106
 3064TIP3    H233388   6.519   5.279   7.821  0.0798 -2.1873  2.2281
 3065TIP3   OH233389   0.699   1.482   8.565  0.2141  0.3872 -0.0066
 3065TIP3    H133390   0.686   1.412   8.629  0.5286  0.7404  0.4535
 3065TIP3    H233391   0.686   1.440   8.480 -0.7101  0.0229  0.3019
 3066TIP3   OH233392   7.487   5.310   8.961 -0.1879  0.3170 -0.0906
 3066TIP3    H133393   7.411   5.252   8.968  0.0308  0.0883  0.4810
 3066TIP3    H233394   7.562   5.251   8.957 -0.1569  0.4192 -3.7713
 3067TIP3   OH233395   7.569   2.136   7.951  0.2555 -0.4478  0.6270
 3067TIP3    H133396   7.556   2.207   7.888  0.4481  0.0018  1.0863
 3067TIP3    H233397   7.662   2.141   7.973  0.2244 -0.7131  0.8183
 3068TIP3   OH233398   5.164   6.033   9.357 -0.0137  0.4857 -0.1490
 3068TIP3    H133399   5.166   5.938   9.346 -0.4746  0.4412  0.1266
 3068TIP3    H233400   5.249   6.055   9.393 -0.2048  0.0703  0.5870
 3069TIP3   OH233401   0.398   5.225   8.577 -0.4409  0.1343  0.2153
 3069TIP3    H133402   0.336   5.284   8.536  0.4856 -0.2002 -1.7671
 3069TIP3    H233403   0.360   5.207   8.663 -1.7582  1.9547  0.0751
 3070TIP3   OH233404   0.334   4.261   7.342 -0.1352  0.6640 -0.2832
 3070TIP3    H133405   0.370   4.346   7.370  0.2917  1.3856 -2.7191
 3070TIP3    H233406   0.259   4.285   7.287 -0.0481 -0.5313 -0.9448
 3071TIP3   OH233407   2.510   6.095   7.572 -0.0660  0.4523  0.1280
 3071TIP3    H133408   2.451   6.154   7.524  0.0665 -0.8743 -1.7887
 3071TIP3    H233409   2.556   6.047   7.504  1.4130 -0.3453  1.6195
 3072TIP3   OH233410   3.977   2.076   7.864 -0.0469  0.6310  0.1173
 3072TIP3    H133411   4.061   2.101   7.828  0.6031  0.5378  1.5133
 3072TIP3    H233412   3.944   2.009   7.804  0.7935  0.7871 -0.5311
 3073TIP3   OH233413   4.812   6.167   8.996  0.4135 -0.2266  0.1353
 3073TIP3    H133414   4.802   6.124   8.911 -2.5948  0.6425 -0.0751
 3073TIP3    H233415   4.874   6.238   8.981  0.1387 -0.2656 -1.2776
 3074TIP3   OH233416   6.537   5.287   9.433  0.6598 -0.0350  0.5263
 3074TIP3    H133417   6.522   5.372   9.391  0.6859 -0.4577 -0.3526
 3074TIP3    H233418   6.631   5.273   9.428  0.7864  0.3309  1.5769
 3075TIP3   OH233419   2.669   3.503   8.090 -0.1751  0.2600 -0.1869
 3075TIP3    H133420   2.690   3.447   8.164 -0.0483 -0.2166 -0.5748
 3075TIP3    H233421   2.576   3.524   8.102  0.4115  2.1896  1.4013
 3076TIP3   OH233422   4.343   7.155   9.326 -0.7119  0.0772 -0.5065
 3076TIP3    H133423   4.349   7.090   9.256 -3.0738 -0.3649 -0.3692
 3076TIP3    H233424   4.423   7.207   9.317 -0.1777 -0.9856 -2.4746
 3077TIP3   OH233425   1.070   5.171   8.775 -0.6031  0.1486 -0.0528
 3077TIP3    H133426   0.993   5.164   8.719 -0.9099  1.0355  0.2498
 3077TIP3    H233427   1.135   5.217   8.722  0.1991 -1.7272 -0.7805
 3078TIP3   OH233428   7.427   6.582   8.813 -0.0311  0.0128  0.2297
 3078TIP3    H133429   7.437   6.603   8.906  0.3098 -1.7022  0.6263
 3078TIP3    H233430   7.468   6.496   8.804 -1.7508 -0.7221 -1.1050
 3079TIP3   OH233431   3.821   2.727   8.033 -0.2768  0.2136 -0.0692
 3079TIP3    H133432   3.860   2.643   8.006  0.3576  1.1163 -2.1278
 3079TIP3    H233433   3.727   2.709   8.038 -0.0313 -0.9743  1.0273
 3080TIP3   OH233434   7.392   5.044   7.892  0.0376 -0.1691  0.5632
 3080TIP3    H133435   7.308   5.011   7.860  0.0768 -0.6871  0.9874
 3080TIP3    H233436   7.451   5.035   7.817 -0.5841  1.4465 -0.1758
 3081TIP3   OH233437   3.844   5.781   9.149  0.1581  0.6309 -0.2757
 3081TIP3    H133438   3.874   5.868   9.173  0.2930  1.9425 -4.3988
 3081TIP3    H233439   3.894   5.760   9.070 -1.9157 -1.9443 -1.0392
 3082TIP3   OH233440   6.551   5.638   8.276  0.2656 -0.0776 -0.4248
 3082TIP3    H133441   6.474   5.631   8.332  0.0386  2.9637 -0.1968
 3082TIP3    H233442   6.520   5.618   8.188 -0.3761 -0.6346 -0.0743
 3083TIP3   OH233443   3.343   5.381   8.098  0.0465 -0.2040 -0.5757
 3083TIP3    H133444   3.285   5.376   8.022 -0.5858  0.3379 -0.1415
 3083TIP3    H233445   3.417   5.325   8.076  0.6503  1.1991 -2.2724
 3084TIP3   OH233446   6.809   1.951   8.144 -0.0502  0.1260  0.4009
 3084TIP3    H133447   6.800   2.043   8.168 -0.0346  0.0172  0.8237
 3084TIP3    H233448   6.841   1.908   8.223  0.5021 -0.1434  0.0439
 3085TIP3   OH233449   6.989   2.710   7.098  0.0987  0.5327 -0.7839
 3085TIP3    H133450   7.023   2.664   7.021  0.2014  1.4419 -1.2994
 3085TIP3    H233451   6.895   2.713   7.084  0.1591  1.0735 -1.0938
 3086TIP3   OH233452   7.646   7.111   8.638  0.1240  0.4178  0.1637
 3086TIP3    H133453   7.660   7.113   8.732  0.1610 -0.9014  0.2048
 3086TIP3    H233454   7.551   7.106   8.627  0.1200  0.5562  0.1264
 3087TIP3   OH233455   1.230   4.786   9.286 -0.3214 -0.4103  0.0709
 3087TIP3    H133456   1.313   4.818   9.252 -0.5735  0.8033  0.5374
 3087TIP3    H233457   1.203   4.852   9.350 -1.1207 -1.3213  0.7134
 3088TIP3   OH233458   0.413   3.559   8.915 -0.2814  0.1803 -0.0989
 3088TIP3    H133459   0.450   3.647   8.927 -0.7339  0.4586 -0.6907
 3088TIP3    H233460   0.468   3.503   8.970 -0.5547  0.9674  1.0237
 3089TIP3   OH233461   4.785   4.326   8.084 -0.0634 -0.0986  0.2518
 3089TIP3    H133462   4.868   4.310   8.039 -0.1302 -0.8237  0.3636
 3089TIP3    H233463   4.718   4.289   8.025 -0.6259  2.9563 -1.1905
 3090TIP3   OH233464   2.497   6.508   7.471  0.0918  0.3913  0.0779
 3090TIP3    H133465   2.451   6.591   7.476 -2.3361 -0.9038  0.7329
 3090TIP3    H233466   2.516   6.485   7.562 -1.3096 -0.7753  0.1245
 3091TIP3   OH233467   3.217   7.402   7.800  0.7426 -0.3440 -0.2700
 3091TIP3    H133468   3.280   7.473   7.811  1.1694 -1.0513  2.9141
 3091TIP3    H233469   3.131   7.445   7.805  0.9970  0.1026  0.4038
 3092TIP3   OH233470   0.524   7.064   7.547 -0.3680 -0.2138  0.0891
 3092TIP3    H133471   0.527   7.083   7.453 -2.0404  1.3426  0.2712
 3092TIP3    H233472   0.533   6.969   7.553 -1.6759 -0.5167 -1.7836
 3093TIP3   OH233473   4.129   2.242   8.455 -0.5646 -0.3930  0.2469
 3093TIP3    H133474   4.088   2.329   8.461 -0.8517 -0.4155 -1.1424
 3093TIP3    H233475   4.071   2.192   8.399  0.1854 -1.1395  0.1203
 3094TIP3   OH233476   5.359   4.054   9.308 -0.4364 -0.3330  0.3598
 3094TIP3    H133477   5.419   4.012   9.369 -0.5047 -1.5317 -0.3653
 3094TIP3    H233478   5.373   4.009   9.225  0.8737  2.3595 -1.0064
 3095TIP3   OH233479   1.955   3.673   8.347  0.6132 -0.4821  0.1849
 3095TIP3    H133480   2.033   3.664   8.403 -0.6033 -0.9556  1.8893
 3095TIP3    H233481   1.884   3.636   8.399 -0.7607 -0.1367 -1.3609
 3096TIP3   OH233482   6.792   2.089   6.685 -0.2319 -0.1780 -0.0562
 3096TIP3    H133483   6.836   2.012   6.722 -0.7525 -1.3158 -1.6676
 3096TIP3    H233484   6.850   2.162   6.705 -0.0283 -0.8413  2.1017
 3097TIP3   OH233485   4.278   1.939   7.886  0.1793  0.3113  0.5336
 3097TIP3    H133486   4.229   1.993   7.824 -0.6015  1.0042  1.7098
 3097TIP3    H233487   4.256   1.849   7.861 -0.4629  0.5832  0.0646
 3098TIP3   OH233488   1.431   4.186   8.384  0.1625 -0.0900 -0.4986
 3098TIP3    H133489   1.423   4.263   8.441  1.6624 -0.3019  0.0422
 3098TIP3    H233490   1.377   4.119   8.427 -0.9626  0.5508 -0.8484
 3099TIP3   OH233491   4.501   6.830   8.482 -0.5580  0.1918 -0.0054
 3099TIP3    H133492   4.560   6.857   8.552 -0.9610  0.3878  0.2600
 3099TIP3    H233493   4.548   6.853   8.401 -0.1985  0.1888  0.2015
 3100TIP3   OH233494   6.406   4.133   7.431 -0.8013  0.3919  0.4989
 3100TIP3    H133495   6.405   4.129   7.336 -0.6843 -0.3308  0.5212
 3100TIP3    H233496   6.449   4.051   7.458  0.3723  1.1939  1.1427
 3101TIP3   OH233497   0.351   5.262   6.726  0.2272  0.6305  0.2361
 3101TIP3    H133498   0.440   5.229   6.739 -0.3633 -0.5421  1.6538
 3101TIP3    H233499   0.335   5.252   6.632  2.2503  2.7588 -0.4374
 3102TIP3   OH233500   3.809   2.437   7.432 -0.0990  0.1560 -0.1824
 3102TIP3    H133501   3.751   2.379   7.481 -1.0136  0.7933 -0.4891
 3102TIP3    H233502   3.824   2.392   7.349 -0.8118  0.3616 -0.4233
 3103TIP3   OH233503   6.811   1.701   8.317 -0.3817 -0.0593  0.4238
 3103TIP3    H133504   6.900   1.677   8.341  0.1809  2.3289  0.9269
 3103TIP3    H233505   6.756   1.641   8.369  0.9000  1.2631  3.5639
 3104TIP3   OH233506   2.165   4.922   8.665  0.9208 -0.0916 -0.5080
 3104TIP3    H133507   2.108   4.847   8.649  0.8045  0.0555 -0.8024
 3104TIP3    H233508   2.141   4.985   8.597  0.9626  0.2434 -0.2126
 3105TIP3   OH233509   2.510   6.928   7.647 -0.5376  0.3144  0.5513
 3105TIP3    H133510   2.529   6.885   7.730  2.2911 -0.7654 -0.5509
 3105TIP3    H233511   2.507   7.021   7.668 -0.6797  0.0063  1.9841
 3106TIP3   OH233512   2.407   6.161   8.675  0.2940  0.0275 -0.0769
 3106TIP3    H133513   2.443   6.243   8.641  1.0748 -0.9623 -1.7725
 3106TIP3    H233514   2.414   6.100   8.602  0.0269 -1.6532  1.2413
 3107TIP3   OH233515   3.974   7.671   7.554  0.3310 -0.3465 -0.1362
 3107TIP3    H133516   4.027   7.630   7.623 -1.5048  0.4046  1.8380
 3107TIP3    H233517   3.931   7.745   7.598 -1.7774 -0.4945 -1.8007
 3108TIP3   OH233518   1.295   5.707   7.416  0.1337 -0.2270  0.0742
 3108TIP3    H133519   1.341   5.640   7.467  1.0360 -0.4164 -0.9545
 3108TIP3    H233520   1.280   5.666   7.330 -2.4282 -0.3625  0.4859
 3109TIP3   OH233521   0.230   0.723   8.793 -0.8379 -0.6173  0.3209
 3109TIP3    H133522   0.307   0.665   8.790  0.0655  0.5614 -0.9170
 3109TIP3    H233523   0.161   0.669   8.830  0.1511 -2.2697 -0.1088
 3110TIP3   OH233524   5.633   6.149   8.439  0.1590  0.2295 -0.5165
 3110TIP3    H133525   5.596   6.219   8.492 -0.3384 -0.6131  0.2661
 3110TIP3    H233526   5.678   6.195   8.367  2.0423  1.4652  1.3343
 3111TIP3   OH233527   7.112   3.007   8.835 -0.7131  0.4640  0.3146
 3111TIP3    H133528   7.189   2.976   8.787  0.3775  1.6274  1.2299
 3111TIP3    H233529   7.038   2.975   8.785  0.3678  1.1262 -1.8429
 3112TIP3   OH233530   2.262   5.429   7.582  0.2810 -0.1028 -0.3697
 3112TIP3    H133531   2.234   5.421   7.673  0.6615  0.2253 -0.2206
 3112TIP3    H233532   2.356   5.446   7.588  0.5617 -1.3884 -0.8665
 3113TIP3   OH233533   0.192   1.748   8.481 -0.1102 -0.2071  0.0388
 3113TIP3    H133534   0.161   1.816   8.421 -1.3985  1.1520  2.1597
 3113TIP3    H233535   0.124   1.740   8.547  2.3024  0.1912  2.7840
 3114TIP3   OH233536   0.923   5.875   6.932 -0.0776 -0.8191 -0.6032
 3114TIP3    H133537   1.012   5.877   6.899  0.8402  1.3908  1.7023
 3114TIP3    H233538   0.871   5.917   6.863  0.7682 -1.3500 -1.5965
 3115TIP3   OH233539   0.543   2.420   8.495  0.3938  0.0701  0.3865
 3115TIP3    H133540   0.626   2.463   8.515  1.3662 -1.2956 -0.5400
 3115TIP3    H233541   0.489   2.434   8.574  1.6535  0.5959  1.1850
 3116TIP3   OH233542   1.930   1.522   8.467 -0.5162 -0.7083 -0.0961
 3116TIP3    H133543   1.884   1.569   8.537  1.4343  0.4508  0.4770
 3116TIP3    H233544   1.910   1.430   8.484 -0.6638 -0.4043  1.5857
 3117TIP3   OH233545   3.125   6.730   8.719 -0.7316 -0.2818  0.6771
 3117TIP3    H133546   3.120   6.814   8.764 -1.4052 -0.4547  0.9353
 3117TIP3    H233547   3.125   6.752   8.626  0.7312  0.0800  0.7338
 3118TIP3   OH233548   1.479   3.565   8.262  0.5542 -0.2757 -0.1660
 3118TIP3    H133549   1.443   3.581   8.349  2.4574 -1.7874  0.9625
 3118TIP3    H233550   1.525   3.646   8.239  0.5228 -0.0780  0.4669
 3119TIP3   OH233551   2.154   5.093   9.111 -0.0545 -0.0434  0.1688
 3119TIP3    H133552   2.114   5.181   9.108  1.2676  0.5672 -0.0843
 3119TIP3    H233553   2.193   5.082   9.024  0.1489 -0.7142  0.3430
 3120TIP3   OH233554   7.534   6.538   7.606 -0.1325  0.2484  0.0795
 3120TIP3    H133555   7.439   6.536   7.598 -0.0347 -0.6711 -1.1633
 3120TIP3    H233556   7.566   6.537   7.515  1.0656  0.7893  0.4677
 3121TIP3   OH233557   6.766   1.600   9.077  0.1089  0.4039  0.4642
 3121TIP3    H133558   6.778   1.576   9.169 -2.6007  1.3427  1.1728
 3121TIP3    H233559   6.688   1.552   9.049 -0.1661  1.4897 -0.7762
 3122TIP3   OH233560   0.454   2.870   7.522  0.2720  0.2492  0.6818
 3122TIP3    H133561   0.436   2.777   7.537  1.3870 -0.1842 -0.4801
 3122TIP3    H233562   0.417   2.888   7.436  1.7387  0.3542  0.0416
 3123TIP3   OH233563   3.421   0.281   6.983  0.0181 -0.5664 -0.3492
 3123TIP3    H133564   3.480   0.208   6.964  0.1208 -0.0721 -2.0765
 3123TIP3    H233565   3.472   0.359   6.963 -1.0530 -0.1169 -1.4551
 3124TIP3   OH233566   2.594   0.071   7.714  0.0844 -0.4822  0.3380
 3124TIP3    H133567   2.577   0.165   7.715  0.3742 -0.4250  1.1670
 3124TIP3    H233568   2.638   0.054   7.798  0.3852 -1.2891  0.0284
 3125TIP3   OH233569   6.847   5.258   8.292  0.0892  0.2561 -0.5911
 3125TIP3    H133570   6.774   5.263   8.354 -0.5820 -0.1207 -1.3309
 3125TIP3    H233571   6.839   5.337   8.239 -0.6697 -0.4792 -1.6109
 3126TIP3   OH233572   3.249   0.631   7.544  0.2653 -0.3030  0.4555
 3126TIP3    H133573   3.298   0.705   7.581  0.4631 -0.8072  1.2130
 3126TIP3    H233574   3.276   0.556   7.596  1.8451 -1.3755 -1.7593
 3127TIP3   OH233575   4.874   3.814   7.447 -0.5051  0.0564 -0.1248
 3127TIP3    H133576   4.790   3.830   7.403 -0.3535  1.5953  0.0792
 3127TIP3    H233577   4.872   3.873   7.523  0.2178 -0.8555  0.6197
 3128TIP3   OH233578   5.578   4.532   8.018 -0.0058  0.4185 -0.1260
 3128TIP3    H133579   5.577   4.444   8.056  2.6093  0.1298 -0.5156
 3128TIP3    H233580   5.662   4.569   8.046 -0.3216  2.1696 -1.3195
 3129TIP3   OH233581   6.508   4.402   9.009  0.0652 -0.1003  0.0749
 3129TIP3    H133582   6.566   4.478   9.002  0.4173 -0.3813 -0.0683
 3129TIP3    H233583   6.480   4.403   9.101  0.7260 -0.2736  0.2822
 3130TIP3   OH233584   7.512   4.452   8.509  0.4330  0.2479 -0.2660
 3130TIP3    H133585   7.498   4.535   8.465  3.9569  1.3176  0.2801
 3130TIP3    H233586   7.558   4.397   8.444 -0.0950 -0.5391  0.0114
 3131TIP3   OH233587   2.304   0.688   7.490 -0.2275  0.1825 -0.2635
 3131TIP3    H133588   2.398   0.707   7.484 -0.3319  0.1940 -3.6865
 3131TIP3    H233589   2.298   0.593   7.483 -0.4800  0.1490  0.3341
 3132TIP3   OH233590   7.381   1.775   7.995 -0.0041 -0.6834 -0.0597
 3132TIP3    H133591   7.292   1.749   7.970 -0.8172  2.0520 -0.3734
 3132TIP3    H233592   7.373   1.799   8.088  0.3063 -0.1132 -0.1766
 3133TIP3   OH233593   5.792   4.535   6.619 -0.4756  0.5190  0.0579
 3133TIP3    H133594   5.733   4.580   6.559 -1.8149  0.2151  1.0888
 3133TIP3    H233595   5.759   4.559   6.706  1.4323  1.0014  0.7081
 3134TIP3   OH233596   6.932   3.990   7.470  0.0672 -0.1171 -0.5183
 3134TIP3    H133597   6.986   3.914   7.489  2.3550  1.1626 -1.5085
 3134TIP3    H233598   6.879   3.964   7.394  0.7794 -0.7424 -0.8067
 3135TIP3   OH233599   1.579   5.293   6.864  0.3881  0.0289  0.2299
 3135TIP3    H133600   1.670   5.311   6.842  0.5785  0.3280  1.2371
 3135TIP3    H233601   1.582   5.218   6.923  0.3122  2.1603  3.1265
 3136TIP3   OH233602   4.923   0.830   8.050 -0.3259  0.1857  0.0359
 3136TIP3    H133603   4.971   0.790   7.977 -0.0577  1.6008 -0.5930
 3136TIP3    H233604   4.929   0.765   8.120 -3.6759 -2.8638 -2.1993
 3137TIP3   OH233605   2.407   4.279   8.536 -0.7981  0.3716 -0.1439
 3137TIP3    H133606   2.463   4.210   8.500 -0.9624 -0.0464  0.4091
 3137TIP3    H233607   2.318   4.247   8.525 -0.8540  0.3069  0.5138
 3138TIP3   OH233608   5.607   7.109   8.914  0.1811  0.1795 -0.1484
 3138TIP3    H133609   5.537   7.092   8.851  0.5782 -0.8561 -0.3317
 3138TIP3    H233610   5.686   7.114   8.861  0.1843  1.9547 -0.0067
 3139TIP3   OH233611   3.690   5.031   8.844  0.4771  1.0660  0.3395
 3139TIP3    H133612   3.682   5.061   8.935 -1.1660  1.3789  0.1199
 3139TIP3    H233613   3.651   4.943   8.845 -1.1235  1.7361 -0.3672
 3140TIP3   OH233614   0.839   1.369   9.054  0.1049  0.1054 -0.0625
 3140TIP3    H133615   0.930   1.399   9.052 -0.1541  1.1572  1.7021
 3140TIP3    H233616   0.809   1.391   9.142 -1.6774 -0.8049 -0.4062
 3141TIP3   OH233617   1.009   7.017   8.493 -0.5672  0.0616 -0.4764
 3141TIP3    H133618   1.085   7.071   8.470 -2.1505  3.0945  0.7376
 3141TIP3    H233619   0.984   6.974   8.411  0.1635  2.1516 -1.8708
 3142TIP3   OH233620   6.474   6.799   8.630  0.0600  0.1837  0.5295
 3142TIP3    H133621   6.506   6.711   8.611  1.0779  0.3508  1.3754
 3142TIP3    H233622   6.378   6.792   8.624  0.1683 -0.7257 -0.4120
 3143TIP3   OH233623   2.706   2.171   7.863  0.2412 -0.2127  0.2066
 3143TIP3    H133624   2.705   2.260   7.898  0.3169 -0.8698  1.9806
 3143TIP3    H233625   2.799   2.151   7.852  0.2152  0.0221 -0.4932
 3144TIP3   OH233626   1.880   4.619   7.831  0.1334 -0.2061  0.1750
 3144TIP3    H133627   1.958   4.669   7.807 -0.2750  0.4493  0.1586
 3144TIP3    H233628   1.899   4.530   7.804  1.1846 -0.2145  0.8965
 3145TIP3   OH233629   4.193   5.320   7.977  0.0117 -0.3040  0.1579
 3145TIP3    H133630   4.110   5.333   8.024  0.9952 -0.2133  1.9405
 3145TIP3    H233631   4.257   5.369   8.028  1.5503 -2.0367 -0.0221
 3146TIP3   OH233632   3.616   4.205   8.507  0.1530 -0.7935 -0.1140
 3146TIP3    H133633   3.552   4.197   8.578 -0.4273  0.0615 -0.5295
 3146TIP3    H233634   3.566   4.243   8.435  1.1575 -0.0184 -0.4094
 3147TIP3   OH233635   6.606   0.768   7.813 -0.1915 -0.2593  0.5200
 3147TIP3    H133636   6.668   0.840   7.805  1.4289 -1.6854 -0.6045
 3147TIP3    H233637   6.658   0.689   7.797 -1.7442 -1.7696  2.3928
 3148TIP3   OH233638   7.325   3.452   8.289 -0.1221  0.2293  0.4354
 3148TIP3    H133639   7.371   3.523   8.333  2.8066 -0.5836 -1.0416
 3148TIP3    H233640   7.317   3.481   8.198  0.7599 -1.1370 -0.1014
 3149TIP3   OH233641   7.119   1.386   6.567 -0.4673 -0.0388 -0.5538
 3149TIP3    H133642   7.194   1.334   6.537 -0.1846 -0.7936  1.3341
 3149TIP3    H233643   7.150   1.427   6.648 -2.3991 -1.2247  0.8749
 3150TIP3   OH233644   2.185   4.602   7.292 -0.0760  0.0124 -0.2641
 3150TIP3    H133645   2.218   4.595   7.202  3.8686  0.0545  0.9990
 3150TIP3    H233646   2.169   4.512   7.318 -1.3328  0.0043 -0.9812
 3151TIP3   OH233647   4.391   7.505   6.402 -0.2855 -0.1454  0.2926
 3151TIP3    H133648   4.370   7.571   6.336  1.1308 -0.5173 -0.5673
 3151TIP3    H233649   4.434   7.553   6.472  2.1918 -0.2881 -1.0225
 3152TIP3   OH233650   5.024   2.893   9.351  0.1898  0.2269  0.0660
 3152TIP3    H133651   5.110   2.909   9.313  0.2345 -0.0251  0.0558
 3152TIP3    H233652   5.001   2.974   9.396  0.0351  0.6030 -0.6833
 3153TIP3   OH233653   1.247   6.747   7.790 -0.3415  0.2336 -0.2581
 3153TIP3    H133654   1.269   6.776   7.879 -0.4153 -2.8439  0.8913
 3153TIP3    H233655   1.164   6.700   7.800  0.5794 -1.8235 -1.5317
 3154TIP3   OH233656   1.209   3.728   9.526 -0.0835  0.4693  0.3725
 3154TIP3    H133657   1.216   3.762   9.615  0.4294  1.5091 -0.0501
 3154TIP3    H233658   1.179   3.803   9.474 -3.2215 -0.8084  0.1191
 3155TIP3   OH233659   5.193   0.001   8.584 -0.0766  0.2345  0.7000
 3155TIP3    H133660   5.125  -0.006   8.652 -1.1018  1.3749 -0.1782
 3155TIP3    H233661   5.248  -0.076   8.599 -1.4482 -0.6362  1.5561
 3156TIP3   OH233662   1.047   3.322   7.089 -0.1313 -0.2164  0.1291
 3156TIP3    H133663   1.097   3.281   7.019 -0.6718  0.3635 -0.6106
 3156TIP3    H233664   0.967   3.269   7.096  0.3559 -0.8693  1.0001
 3157TIP3   OH233665   5.271   3.403   7.146 -0.0152  0.2372  0.5805
 3157TIP3    H133666   5.179   3.421   7.127  0.4587  1.9868 -0.2717
 3157TIP3    H233667   5.282   3.310   7.128 -1.2639  0.3424 -0.9470
 3158TIP3   OH233668   7.571   5.174   8.372  0.3533  0.0371 -0.1096
 3158TIP3    H133669   7.534   5.166   8.284  1.9358  0.7483 -0.8859
 3158TIP3    H233670   7.559   5.266   8.394  0.6223  0.0197  0.1071
 3159TIP3   OH233671   2.665   6.300   8.776  0.0895 -0.0235 -0.2761
 3159TIP3    H133672   2.595   6.349   8.819 -1.7418 -1.2448 -1.7055
 3159TIP3    H233673   2.649   6.312   8.683  0.8966 -1.5155 -0.6445
 3160TIP3   OH233674   6.800   6.160   8.855 -0.2715  0.5652  0.7206
 3160TIP3    H133675   6.790   6.229   8.921  0.4864  2.4199 -0.9986
 3160TIP3    H233676   6.884   6.179   8.813 -0.8965 -0.3138 -1.0272
 3161TIP3   OH233677   6.194   5.953   8.942 -0.1864  0.1629  1.1794
 3161TIP3    H133678   6.113   5.993   8.910  0.0692  0.7269  1.2296
 3161TIP3    H233679   6.216   6.002   9.021  0.5628  0.4635  0.7949
 3162TIP3   OH233680   6.884   1.836   9.007 -0.5108  0.0261 -0.3763
 3162TIP3    H133681   6.898   1.746   9.037  1.5159  0.9494  1.7801
 3162TIP3    H233682   6.944   1.847   8.933 -0.1524 -0.1418 -0.1087
 3163TIP3   OH233683   1.176   3.121   9.081  0.3068 -0.2659  0.1013
 3163TIP3    H133684   1.271   3.126   9.076  0.1884  2.9609 -2.5738
 3163TIP3    H233685   1.148   3.211   9.102 -2.1643 -0.3321 -2.3475
 3164TIP3   OH233686   3.105   1.617   7.648 -0.3442 -0.2555 -0.1388
 3164TIP3    H133687   3.139   1.695   7.692  1.2781 -1.9610  1.7991
 3164TIP3    H233688   3.143   1.621   7.560  0.0247  0.9204  0.0599
 3165TIP3   OH233689   0.320   4.507   8.419  0.1902 -0.0431 -0.7038
 3165TIP3    H133690   0.283   4.426   8.382 -1.7467 -0.5400  2.0139
 3165TIP3    H233691   0.270   4.577   8.378  0.8798 -0.2449 -1.9747
 3166TIP3   OH233692   2.695   2.444   7.928 -0.2092 -0.2044 -0.0344
 3166TIP3    H133693   2.726   2.488   8.007  1.0488  2.2076 -1.7230
 3166TIP3    H233694   2.600   2.441   7.938 -0.1535  1.0231  1.1122
 3167TIP3   OH233695   5.584   3.151   6.564 -0.0412 -0.1676 -0.5670
 3167TIP3    H133696   5.538   3.070   6.585  0.7296 -0.6157 -0.5737
 3167TIP3    H233697   5.671   3.123   6.536  1.2230  0.7800  2.0665
 3168TIP3   OH233698   6.809   1.174   8.053 -0.6399  0.3491  0.6659
 3168TIP3    H133699   6.731   1.138   8.011 -1.1669  2.5016 -0.3233
 3168TIP3    H233700   6.793   1.268   8.056  2.7723  1.1724 -1.4857
 3169TIP3   OH233701   4.499   5.542   9.023  0.5980 -0.1374  0.5400
 3169TIP3    H133702   4.480   5.448   9.018  1.1323 -0.1925 -0.9759
 3169TIP3    H233703   4.413   5.584   9.014  0.3172 -0.4642  1.5385
 3170TIP3   OH233704   0.784   4.652   7.502  0.1554 -0.2398  0.5228
 3170TIP3    H133705   0.812   4.726   7.556 -2.4841  1.9596 -0.8781
 3170TIP3    H233706   0.700   4.625   7.540 -0.9601  0.3171 -1.4117
 3171TIP3   OH233707   5.855   3.797   8.825  0.2511  0.9155 -0.0589
 3171TIP3    H133708   5.844   3.813   8.919  0.4531  2.6131 -0.2985
 3171TIP3    H233709   5.861   3.701   8.818  2.6611  0.8190  1.9174
 3172TIP3   OH233710   1.574   6.824   6.741  0.2382 -0.4218  0.7197
 3172TIP3    H133711   1.532   6.781   6.665  1.3007 -0.8778  0.3689
 3172TIP3    H233712   1.662   6.844   6.711 -0.2609  2.2313  0.8175
 3173TIP3   OH233713   5.071   7.615   7.807  0.7296  0.6166  0.0202
 3173TIP3    H133714   5.071   7.579   7.718  2.0985  0.5649  0.0215
 3173TIP3    H233715   4.981   7.645   7.821  0.0014 -1.1480 -0.6501
 3174TIP3   OH233716   6.469   2.307   7.248  0.4784  0.0275 -0.3888
 3174TIP3    H133717   6.512   2.241   7.194 -2.3206 -0.7063 -1.9582
 3174TIP3    H233718   6.394   2.335   7.195 -2.0562 -0.1819  2.7950
 3175TIP3   OH233719   0.455   2.792   8.707  0.1247  0.5403  0.0294
 3175TIP3    H133720   0.483   2.778   8.798 -0.6541  1.3209  0.4037
 3175TIP3    H233721   0.364   2.765   8.705  0.3371 -0.1736 -0.7186
 3176TIP3   OH233722   1.775   4.778   7.277 -0.4052 -0.2788  0.1787
 3176TIP3    H133723   1.735   4.862   7.303  0.9392  0.5445 -0.2880
 3176TIP3    H233724   1.714   4.742   7.213 -0.1943  1.2214 -0.9407
 3177TIP3   OH233725   0.383   5.398   8.933  0.2571 -0.1307  0.0851
 3177TIP3    H133726   0.408   5.428   9.020  0.1378 -0.4200  0.2218
 3177TIP3    H233727   0.365   5.478   8.883 -0.5358  0.0052  0.5831
 3178TIP3   OH233728   2.520   1.057   7.733 -0.1317  0.2243 -0.1650
 3178TIP3    H133729   2.513   1.146   7.699 -1.1120 -0.4908 -1.9832
 3178TIP3    H233730   2.445   1.011   7.694  1.0656 -1.7006 -0.3200
 3179TIP3   OH233731   2.479   4.658   7.222  0.6240 -0.4346 -0.1786
 3179TIP3    H133732   2.536   4.604   7.167  0.7157  0.8242 -1.3874
 3179TIP3    H233733   2.531   4.675   7.300  0.3623 -2.5355  0.5041
 3180TIP3   OH233734   2.777   3.383   7.866  0.1254  0.1577  0.1142
 3180TIP3    H133735   2.861   3.428   7.858 -0.7300  1.7421 -0.4041
 3180TIP3    H233736   2.745   3.408   7.953  0.2553 -0.5945  0.3873
 3181TIP3   OH233737   2.704   7.302   7.503 -0.3640 -0.1256  0.1793
 3181TIP3    H133738   2.730   7.374   7.446 -2.8738  2.0729  1.5836
 3181TIP3    H233739   2.782   7.283   7.555  0.7755  0.5525 -1.2332
 3182TIP3   OH233740   1.756   2.555   9.225 -0.4441 -0.1155 -0.2360
 3182TIP3    H133741   1.825   2.607   9.267 -0.3004  1.7111 -2.5627
 3182TIP3    H233742   1.676   2.584   9.268 -0.3142  1.7780 -1.1964
 3183TIP3   OH233743   3.096   4.874   7.897  0.0800  0.2858  0.4605
 3183TIP3    H133744   3.025   4.882   7.961  0.4262 -0.0910  0.8975
 3183TIP3    H233745   3.176   4.881   7.949  0.3642  0.6166 -0.0185
 3184TIP3   OH233746   1.966   6.679   8.195  0.0967  0.4906  0.1971
 3184TIP3    H133747   1.973   6.600   8.248 -1.6197 -1.1332 -1.8320
 3184TIP3    H233748   1.943   6.748   8.257 -1.6689 -1.2787  1.6106
 3185TIP3   OH233749   0.997   2.697   7.526 -0.5834 -0.3174  0.2300
 3185TIP3    H133750   0.930   2.761   7.549 -1.1332 -0.6964 -0.2826
 3185TIP3    H233751   0.965   2.614   7.563  0.5003 -0.1788  1.5757
 3186TIP3   OH233752   1.590   4.205   8.025  0.6243  0.9538  1.0949
 3186TIP3    H133753   1.631   4.239   8.104  2.6378  0.7948  0.1650
 3186TIP3    H233754   1.595   4.277   7.962  2.4329 -0.0766 -0.0192
 3187TIP3   OH233755   3.096   1.888   8.963  0.8081  0.0057 -0.2211
 3187TIP3    H133756   3.137   1.970   8.936 -0.6423  1.1416  0.8948
 3187TIP3    H233757   3.060   1.906   9.049 -1.7513 -1.0033 -0.9879
 3188TIP3   OH233758   0.579   3.803   8.927  0.3857  0.2280 -0.6630
 3188TIP3    H133759   0.556   3.891   8.898 -1.6254 -0.4250 -1.1939
 3188TIP3    H233760   0.608   3.815   9.017  1.5799  1.6002 -1.1907
 3189TIP3   OH233761   2.863   3.117   8.117 -0.0442  0.2682 -0.1560
 3189TIP3    H133762   2.835   3.030   8.144  0.8733 -0.1288 -0.4326
 3189TIP3    H233763   2.783   3.169   8.117 -0.7818 -0.8063 -0.9029
 3190TIP3   OH233764   5.203   0.484   7.077 -0.5799  0.1325 -0.2499
 3190TIP3    H133765   5.244   0.568   7.097 -1.2540  0.0145  1.8639
 3190TIP3    H233766   5.271   0.434   7.031  0.7709  0.8743  0.8759
 3191TIP3   OH233767   5.322   2.421   7.458 -0.5457 -0.2247  0.0925
 3191TIP3    H133768   5.260   2.463   7.399 -0.3853  0.9610  0.7447
 3191TIP3    H233769   5.270   2.359   7.509 -1.0404  0.1919  0.0918
 3192TIP3   OH233770   6.864   4.406   6.924 -0.0363 -0.5988 -0.8446
 3192TIP3    H133771   6.814   4.488   6.913 -0.4163 -0.6238  0.5582
 3192TIP3    H233772   6.954   4.430   6.905  0.1205  0.5683  1.1846
 3193TIP3   OH233773   5.833   5.789   7.104  0.1566 -1.0782  0.3656
 3193TIP3    H133774   5.779   5.867   7.109  0.2537 -1.0121  0.3910
 3193TIP3    H233775   5.850   5.777   7.010  2.3000  0.4336  0.4880
 3194TIP3   OH233776   3.872   4.390   6.995 -0.3632 -0.1813  0.4731
 3194TIP3    H133777   3.927   4.464   6.968 -1.4177 -0.0843 -1.6009
 3194TIP3    H233778   3.784   4.428   7.002 -0.4513 -0.6209  2.4482
 3195TIP3   OH233779   7.380   2.361   6.412  0.3210 -0.8728 -0.0864
 3195TIP3    H133780   7.396   2.450   6.381 -0.0004 -0.8798 -0.2846
 3195TIP3    H233781   7.441   2.349   6.485 -0.6922  0.0692  0.9635
 3196TIP3   OH233782   5.933   6.039   8.901 -0.3060  0.3738  0.2111
 3196TIP3    H133783   5.886   6.031   8.984 -0.2654  0.5749  0.2526
 3196TIP3    H233784   5.904   5.963   8.850 -1.7847  1.2657 -0.3285
 3197TIP3   OH233785   1.058   6.472   7.423 -0.1569 -0.1201 -0.4979
 3197TIP3    H133786   1.148   6.459   7.451 -0.7094 -3.6766  0.1748
 3197TIP3    H233787   1.047   6.413   7.349 -2.6066 -2.2652  1.3418
 3198TIP3   OH233788   2.487   7.195   7.629 -0.7584  0.2706 -0.0545
 3198TIP3    H133789   2.567   7.202   7.577 -0.8889  0.1272 -0.2754
 3198TIP3    H233790   2.444   7.280   7.619 -0.1049  0.7430  0.9441
 3199TIP3   OH233791   5.511   6.353   9.386  0.4730 -0.0938  0.0144
 3199TIP3    H133792   5.430   6.304   9.373 -1.5892  3.0317 -0.1410
 3199TIP3    H233793   5.531   6.345   9.479 -0.9201  0.3000  0.3632
 3200TIP3   OH233794   4.465   7.026   7.036 -0.5869  0.0985 -0.2542
 3200TIP3    H133795   4.490   6.970   7.109 -1.3238  2.1074  1.6548
 3200TIP3    H233796   4.369   7.028   7.038 -0.6129  0.2420 -1.2218
 3201TIP3   OH233797   5.125   1.132   8.303 -0.1741 -0.1677 -0.2171
 3201TIP3    H133798   5.068   1.180   8.243 -1.3919 -0.8835  0.3315
 3201TIP3    H233799   5.139   1.048   8.260  0.3437 -0.0562 -0.2710
 3202TIP3   OH233800   5.738   1.065   8.484  0.2778 -0.0811 -0.0311
 3202TIP3    H133801   5.667   1.103   8.432  0.5613  4.7651  2.5431
 3202TIP3    H233802   5.707   1.070   8.574  1.9528 -2.9161  0.8159
 3203TIP3   OH233803   4.552   2.033   8.671  0.3468 -0.8380 -0.0720
 3203TIP3    H133804   4.610   2.023   8.746  0.1115 -2.5354 -0.0709
 3203TIP3    H233805   4.471   2.068   8.707  0.4415 -1.0834  0.3863
 3204TIP3   OH233806   1.816   2.679   8.938  0.1990 -0.1315  0.2210
 3204TIP3    H133807   1.755   2.710   9.005  0.7226  0.7841  0.2902
 3204TIP3    H233808   1.761   2.638   8.872 -0.6494  1.9290 -0.4172
 3205TIP3   OH233809   7.330   0.894   6.724 -0.2218 -0.3682  0.9869
 3205TIP3    H133810   7.345   0.979   6.765  0.3509  0.6924 -1.2562
 3205TIP3    H233811   7.242   0.900   6.688 -0.7558 -1.3148  2.0897
 3206TIP3   OH233812   5.244   5.078   9.668 -0.1014  0.4542 -0.6076
 3206TIP3    H133813   5.162   5.078   9.717  0.7128  2.8303  0.9478
 3206TIP3    H233814   5.280   4.990   9.681 -2.0149 -0.3806 -0.7122
 3207TIP3   OH233815   0.899   7.409   8.400  0.4121 -0.1523 -0.2477
 3207TIP3    H133816   0.984   7.374   8.374 -0.0409  0.0971 -2.3121
 3207TIP3    H233817   0.913   7.503   8.411  0.3855 -0.0738 -0.8252
 3208TIP3   OH233818   3.565   1.229   9.447 -0.1450  0.1775  0.4503
 3208TIP3    H133819   3.563   1.183   9.363  0.4416 -1.2603  1.1909
 3208TIP3    H233820   3.478   1.217   9.483 -0.0244 -0.2761  0.5946
 3209TIP3   OH233821   4.616   2.578   8.541  0.2289  0.1436  0.1658
 3209TIP3    H133822   4.613   2.590   8.446 -1.1978 -1.4716 -0.0512
 3209TIP3    H233823   4.615   2.667   8.576 -1.1079  0.7801 -1.3284
 3210TIP3   OH233824   6.195   3.922   7.212  0.0864  0.6332  0.0191
 3210TIP3    H133825   6.229   3.898   7.298 -0.2050 -0.0248 -0.0450
 3210TIP3    H233826   6.199   3.841   7.161 -0.1022  0.9280 -0.4663
 3211TIP3   OH233827   5.913   4.771   7.238  0.3880 -0.5745  0.4235
 3211TIP3    H133828   5.881   4.718   7.164 -0.9899 -0.6000  1.0143
 3211TIP3    H233829   5.992   4.725   7.267  2.0563  0.4181 -2.1354
 3212TIP3   OH233830   0.765   3.689   7.526 -0.3445 -0.0114 -0.3804
 3212TIP3    H133831   0.800   3.778   7.519  0.2009 -0.2430 -0.6591
 3212TIP3    H233832   0.756   3.659   7.436 -0.6547 -0.1902 -0.2901
 3213TIP3   OH233833   3.477   1.069   8.829  0.0753  0.2701 -0.4420
 3213TIP3    H133834   3.571   1.070   8.811  1.0609  2.7078  3.5304
 3213TIP3    H233835   3.470   1.034   8.918 -2.9752 -0.9283 -1.0339
 3214TIP3   OH233836   0.049   0.452   8.578 -0.3823 -0.0027 -0.4355
 3214TIP3    H133837   0.038   0.538   8.618 -2.7917 -0.0713 -0.7786
 3214TIP3    H233838   0.063   0.470   8.485 -2.6760  0.0900 -0.8401
 3215TIP3   OH233839   1.805   7.465   9.206 -0.2915  0.0165 -0.6007
 3215TIP3    H133840   1.711   7.478   9.198 -0.4537  0.4036  1.3596
 3215TIP3    H233841   1.843   7.549   9.179 -0.6372  0.4758  0.2925
 3216TIP3   OH233842   3.797   5.931   8.053  0.0422  0.0213 -0.0736
 3216TIP3    H133843   3.847   5.874   7.995  2.7495  1.1758  0.9239
 3216TIP3    H233844   3.755   5.995   7.995 -1.7479 -1.9208 -1.0665
 3217TIP3   OH233845   6.133   4.087   8.207  0.3071 -0.3143  0.8705
 3217TIP3    H133846   6.051   4.125   8.176  0.3539 -0.9579 -0.0931
 3217TIP3    H233847   6.200   4.151   8.183  0.2498 -0.4555  0.3103
 3218TIP3   OH233848   2.187   0.093   7.339  0.2072  0.4658 -0.1258
 3218TIP3    H133849   2.196   0.092   7.244 -0.0527 -4.3652 -0.3451
 3218TIP3    H233850   2.274   0.117   7.371  0.3719  1.8616 -1.5284
 3219TIP3   OH233851   4.485   6.843   7.229 -0.1611 -0.1667  0.0220
 3219TIP3    H133852   4.391   6.831   7.238 -0.2797  0.7064 -0.0096
 3219TIP3    H233853   4.523   6.778   7.289 -0.8370  1.2112  2.0748
 3220TIP3   OH233854   3.003   6.100   7.407  0.3215 -0.7098  0.0713
 3220TIP3    H133855   3.094   6.108   7.379  0.2718 -0.4869 -0.0281
 3220TIP3    H233856   2.991   6.006   7.426  0.6629 -0.6859  0.3984
 3221TIP3   OH233857   3.353   2.221   6.877 -0.1195 -0.3702  0.4516
 3221TIP3    H133858   3.257   2.225   6.871 -0.0984  0.4998  0.6100
 3221TIP3    H233859   3.382   2.310   6.860  0.7026 -0.7400 -0.1543
 3222TIP3   OH233860   5.087   4.223   7.271 -0.0544 -0.2167  0.2991
 3222TIP3    H133861   5.108   4.150   7.329  0.0695  0.3369  0.9725
 3222TIP3    H233862   5.139   4.296   7.305 -0.4113  0.2673 -0.1730
 3223TIP3   OH233863   7.488   5.153   9.586 -0.2114  0.5236 -0.2970
 3223TIP3    H133864   7.501   5.097   9.662 -0.7275 -1.6664 -1.7354
 3223TIP3    H233865   7.558   5.128   9.526 -0.2704  1.6687 -0.8656
 3224TIP3   OH233866   3.315   4.898   8.077  0.6414 -0.2837  0.5691
 3224TIP3    H133867   3.282   4.955   8.146  1.1826 -0.4068  0.9389
 3224TIP3    H233868   3.404   4.875   8.105  0.9432 -0.1745 -0.2648
 3225TIP3   OH233869   0.273   1.401   8.101  0.4076 -0.0214 -0.3448
 3225TIP3    H133870   0.327   1.402   8.023  1.1057  1.4348  0.1278
 3225TIP3    H233871   0.311   1.467   8.159  0.4036 -1.5818  1.5870
 3226TIP3   OH233872   3.903   4.802   8.406  0.2079  0.0639  0.1544
 3226TIP3    H133873   3.908   4.768   8.495  1.6764  0.7546  0.3662
 3226TIP3    H233874   3.994   4.806   8.377 -0.3187 -2.5235 -2.3271
 3227TIP3   OH233875   6.912   7.432   9.059  0.1976 -0.6871 -0.0086
 3227TIP3    H133876   6.913   7.376   8.982  0.4303  0.9890 -1.2774
 3227TIP3    H233877   6.987   7.402   9.111  0.8807 -0.9700 -1.1189
 3228TIP3   OH233878   3.507   2.861   8.311 -0.5875  0.0517  0.2164
 3228TIP3    H133879   3.526   2.892   8.223 -0.1182  0.1244  0.3408
 3228TIP3    H233880   3.423   2.903   8.334 -0.6200  0.1718 -0.1240
 3229TIP3   OH233881   5.125   5.764   8.922 -0.0781  0.0706  0.2400
 3229TIP3    H133882   5.168   5.738   9.003  1.2985 -0.3353 -0.5936
 3229TIP3    H233883   5.140   5.691   8.862 -2.2328 -0.2367 -0.0209
 3230TIP3   OH233884   1.407   6.022   9.161 -0.5609 -0.1545  0.3771
 3230TIP3    H133885   1.342   6.088   9.137  1.1247  2.2321  1.9078
 3230TIP3    H233886   1.359   5.961   9.218 -1.9691  0.2241 -0.3509
 3231TIP3   OH233887   5.447   3.113   7.422 -0.1570 -0.0322 -0.2388
 3231TIP3    H133888   5.438   3.139   7.330 -0.2695 -0.2948 -0.3031
 3231TIP3    H233889   5.538   3.135   7.444 -0.8183  2.4302  0.3495
 3232TIP3   OH233890   1.068   4.323   8.514 -0.1903  0.0118 -0.3697
 3232TIP3    H133891   1.070   4.392   8.449 -0.0201  0.4318  0.0746
 3232TIP3    H233892   1.133   4.259   8.484 -0.4616 -0.0392 -0.8641
 3233TIP3   OH233893   1.150   5.094   8.289 -1.2915 -0.6401 -0.2696
 3233TIP3    H133894   1.110   5.166   8.336  0.4136 -0.4503  1.0060
 3233TIP3    H233895   1.078   5.051   8.243 -2.4016  1.6373 -0.7904
 3234TIP3   OH233896   7.335   3.331   7.579  0.5734  0.0007  0.0689
 3234TIP3    H133897   7.378   3.247   7.564  0.3126 -0.4052  1.4475
 3234TIP3    H233898   7.337   3.343   7.674 -0.3368  1.0540 -0.0199
 3235TIP3   OH233899   4.218   6.702   7.645  0.2365  0.0321 -0.2391
 3235TIP3    H133900   4.286   6.769   7.640  1.7842 -1.2806  1.6536
 3235TIP3    H233901   4.211   6.681   7.738 -0.6655 -1.9438 -0.6868
 3236TIP3   OH233902   4.100   6.399   8.724 -0.0266  0.5901  0.0718
 3236TIP3    H133903   4.147   6.316   8.729  0.3130  0.7097 -0.9278
 3236TIP3    H233904   4.132   6.450   8.799 -1.2628 -0.6817  1.5249
 3237TIP3   OH233905   2.899   6.578   9.034 -0.0475 -0.1825  0.0111
 3237TIP3    H133906   2.908   6.487   9.062  1.5947  0.2201  0.8825
 3237TIP3    H233907   2.916   6.576   8.939  0.6844 -0.6861  0.1495
 3238TIP3   OH233908   4.809   3.032   7.069  0.0606  0.4229 -0.3132
 3238TIP3    H133909   4.829   3.118   7.107 -0.8196  0.9254 -0.9675
 3238TIP3    H233910   4.714   3.030   7.063  0.1035 -0.3831 -0.8241
 3239TIP3   OH233911   2.656   5.431   8.814 -0.3334  0.3021 -0.1709
 3239TIP3    H133912   2.669   5.458   8.723 -0.8354 -1.8428 -0.9305
 3239TIP3    H233913   2.582   5.370   8.810  0.8213 -1.2624  1.3900
 3240TIP3   OH233914   1.607   2.727   7.761  0.4431 -0.1008  0.2871
 3240TIP3    H133915   1.621   2.680   7.843  0.2780  0.0191  0.3845
 3240TIP3    H233916   1.560   2.807   7.787  1.3897  0.4965  0.2358
 3241TIP3   OH233917   5.608   5.413   9.532 -0.4379  0.4457 -0.1913
 3241TIP3    H133918   5.604   5.333   9.584 -1.2668  0.4679 -0.2122
 3241TIP3    H233919   5.527   5.460   9.552  0.2154  1.4743  0.1240
 3242TIP3   OH233920   5.635   5.575   7.033 -0.6645  0.0862 -0.0102
 3242TIP3    H133921   5.638   5.625   7.115 -3.0576 -0.5978  0.5630
 3242TIP3    H233922   5.724   5.543   7.022 -0.1006  0.8077  1.9285
 3243TIP3   OH233923   5.950   6.808   8.520  0.2730 -0.5878 -0.0594
 3243TIP3    H133924   5.877   6.857   8.558  2.2912  0.5733  2.6031
 3243TIP3    H233925   6.004   6.874   8.478  1.0070 -1.0874  0.0777
 3244TIP3   OH233926   0.074   6.099   8.736 -0.7244 -0.5627 -0.4706
 3244TIP3    H133927  -0.006   6.151   8.744 -1.6950 -1.9834 -0.6085
 3244TIP3    H233928   0.055   6.037   8.666  0.6366 -0.7156 -0.7240
 3245TIP3   OH233929   2.831   1.367   8.112  0.3113  0.5064 -0.0258
 3245TIP3    H133930   2.896   1.437   8.114  1.9812 -0.9872  0.9526
 3245TIP3    H233931   2.881   1.289   8.090 -1.2516 -0.6311  0.2866
 3246TIP3   OH233932   5.142   3.391   9.298  0.0206  0.0819 -0.3884
 3246TIP3    H133933   5.068   3.334   9.277  0.2862 -0.3500 -0.1671
 3246TIP3    H233934   5.191   3.399   9.217  0.2601 -0.4184 -0.2946
 3247TIP3   OH233935   0.989   4.287   8.043  0.2330 -0.5079  0.7087
 3247TIP3    H133936   0.903   4.305   8.007  0.1736 -2.7966 -0.4588
 3247TIP3    H233937   0.973   4.234   8.120  0.5551  0.4466  1.4472
 3248TIP3   OH233938   2.240   2.847   8.862  0.0170 -0.3387 -0.3057
 3248TIP3    H133939   2.310   2.821   8.802  1.3692  1.8154  0.2368
 3248TIP3    H233940   2.276   2.921   8.910 -2.2402  0.0878  0.8501
 3249TIP3   OH233941   1.804   1.709   7.660 -0.3974 -0.1495  0.2002
 3249TIP3    H133942   1.846   1.762   7.728 -2.6469  0.4206  1.2274
 3249TIP3    H233943   1.803   1.766   7.583  1.0214 -0.3365  0.0083
 3250TIP3   OH233944   2.055   2.673   7.697 -0.0520 -0.3162 -0.1472
 3250TIP3    H133945   2.109   2.608   7.652  0.2140 -0.5108  0.4345
 3250TIP3    H233946   2.032   2.630   7.780  0.1042  0.3202  0.2328
 3251TIP3   OH233947   2.721   4.209   8.661  0.1618 -0.0308  0.7934
 3251TIP3    H133948   2.669   4.283   8.693 -1.4233  0.5178 -2.6516
 3251TIP3    H233949   2.810   4.230   8.689 -0.6016  1.8558  2.0938
 3252TIP3   OH233950   5.458   3.258   8.625 -0.6605  0.4656  0.6222
 3252TIP3    H133951   5.536   3.241   8.678 -0.2751  3.9825  1.3743
 3252TIP3    H233952   5.452   3.182   8.566  3.7100  0.3494  0.0573
 3253TIP3   OH233953   7.670   6.044   7.641 -0.6305 -0.5825  0.1291
 3253TIP3    H133954   7.663   6.139   7.650 -0.2107 -0.5427  0.0348
 3253TIP3    H233955   7.740   6.031   7.577 -1.9218 -0.9178 -1.2798
 3254TIP3   OH233956   3.461   1.433   8.494 -0.2008 -0.3141  0.5620
 3254TIP3    H133957   3.417   1.350   8.517  0.4830 -0.2265  2.4002
 3254TIP3    H233958   3.502   1.461   8.576 -1.5893  2.6037  0.3752
 3255TIP3   OH233959   0.198   0.569   9.189 -0.0025 -0.0530  0.1346
 3255TIP3    H133960   0.273   0.587   9.133 -0.9667 -1.1619 -1.6043
 3255TIP3    H233961   0.231   0.508   9.255  0.7064 -0.2720 -0.4096
 3256TIP3   OH233962   7.218   0.091   7.187 -1.2626  0.3275  0.1470
 3256TIP3    H133963   7.144   0.088   7.126 -3.1720  0.2621  2.3183
 3256TIP3    H233964   7.185   0.048   7.266  0.7738  1.1997  1.5431
 3257TIP3   OH233965   0.825   3.958   7.480 -0.2474  0.5276 -0.0831
 3257TIP3    H133966   0.914   3.965   7.446 -0.0161  0.7243  0.5525
 3257TIP3    H233967   0.806   4.044   7.517 -0.3373  0.2028  0.6512
 3258TIP3   OH233968   1.632   2.575   8.778  0.2189 -0.3728  0.1767
 3258TIP3    H133969   1.649   2.559   8.685  0.4590 -2.0693  0.4735
 3258TIP3    H233970   1.537   2.581   8.785  0.2523  1.3298 -0.3711
 3259TIP3   OH233971   4.025   5.114   7.728 -0.1541  0.2261 -0.2435
 3259TIP3    H133972   4.102   5.060   7.714 -0.0139  0.7931 -1.9088
 3259TIP3    H233973   4.052   5.202   7.700 -1.1540  0.6023 -0.0681
 3260TIP3   OH233974   6.058   1.967   8.285 -0.3859  0.2424  0.6513
 3260TIP3    H133975   6.148   1.942   8.306 -0.1430 -0.3046 -0.9549
 3260TIP3    H233976   6.064   2.057   8.256 -0.5488  0.5986  1.6778
 3261TIP3   OH233977   6.483   5.781   7.005 -0.1940  0.4902  0.6474
 3261TIP3    H133978   6.477   5.685   7.003 -2.6761  0.5881  0.5517
 3261TIP3    H233979   6.543   5.800   7.077 -0.0166 -1.1374  0.9600
 3262TIP3   OH233980   1.489   3.324   8.548 -0.3082 -0.2430 -0.2027
 3262TIP3    H133981   1.460   3.339   8.458 -0.4693  2.4139  0.2232
 3262TIP3    H233982   1.424   3.370   8.602  0.5874 -0.5705  1.1924
 3263TIP3   OH233983   2.862   7.676   7.607  0.1616  0.4066 -0.0351
 3263TIP3    H133984   2.923   7.748   7.623  1.5251 -0.7370  0.1399
 3263TIP3    H233985   2.790   7.691   7.668  0.5836  1.4301  0.2243
 3264TIP3   OH233986   1.044   1.452   9.440 -0.7057  0.4595 -0.7294
 3264TIP3    H133987   0.984   1.508   9.489 -0.7931 -0.4215  0.1840
 3264TIP3    H233988   1.130   1.492   9.453 -0.7704  0.4033 -0.0910
 3265TIP3   OH233989   0.558   3.228   7.428  0.2543 -0.1931  0.2343
 3265TIP3    H133990   0.511   3.258   7.350  0.9468 -1.2839 -0.6400
 3265TIP3    H233991   0.636   3.184   7.393  0.1624 -1.4374  1.4993
 3266TIP3   OH233992   4.060   3.385   8.916 -0.6262  0.1438 -0.0586
 3266TIP3    H133993   4.102   3.389   9.001  1.4364  0.6393 -1.0404
 3266TIP3    H233994   4.035   3.476   8.897 -1.2960 -0.0002  0.0900
 3267TIP3   OH233995   3.976   0.788   8.340  0.4153  0.3023  0.6891
 3267TIP3    H133996   3.961   0.874   8.381  1.5823  0.1345  1.5110
 3267TIP3    H233997   3.889   0.760   8.311  0.1293  2.1495 -0.4059
 3268TIP3   OH233998   1.141   2.277   9.294 -0.5475 -0.1135  0.1806
 3268TIP3    H133999   1.080   2.290   9.222  0.3475  0.5541 -0.4767
 3268TIP3    H234000   1.132   2.355   9.348 -1.0803 -0.5290  0.7215
 3269TIP3   OH234001   4.016   3.112   6.836 -0.1716  0.3810 -0.7358
 3269TIP3    H134002   3.937   3.108   6.889  0.9909  1.5493  1.1555
 3269TIP3    H234003   4.051   3.022   6.839 -0.0711  0.4468  0.5905
 3270TIP3   OH234004   2.869   4.362   8.344  0.0417 -0.6649  0.4806
 3270TIP3    H134005   2.855   4.443   8.295 -0.6033 -0.0561  1.6066
 3270TIP3    H234006   2.880   4.295   8.278 -1.4162  0.0106 -0.4975
 3271TIP3   OH234007   4.147   3.241   7.825 -0.0907 -0.1685 -0.1487
 3271TIP3    H134008   4.111   3.312   7.878 -1.9559 -1.3858  0.2998
 3271TIP3    H234009   4.203   3.193   7.885 -0.0361  0.0239 -0.0422
 3272TIP3   OH234010   6.288   1.750   8.285 -0.1462 -0.2219 -0.3047
 3272TIP3    H134011   6.382   1.760   8.268 -0.0345 -0.9467 -0.1480
 3272TIP3    H234012   6.280   1.664   8.325 -0.7238  0.4069  0.9652
 3273TIP3   OH234013   2.958   7.199   8.935 -0.2122  0.0771 -0.1114
 3273TIP3    H134014   3.008   7.273   8.899 -1.3065  0.9183  0.0660
 3273TIP3    H234015   2.867   7.217   8.910 -0.6117 -0.7640  0.6955
 3274TIP3   OH234016   1.584   7.509   7.988 -0.2247 -0.6564 -0.3939
 3274TIP3    H134017   1.555   7.486   7.900  0.6276  1.9646 -1.4605
 3274TIP3    H234018   1.679   7.510   7.982 -0.1806  1.1325  0.0438
 3275TIP3   OH234019   1.681   2.106   7.612 -0.2967  0.1611  0.5797
 3275TIP3    H134020   1.623   2.157   7.557 -1.6940 -0.5729  1.3236
 3275TIP3    H234021   1.756   2.164   7.628 -1.2313  1.4851  0.3493
 3276TIP3   OH234022   2.917   5.491   7.459 -0.0703 -0.3541 -0.1729
 3276TIP3    H134023   2.970   5.493   7.379 -0.0658  1.6879 -0.1601
 3276TIP3    H234024   2.827   5.483   7.428  0.0584 -1.5104 -0.2841
 3277TIP3   OH234025   5.200   6.967   6.655  0.1223 -0.1742  0.1610
 3277TIP3    H134026   5.172   7.058   6.647  1.1430  0.2744  1.3354
 3277TIP3    H234027   5.281   6.962   6.603 -0.6573 -0.7885 -1.0454
 3278TIP3   OH234028   5.056   0.370   8.252 -0.4473 -0.2219  0.2945
 3278TIP3    H134029   5.099   0.300   8.203 -1.3669 -0.8009  0.2949
 3278TIP3    H234030   5.055   0.338   8.343  3.0930  1.7061  1.2081
 3279TIP3   OH234031   5.134   1.838   7.901  0.1660  0.3567  0.0074
 3279TIP3    H134032   5.167   1.839   7.811 -0.6790 -0.6044 -0.3357
 3279TIP3    H234033   5.185   1.905   7.946  1.3089  0.1601 -0.9347
 3280TIP3   OH234034   5.566   4.399   9.320  0.2276 -0.5227 -0.6951
 3280TIP3    H134035   5.476   4.398   9.288 -0.3257  0.2412  0.7424
 3280TIP3    H234036   5.562   4.355   9.405  0.4198  2.7249  1.1683
 3281TIP3   OH234037   4.862   3.530   8.137 -0.0297  0.6361 -0.0668
 3281TIP3    H134038   4.936   3.565   8.186  1.1633  0.2976 -1.5563
 3281TIP3    H234039   4.811   3.482   8.202  1.7373 -0.1851  0.7748
 3282TIP3   OH234040   5.145   2.272   7.244  0.4521  0.0993 -0.3167
 3282TIP3    H134041   5.121   2.213   7.172  0.2115  0.4548 -0.5331
 3282TIP3    H234042   5.197   2.341   7.202 -2.1082  1.9543 -0.7462
 3283TIP3   OH234043   2.869   5.441   9.392 -0.4851 -0.1107 -0.7365
 3283TIP3    H134044   2.876   5.353   9.431 -1.2385  1.0259  2.2593
 3283TIP3    H234045   2.794   5.434   9.332 -3.5287 -0.6207  2.7316
 3284TIP3   OH234046   5.783   1.659   6.471  0.4815  0.5978 -0.3517
 3284TIP3    H134047   5.848   1.707   6.522 -2.3327  1.1549  3.1297
 3284TIP3    H234048   5.795   1.568   6.496  0.5225  0.5712 -0.4671
 3285TIP3   OH234049   4.743   1.372   7.262 -0.7938 -0.2802  0.6584
 3285TIP3    H134050   4.812   1.306   7.260  0.1343  0.6357  1.0697
 3285TIP3    H234051   4.666   1.328   7.228  0.4715 -0.7922 -1.7675
 3286TIP3   OH234052   7.062   4.522   9.142  0.1787  0.0105  0.0024
 3286TIP3    H134053   7.133   4.582   9.118  0.1882  0.0311  0.0795
 3286TIP3    H234054   7.026   4.493   9.059  0.3708 -0.1117 -0.0392
 3287TIP3   OH234055   6.417   1.839   7.072 -0.5704 -0.0537 -0.2567
 3287TIP3    H134056   6.351   1.890   7.025 -0.3194 -0.0105 -0.5662
 3287TIP3    H234057   6.438   1.893   7.148 -1.8534 -0.6722  0.5751
 3288TIP3   OH234058   6.799   3.757   7.744 -0.3489 -0.0571 -0.1455
 3288TIP3    H134059   6.704   3.758   7.728 -0.6768  0.6417  1.6322
 3288TIP3    H234060   6.819   3.665   7.763 -0.6575 -0.2127 -0.5545
 3289TIP3   OH234061   0.277   2.951   7.270 -0.1054  0.2058 -0.3485
 3289TIP3    H134062   0.347   2.890   7.245  0.9854  0.6162  1.4957
 3289TIP3    H234063   0.219   2.953   7.194  0.1073 -2.6758 -0.6800
 3290TIP3   OH234064   0.049   5.211   8.989  0.2107 -0.3535  0.4348
 3290TIP3    H134065   0.134   5.248   8.964 -0.1707  0.1552 -0.1338
 3290TIP3    H234066   0.039   5.233   9.081 -0.7655  2.5164 -0.2631
 3291TIP3   OH234067   5.821   0.797   8.402 -0.4545 -0.2683 -0.0360
 3291TIP3    H134068   5.776   0.759   8.477  0.5510  0.1553  0.8104
 3291TIP3    H234069   5.770   0.874   8.380 -1.1996 -0.8284 -0.2920
 3292TIP3   OH234070   3.044   4.604   8.816 -0.8904  0.2127  0.5412
 3292TIP3    H134071   3.082   4.551   8.886  0.2719  0.0157 -0.2094
 3292TIP3    H234072   3.008   4.540   8.755  1.5083  0.1229 -0.9386
 3293TIP3   OH234073   7.319   5.531   7.993  0.0635 -0.1799  0.3686
 3293TIP3    H134074   7.251   5.469   7.969 -0.5819 -0.3636  2.4602
 3293TIP3    H234075   7.273   5.613   8.009  0.6224  0.2534 -0.1695
 3294TIP3   OH234076   2.330   6.536   8.774  0.2910  0.0664  0.2332
 3294TIP3    H134077   2.259   6.581   8.821 -1.0431 -0.8890 -0.7721
 3294TIP3    H234078   2.303   6.444   8.773  1.0701 -0.1754 -1.0015
 3295TIP3   OH234079   7.016   7.346   7.347 -0.0082 -0.1379  0.4957
 3295TIP3    H134080   6.935   7.359   7.297  0.1814 -0.3952  0.1160
 3295TIP3    H234081   6.989   7.353   7.438 -0.0689  1.9821  0.3529
 3296TIP3   OH234082   6.119   6.287   8.762 -0.4624 -0.2222  0.3157
 3296TIP3    H134083   6.113   6.275   8.856 -0.6014  0.7264  0.4362
 3296TIP3    H234084   6.070   6.367   8.745  0.9920  0.5540 -0.3494
 3297TIP3   OH234085   0.560   6.175   7.945 -0.3791 -0.1722 -0.0968
 3297TIP3    H134086   0.623   6.103   7.940  0.4120  0.5726 -2.1031
 3297TIP3    H234087   0.485   6.138   7.992 -0.1422 -2.4311 -1.3494
 3298TIP3   OH234088   1.091   3.234   8.762 -0.4405  0.2249 -0.0914
 3298TIP3    H134089   1.063   3.143   8.766  0.8906 -0.1829  0.4293
 3298TIP3    H234090   1.077   3.268   8.851  0.9476 -0.0817  0.2714
 3299TIP3   OH234091   2.933   1.811   7.907 -0.7704  0.4762 -0.2250
 3299TIP3    H134092   3.017   1.812   7.862  0.0439 -0.3433  1.2111
 3299TIP3    H234093   2.951   1.768   7.991 -2.3443  1.4519  0.6613
 3300TIP3   OH234094   0.051   1.856   8.825 -0.3652  0.3150  0.0696
 3300TIP3    H134095   0.000   1.923   8.871  1.2496  1.6797 -0.0469
 3300TIP3    H234096   0.136   1.897   8.808  0.3802 -1.4673 -0.8036
 3301TIP3   OH234097   4.584   4.227   8.478 -0.0868  0.4313 -0.3575
 3301TIP3    H134098   4.607   4.316   8.449 -1.0882  0.7211 -0.2900
 3301TIP3    H234099   4.608   4.226   8.571 -2.0187  1.3681  0.2082
 3302TIP3   OH234100   4.153   6.735   8.532 -0.7486  0.2671  0.7908
 3302TIP3    H134101   4.168   6.828   8.542  2.0078  0.2314 -1.6734
 3302TIP3    H234102   4.217   6.693   8.589 -1.6859 -0.1541  1.5617
 3303TIP3   OH234103   3.965   6.961   9.523 -0.1731  0.0682 -0.4234
 3303TIP3    H134104   4.028   7.023   9.560  0.4481 -0.8664  0.1155
 3303TIP3    H234105   4.000   6.939   9.437 -1.7964  2.5123 -1.8506
 3304TIP3   OH234106   5.763   3.949   7.636  0.0034 -0.4054 -0.6396
 3304TIP3    H134107   5.761   3.897   7.556 -1.4582 -0.1092 -0.8330
 3304TIP3    H234108   5.700   3.907   7.694 -0.3949  0.4936 -0.3957
 3305TIP3   OH234109   6.907   1.627   8.037  0.3238 -0.6429  0.4940
 3305TIP3    H134110   6.836   1.567   8.059 -0.0722 -0.3741 -0.0301
 3305TIP3    H234111   6.878   1.712   8.071 -0.1036 -0.3108 -0.6488
 3306TIP3   OH234112   2.692   3.843   6.663  0.3800 -0.5047 -0.2128
 3306TIP3    H134113   2.634   3.864   6.736 -0.1837  0.4551 -0.9225
 3306TIP3    H234114   2.671   3.752   6.642 -1.0772 -0.1017 -0.6177
 3307TIP3   OH234115   1.014   1.607   9.005 -0.4734  0.3107 -0.4009
 3307TIP3    H134116   0.956   1.654   8.945 -0.9470 -1.3852 -1.3442
 3307TIP3    H234117   1.097   1.601   8.957  0.3112  2.1401  0.6660
 3308TIP3   OH234118   2.758   3.860   9.112  0.1412  0.3482  0.2770
 3308TIP3    H134119   2.664   3.855   9.131  0.1347 -0.3606  0.0722
 3308TIP3    H234120   2.765   3.926   9.043 -0.1505  0.7469  0.6210
 3309TIP3   OH234121   1.989   5.272   9.355  0.4462 -0.4259  0.5939
 3309TIP3    H134122   1.999   5.191   9.406  0.2147 -1.8524 -1.4838
 3309TIP3    H234123   1.909   5.259   9.304  0.2559  1.2494  0.4051
 3310TIP3   OH234124   2.087   3.836   7.706 -0.1177 -0.2966 -0.1742
 3310TIP3    H134125   2.119   3.763   7.654  0.9367 -1.0605  1.4579
 3310TIP3    H234126   2.074   3.800   7.794 -2.2166  0.8480  0.0389
 3311TIP3   OH234127   5.081   5.158   8.354  0.5873 -0.2159 -0.5388
 3311TIP3    H134128   5.040   5.242   8.376  2.0804  0.9524 -1.9924
 3311TIP3    H234129   5.108   5.122   8.438  0.1379  0.8616  0.0957
 3312TIP3   OH234130   7.249   5.543   8.291  0.0039  0.2592  0.0713
 3312TIP3    H134131   7.212   5.469   8.338  0.8956  1.2914  2.5560
 3312TIP3    H234132   7.196   5.550   8.211  0.1957 -3.2780 -0.5135
 3313TIP3   OH234133   6.263   2.217   8.418  0.1409  0.0913  0.1788
 3313TIP3    H134134   6.273   2.125   8.444 -0.9975  0.6100  2.7806
 3313TIP3    H234135   6.324   2.264   8.474  0.8591  0.9426 -1.2755
 3314TIP3   OH234136   7.019   4.286   8.335 -0.0378  0.2036 -0.2366
 3314TIP3    H134137   7.024   4.197   8.300 -0.2640  0.1776 -0.2075
 3314TIP3    H234138   7.106   4.323   8.319  0.0771 -0.0432 -0.1909
 3315TIP3   OH234139   0.832   0.760   6.556  0.3198 -0.1961  0.2422
 3315TIP3    H134140   0.810   0.765   6.649  2.4430  1.0580  0.7316
 3315TIP3    H234141   0.910   0.815   6.546 -0.9641  1.3225 -2.6496
 3316TIP3   OH234142   3.775   3.532   8.494 -0.4307 -0.2659 -0.4168
 3316TIP3    H134143   3.745   3.558   8.582  0.0054  0.9139 -0.6038
 3316TIP3    H234144   3.819   3.448   8.509 -0.2530 -0.0257  0.5145
 3317TIP3   OH234145   7.322   6.820   6.866  0.0615 -0.1679 -0.5622
 3317TIP3    H134146   7.243   6.874   6.856 -1.7309 -2.4140  0.5412
 3317TIP3    H234147   7.305   6.743   6.811 -0.0189 -2.1658  2.0462
 3318TIP3   OH234148   4.538   0.575   8.594 -0.4586 -0.4138 -0.0115
 3318TIP3    H134149   4.462   0.632   8.585 -0.9506 -0.9585  0.5635
 3318TIP3    H234150   4.594   0.597   8.520 -0.7646  0.6115  0.0485
 3319TIP3   OH234151   1.769   1.946   8.581  0.5133 -0.1595 -0.1959
 3319TIP3    H134152   1.731   1.884   8.519  1.0871 -1.7605  0.9635
 3319TIP3    H234153   1.864   1.935   8.571  0.6182  0.0276  0.4918
 3320TIP3   OH234154   1.366   5.484   8.384  0.2143  0.0808 -0.6794
 3320TIP3    H134155   1.361   5.532   8.467  0.9782  0.0871 -0.6346
 3320TIP3    H234156   1.324   5.400   8.403  0.1233  0.1957 -0.3682
 3321TIP3   OH234157   0.449   5.897   9.700 -0.3160 -0.3976 -0.1454
 3321TIP3    H134158   0.530   5.853   9.724  0.8759  2.2176  1.1139
 3321TIP3    H234159   0.397   5.899   9.781 -0.0906  0.9041 -0.0028
 3322TIP3   OH234160   4.910   0.321   9.146  0.1446 -0.2475  0.1526
 3322TIP3    H134161   4.829   0.332   9.196  0.4395  0.1134  0.5576
 3322TIP3    H234162   4.898   0.238   9.100 -0.2630 -0.4328  0.5787
 3323TIP3   OH234163   7.439   6.928   7.487  0.1373 -0.3097 -0.0729
 3323TIP3    H134164   7.366   6.929   7.425  1.3419  1.8260 -1.5964
 3323TIP3    H234165   7.405   6.969   7.566 -1.1202 -2.0873  0.3564
 3324TIP3   OH234166   1.966   6.037   9.291 -0.3632 -0.2699  0.3050
 3324TIP3    H134167   1.991   5.999   9.207  1.1025  1.2056  0.0275
 3324TIP3    H234168   1.879   6.074   9.276  0.0056  0.2337 -0.6554
 3325TIP3   OH234169   4.118   2.153   7.473  0.5115 -0.1174  0.1576
 3325TIP3    H134170   4.096   2.188   7.387 -0.7313  1.1163  0.9522
 3325TIP3    H234171   4.076   2.067   7.475 -1.2564  0.7219  0.3004
 3326TIP3   OH234172   6.079   4.147   7.115  0.2065  0.4283 -0.8639
 3326TIP3    H134173   6.139   4.085   7.156  1.2399  1.9939  0.1174
 3326TIP3    H234174   6.117   4.233   7.134 -2.0723  1.4692 -0.6624
 3327TIP3   OH234175   6.619   1.254   6.407  0.0632  0.1186  0.1799
 3327TIP3    H134176   6.704   1.274   6.368  0.4593  0.6454  1.2781
 3327TIP3    H234177   6.575   1.338   6.415 -0.8787 -0.2305 -1.0440
 3328TIP3   OH234178   6.889   0.339   8.824 -0.2788 -0.1858  0.2495
 3328TIP3    H134179   6.960   0.276   8.813 -0.8647 -0.8534  0.2009
 3328TIP3    H234180   6.922   0.401   8.889  0.9475  0.4303 -0.9101
 3329TIP3   OH234181   0.819   3.088   7.720  0.2330  1.1972  0.1337
 3329TIP3    H134182   0.816   3.183   7.713 -0.1280  1.3750  2.0789
 3329TIP3    H234183   0.912   3.067   7.723  0.3123  1.5823  0.5460
 3330TIP3   OH234184   3.562   0.008   9.195 -0.0024  0.0997  0.1027
 3330TIP3    H134185   3.644   0.021   9.147 -0.7315 -2.6107 -2.1688
 3330TIP3    H234186   3.576  -0.073   9.244 -1.2005 -0.2802 -0.1535
 3331TIP3   OH234187   2.875   4.357   9.061 -0.6290 -0.6357  0.0416
 3331TIP3    H134188   2.866   4.337   8.968  0.0188  1.4782 -0.5462
 3331TIP3    H234189   2.946   4.301   9.091  1.1182  0.6203 -1.4850
 3332TIP3   OH234190   1.604   0.708   8.481  0.8947 -0.1899 -0.2291
 3332TIP3    H134191   1.554   0.656   8.419  0.3392 -1.1278  0.9521
 3332TIP3    H234192   1.593   0.799   8.452 -0.4512 -0.4965 -0.7308
 3333TIP3   OH234193   1.422   4.462   8.471 -0.7205  0.1745 -0.3721
 3333TIP3    H134194   1.432   4.497   8.382 -0.8778  1.4800  0.1143
 3333TIP3    H234195   1.368   4.525   8.516 -0.6505 -0.4892  0.6703
 3334TIP3   OH234196   7.445   1.490   9.036  0.2396 -0.7306  0.0521
 3334TIP3    H134197   7.375   1.425   9.028 -2.6428  2.0261  0.8887
 3334TIP3    H234198   7.492   1.464   9.115  0.7478 -3.0486 -0.9198
 3335TIP3   OH234199   0.682   5.025   7.967 -0.3138 -0.6515  0.0965
 3335TIP3    H134200   0.683   5.119   7.983  1.9312 -0.7294  0.7811
 3335TIP3    H234201   0.689   5.017   7.872  0.5215 -0.0805  0.0931
 3336TIP3   OH234202   2.108   5.773   7.923  0.2690 -0.0859 -0.1204
 3336TIP3    H134203   2.015   5.754   7.932 -0.2391  2.1897  0.1117
 3336TIP3    H234204   2.126   5.765   7.830 -0.2051 -0.3420 -0.1921
 3337TIP3   OH234205   7.430   3.049   8.179  0.1018  0.6363 -0.2141
 3337TIP3    H134206   7.521   3.077   8.184 -0.2369  1.5909  2.4713
 3337TIP3    H234207   7.382   3.116   8.229 -1.7042 -1.2036  0.6589
 3338TIP3   OH234208   6.787   5.510   8.209 -0.9247  0.1693  0.0298
 3338TIP3    H134209   6.716   5.542   8.264 -0.4712  0.4532  0.4594
 3338TIP3    H234210   6.767   5.543   8.122 -1.1549  0.5055  0.2082
 3339TIP3   OH234211   0.603   2.660   9.448 -0.1690  0.2763 -0.0948
 3339TIP3    H134212   0.571   2.575   9.480  0.8851 -0.4524 -0.9424
 3339TIP3    H234213   0.534   2.722   9.474 -0.2308 -0.5650  1.9274
 3340TIP3   OH234214   0.105   3.287   9.115  0.5836 -0.5067 -0.1707
 3340TIP3    H134215   0.112   3.345   9.192 -0.0817 -0.2194 -0.3167
 3340TIP3    H234216   0.047   3.217   9.143 -2.0450  1.0853 -1.2424
 3341TIP3   OH234217   5.360   7.029   8.177  0.0568 -0.1909  0.3612
 3341TIP3    H134218   5.404   6.946   8.196 -2.0494 -1.0280  1.9195
 3341TIP3    H234219   5.424   7.096   8.205  1.6384 -1.2264 -0.5990
 3342TIP3   OH234220   5.060   7.203   7.007  0.5358  0.1730  0.2361
 3342TIP3    H134221   5.058   7.113   6.975  0.7645 -0.4168  1.7778
 3342TIP3    H234222   5.141   7.239   6.972 -0.2891  0.3261 -1.6714
 3343TIP3   OH234223   7.087   5.705   8.101 -0.4825  0.7104  0.1016
 3343TIP3    H134224   7.127   5.773   8.047  1.2725  0.6097  1.2045
 3343TIP3    H234225   7.012   5.748   8.143  0.1665  1.7408  0.2207
 3344TIP3   OH234226   0.052   1.613   7.069 -0.0559  0.0777  0.1982
 3344TIP3    H134227   0.099   1.692   7.041  0.2914 -0.4051 -0.6246
 3344TIP3    H234228   0.120   1.547   7.080 -0.5565 -0.8536 -1.7600
 3345TIP3   OH234229   7.432   3.920   8.065  0.6365  0.0935  0.3770
 3345TIP3    H134230   7.339   3.899   8.060  0.7732 -0.3241 -0.5582
 3345TIP3    H234231   7.471   3.877   7.989  1.4451  1.0304  0.2387
 3346TIP3   OH234232   6.564   5.860   6.736 -0.1105  0.0943  0.5125
 3346TIP3    H134233   6.496   5.921   6.709 -0.3347  0.1501  1.1776
 3346TIP3    H234234   6.538   5.833   6.824  0.5966 -0.0721  0.6775
 3347TIP3   OH234235   2.168   4.689   7.681  0.2574  0.4867 -0.2467
 3347TIP3    H134236   2.105   4.734   7.626 -1.8463 -1.7588  0.1426
 3347TIP3    H234237   2.155   4.726   7.768 -0.3187  0.2580 -0.2316
 3348TIP3   OH234238   1.027   5.319   7.817  0.2887  0.0433  0.3139
 3348TIP3    H134239   1.079   5.270   7.753  1.2808  2.3008 -0.7132
 3348TIP3    H234240   0.937   5.310   7.785 -0.0526 -3.3555  1.7497
 3349TIP3   OH234241   2.252   5.425   9.071  0.4564 -0.3096  0.2334
 3349TIP3    H134242   2.282   5.439   8.981 -1.4273 -0.0163 -0.4040
 3349TIP3    H234243   2.192   5.499   9.087  1.3461  0.0643  2.0178
 3350TIP3   OH234244   2.246   0.400   7.496  0.1198  0.2310  0.1935
 3350TIP3    H134245   2.209   0.424   7.411  0.5302  2.6267  0.6388
 3350TIP3    H234246   2.177   0.350   7.539 -0.6214  0.2198 -0.9709
 3351TIP3   OH234247   2.771   0.659   9.632  0.1527 -0.6974  0.2776
 3351TIP3    H134248   2.819   0.650   9.715  1.5492 -2.1098 -0.6267
 3351TIP3    H234249   2.807   0.739   9.593  1.1304 -1.2293  0.0453
 3352TIP3   OH234250   7.626   2.694   9.060  0.2600  0.2735  0.2617
 3352TIP3    H134251   7.642   2.621   9.119 -1.0097 -1.6894 -1.6884
 3352TIP3    H234252   7.670   2.669   8.978  0.9623  2.3454 -0.0630
 3353TIP3   OH234253   3.351   6.523   8.783 -0.3916 -0.3369  0.2351
 3353TIP3    H134254   3.342   6.617   8.802  0.8350  0.1094 -1.1698
 3353TIP3    H234255   3.265   6.487   8.804 -0.7995  1.0386  1.1083
 3354TIP3   OH234256   5.533   0.967   8.297  0.4489 -0.2877  0.0198
 3354TIP3    H134257   5.558   0.929   8.213  0.4251  1.1049 -0.6334
 3354TIP3    H234258   5.458   0.914   8.325  0.6003 -0.9087 -0.7174
 3355TIP3   OH234259   1.748   5.298   8.837 -0.5302 -0.0849 -0.0328
 3355TIP3    H134260   1.713   5.385   8.856 -1.4324 -0.5416  0.4496
 3355TIP3    H234261   1.692   5.238   8.886  1.5331 -0.7953  1.6032
 3356TIP3   OH234262   6.530   3.899   7.475 -0.1708  0.3973  0.2422
 3356TIP3    H134263   6.566   3.839   7.540 -0.0983  1.8242  1.5673
 3356TIP3    H234264   6.603   3.918   7.416 -0.0545 -0.3757  0.1270
 3357TIP3   OH234265   3.649   5.035   9.114 -0.5958 -0.2579  0.2145
 3357TIP3    H134266   3.719   4.970   9.121 -1.3109 -1.3776 -1.9846
 3357TIP3    H234267   3.583   5.007   9.177  0.2263 -0.1022  1.1707
 3358TIP3   OH234268   0.922   0.594   7.909 -0.4866  0.4049 -0.1673
 3358TIP3    H134269   0.909   0.614   8.002 -0.1301  0.7113 -0.1813
 3358TIP3    H234270   1.011   0.624   7.890 -0.4726  0.1298 -0.5526
 3359TIP3   OH234271   4.902   7.139   8.159  0.3236 -0.1480  0.0535
 3359TIP3    H134272   4.828   7.137   8.220 -0.1210  2.1846 -0.3253
 3359TIP3    H234273   4.881   7.209   8.098  2.0156 -0.6557 -1.1782
 3360TIP3   OH234274   3.272   4.939   9.082 -0.2689  0.3459 -0.2199
 3360TIP3    H134275   3.188   4.896   9.064  0.6275 -1.2331 -0.8209
 3360TIP3    H234276   3.331   4.905   9.014  0.9106  1.2685  0.3145
 3361TIP3   OH234277   3.138   1.067   7.763  0.3651  0.8247 -0.3153
 3361TIP3    H134278   3.047   1.046   7.744  0.9464 -0.0962 -2.2525
 3361TIP3    H234279   3.136   1.158   7.792 -1.2491  0.5580  0.5317
 3362TIP3   OH234280   2.621   6.291   6.866  0.4105 -0.1248  0.3531
 3362TIP3    H134281   2.711   6.268   6.888  0.3483  0.8675  1.6939
 3362TIP3    H234282   2.624   6.313   6.773  1.6717  0.5001  0.5311
 3363TIP3   OH234283   6.870   0.153   6.503 -0.0001 -0.4462 -0.2081
 3363TIP3    H134284   6.775   0.143   6.511 -0.0040  0.2170  0.7658
 3363TIP3    H234285   6.882   0.232   6.450 -0.0156  0.0444  0.4949
 3364TIP3   OH234286   5.830   6.660   6.674 -0.4961 -0.1760  0.1505
 3364TIP3    H134287   5.850   6.717   6.749  0.5977  0.7830 -0.8452
 3364TIP3    H234288   5.735   6.646   6.680 -0.5816  0.7175  1.1358
 3365TIP3   OH234289   5.476   3.557   7.048 -0.2813  0.0285  0.2511
 3365TIP3    H134290   5.434   3.603   6.975 -1.5043 -2.1484 -0.4881
 3365TIP3    H234291   5.413   3.491   7.075  1.6434 -1.6706  0.8419
 3366TIP3   OH234292   1.827   0.975   8.457  0.2237 -0.7254 -0.0379
 3366TIP3    H134293   1.776   0.956   8.537 -1.0625  0.0139 -0.6553
 3366TIP3    H234294   1.899   0.912   8.461  0.8927  0.0638  2.3035
 3367TIP3   OH234295   7.414   3.735   6.551  0.4977  0.4878  0.2737
 3367TIP3    H134296   7.484   3.692   6.501  0.1088  0.0418  0.1129
 3367TIP3    H234297   7.366   3.785   6.485  0.4791  0.5572  0.3398
 3368TIP3   OH234298   6.178   5.814   8.278 -0.4552  0.3796  0.4945
 3368TIP3    H134299   6.161   5.748   8.211 -0.1441  1.4418 -0.6915
 3368TIP3    H234300   6.112   5.882   8.262 -1.2951  0.0116  2.2086
 3369TIP3   OH234301   7.575   4.283   8.832 -0.8291  0.5495 -0.1231
 3369TIP3    H134302   7.612   4.227   8.763  0.0927  1.7925 -0.6905
 3369TIP3    H234303   7.541   4.222   8.897  1.7354 -0.7307  0.1600
 3370TIP3   OH234304   5.089   7.354   8.930  0.0625  0.2914  0.0096
 3370TIP3    H134305   4.994   7.348   8.937  0.0821  0.0357  0.0779
 3370TIP3    H234306   5.105   7.442   8.897 -0.1977  0.3407  0.0103
 3371TIP3   OH234307   3.328   6.702   6.689 -0.0907  0.2636 -0.3691
 3371TIP3    H134308   3.246   6.749   6.699  0.4402  1.2821 -0.6562
 3371TIP3    H234309   3.310   6.615   6.723 -1.6337  0.0776 -1.5619
 3372TIP3   OH234310   2.097   7.048   7.791  0.3533 -0.0507 -0.1085
 3372TIP3    H134311   2.122   6.970   7.842 -0.9918  0.1333  0.8897
 3372TIP3    H234312   2.163   7.113   7.815 -0.3767  0.1118  1.6847
 3373TIP3   OH234313   2.463   4.252   8.021  0.1485  0.2159 -0.0771
 3373TIP3    H134314   2.530   4.292   7.966 -1.6711  0.2054 -2.5218
 3373TIP3    H234315   2.511   4.203   8.088  2.5445  0.3921 -1.5637
 3374TIP3   OH234316   6.980   0.919   7.629  0.2469  0.0326  0.0099
 3374TIP3    H134317   7.065   0.938   7.591 -0.3676  0.6342 -1.1287
 3374TIP3    H234318   6.947   0.845   7.578 -1.3605  1.9688 -1.9996
 3375TIP3   OH234319   1.036   4.356   6.277 -0.0616  0.4258  0.4614
 3375TIP3    H134320   1.084   4.439   6.285 -0.8510  0.8197  1.4870
 3375TIP3    H234321   1.026   4.342   6.183  0.4904  1.2577  0.2707
 3376TIP3   OH234322   1.062   2.716   9.006 -0.0606  0.5698  0.3916
 3376TIP3    H134323   1.108   2.741   9.086 -1.6418 -0.1721  1.5916
 3376TIP3    H234324   1.106   2.637   8.976 -0.2225  0.1596  1.2270
 3377TIP3   OH234325   1.548   5.860   8.209  0.2018 -0.1472  0.3579
 3377TIP3    H134326   1.467   5.907   8.231  0.5461  0.1032  1.1329
 3377TIP3    H234327   1.614   5.898   8.267  0.9960  0.0221 -0.6269
 3378TIP3   OH234328   5.652   4.500   9.778 -0.2633 -0.3198  0.4174
 3378TIP3    H134329   5.556   4.503   9.780 -0.2817  0.9885 -1.0502
 3378TIP3    H234330   5.675   4.527   9.689  1.4898  0.6645  1.1227
 3379TIP3   OH234331   5.882   5.744   6.863  0.1943  0.3318 -0.0635
 3379TIP3    H134332   5.945   5.702   6.804 -0.1443 -1.7879  0.9865
 3379TIP3    H234333   5.798   5.740   6.816  0.7438  3.2958 -1.5289
 3380TIP3   OH234334   1.149   3.972   7.642  0.1658 -0.0756 -0.9996
 3380TIP3    H134335   1.194   4.053   7.668  0.5955 -0.1691 -1.4384
 3380TIP3    H234336   1.060   3.982   7.676  0.4610  0.2022 -0.3052
 3381TIP3   OH234337   3.135   2.358   8.724 -1.0677 -0.1289 -0.4946
 3381TIP3    H134338   3.121   2.288   8.788 -1.1676  0.1313 -0.2331
 3381TIP3    H234339   3.227   2.382   8.735 -0.5415 -1.3869 -1.7607
 3382TIP3   OH234340   5.056   1.449   8.230  0.1677  0.8491  0.1415
 3382TIP3    H134341   5.135   1.451   8.284  0.1273  2.5112  0.1847
 3382TIP3    H234342   5.081   1.496   8.150 -0.5755  0.8114 -0.1121
 3383TIP3   OH234343   3.844   3.456   9.332 -0.0993  0.1764  0.5758
 3383TIP3    H134344   3.814   3.365   9.331 -1.6769  0.6475 -0.9891
 3383TIP3    H234345   3.776   3.504   9.285  1.4581  1.9266 -0.0323
 3384TIP3   OH234346   3.979   7.553   7.288  0.2501  0.3292 -0.2151
 3384TIP3    H134347   3.935   7.600   7.359  0.8491 -0.0984  0.4576
 3384TIP3    H234348   3.911   7.539   7.222 -0.1906  1.2051  0.0346
 3385TIP3   OH234349   2.862   6.584   8.334  0.4725 -0.5262  0.2301
 3385TIP3    H134350   2.880   6.537   8.252  2.3467  0.3503  0.0801
 3385TIP3    H234351   2.769   6.605   8.329  0.0109 -2.5098 -0.5777
 3386TIP3   OH234352   7.080   3.238   7.844 -0.2095  0.9730  0.1964
 3386TIP3    H134353   7.063   3.158   7.894  2.1328  0.7547  0.7671
 3386TIP3    H234354   7.103   3.303   7.911 -0.4662  1.6744 -0.3855
 3387TIP3   OH234355   1.732   3.719   8.098 -0.4125 -0.0799 -0.2056
 3387TIP3    H134356   1.764   3.719   8.188  0.0532  1.5706 -0.3361
 3387TIP3    H234357   1.717   3.811   8.078  0.8279 -0.2498 -2.2777
 3388TIP3   OH234358   3.247   6.917   8.500 -0.1581  0.3595  0.1025
 3388TIP3    H134359   3.181   6.858   8.463 -0.7958  0.3587  1.2073
 3388TIP3    H234360   3.310   6.860   8.542 -0.7036  0.4404  1.0551
 3389TIP3   OH234361   4.230   6.001   7.471 -0.1282 -0.8707 -0.3587
 3389TIP3    H134362   4.137   6.005   7.495  0.0918 -0.5029  0.4759
 3389TIP3    H234363   4.251   5.907   7.473 -0.2160 -0.8835  0.5588
 3390TIP3   OH234364   4.005   5.766   7.894 -0.3630  0.0107 -0.0654
 3390TIP3    H134365   3.935   5.768   7.829  0.4015 -0.2984 -0.9220
 3390TIP3    H234366   4.072   5.825   7.859 -0.4086  0.7289  1.0121
 3391TIP3   OH234367   2.141   4.159   8.496  0.0610  0.0131 -0.0616
 3391TIP3    H134368   2.055   4.166   8.453 -0.2111 -0.6938  0.3300
 3391TIP3    H234369   2.134   4.215   8.573 -0.0848 -0.1032  0.0118
 3392TIP3   OH234370   1.387   0.605   7.408  0.2541 -0.0071 -0.3352
 3392TIP3    H134371   1.444   0.605   7.331  0.5868  1.2714 -0.1039
 3392TIP3    H234372   1.444   0.574   7.479  0.6992  1.3310 -0.0907
 3393TIP3   OH234373   3.533   6.847   8.667  0.0411  0.0645 -0.2925
 3393TIP3    H134374   3.591   6.921   8.688  2.8989 -2.4220  1.3302
 3393TIP3    H234375   3.490   6.825   8.749 -1.4411  0.3461 -0.9538
 3394TIP3   OH234376   2.773   4.753   8.491  0.4754  0.1804  0.2212
 3394TIP3    H134377   2.807   4.755   8.580  0.3631  0.3732  0.2601
 3394TIP3    H234378   2.678   4.746   8.501  0.5175 -0.6692  0.1132
 3395TIP3   OH234379   3.573   3.448   8.237 -0.1441  0.6267  0.0047
 3395TIP3    H134380   3.556   3.466   8.329  1.5254  2.7230 -0.0218
 3395TIP3    H234381   3.541   3.358   8.224 -0.4334  0.2761  2.5832
 3396TIP3   OH234382   1.269   0.444   9.278  0.4197 -0.0959 -0.0894
 3396TIP3    H134383   1.234   0.498   9.349 -0.3511  0.5197 -0.9106
 3396TIP3    H234384   1.210   0.461   9.205  1.5832 -0.2090 -1.0769
 3397TIP3   OH234385   5.427   5.436   7.430  0.1542 -0.2422 -0.4185
 3397TIP3    H134386   5.473   5.451   7.348  1.1887 -0.4521  0.1165
 3397TIP3    H234387   5.478   5.482   7.496 -0.6657 -0.0757  0.1214
 3398TIP3   OH234388   7.612   5.510   7.010  0.1155 -0.0004 -0.1111
 3398TIP3    H134389   7.621   5.506   7.105 -0.9459  0.3841  0.0111
 3398TIP3    H234390   7.703   5.507   6.978  0.4835 -0.1679  0.8982
 3399TIP3   OH234391   0.418   0.885   8.669 -0.2557  0.4781  0.3710
 3399TIP3    H134392   0.342   0.856   8.719 -0.9068 -1.8604 -1.7282
 3399TIP3    H234393   0.381   0.922   8.589  0.7575 -0.2488 -0.4631
 3400TIP3   OH234394   4.445   4.024   8.348 -0.2997  0.4227 -0.0567
 3400TIP3    H134395   4.497   4.082   8.403  1.3642  0.5668 -1.6786
 3400TIP3    H234396   4.487   4.028   8.262 -1.9584 -0.8565 -0.9973
 3401TIP3   OH234397   7.198   5.443   7.354 -0.5701  0.3556 -0.0963
 3401TIP3    H134398   7.252   5.379   7.399 -1.1341  0.6878  1.0792
 3401TIP3    H234399   7.141   5.390   7.297  0.9612  0.0091 -1.3894
 3402TIP3   OH234400   1.027   4.220   7.473  0.2768 -0.2776  0.6809
 3402TIP3    H134401   1.048   4.204   7.565  0.0371  1.2302  1.0332
 3402TIP3    H234402   1.014   4.315   7.468 -0.9222 -0.4794 -0.6572
 3403TIP3   OH234403   1.854   4.937   6.909 -0.1135  0.4273 -0.2988
 3403TIP3    H134404   1.865   4.990   6.830 -0.5820  1.3729  0.2486
 3403TIP3    H234405   1.762   4.907   6.905  0.6551 -2.0882 -1.6227
 3404TIP3   OH234406   1.707   3.107   7.889 -0.6804 -0.0166  0.0948
 3404TIP3    H134407   1.684   3.054   7.965  1.1476  1.3127  1.6803
 3404TIP3    H234408   1.801   3.092   7.876 -0.2592  2.1964  0.1586
 3405TIP3   OH234409   7.538   4.028   7.411 -0.0337  0.1003 -0.7153
 3405TIP3    H134410   7.593   4.076   7.472 -0.7645  0.9881 -0.7350
 3405TIP3    H234411   7.550   4.072   7.327  0.0470 -0.3669 -0.9527
 3406TIP3   OH234412   5.855   0.104   6.924  0.0140  0.4906 -0.3082
 3406TIP3    H134413   5.767   0.068   6.931  0.0777  0.4179  0.1050
 3406TIP3    H234414   5.841   0.197   6.905 -0.1551  0.6212  0.4347
 3407TIP3   OH234415   4.404   2.089   9.295  0.2715  0.1250  0.3902
 3407TIP3    H134416   4.480   2.037   9.270 -1.5970 -0.9555 -3.9027
 3407TIP3    H234417   4.429   2.179   9.278  1.6239  0.1538  2.3000
 3408TIP3   OH234418   2.424   1.565   8.669  0.2114 -0.1955 -0.1782
 3408TIP3    H134419   2.389   1.551   8.582  2.1836  1.4112 -1.3236
 3408TIP3    H234420   2.505   1.513   8.671 -0.2304 -0.8840  1.0258
 3409TIP3   OH234421   5.704   0.350   8.362 -0.4530  0.2322 -0.0597
 3409TIP3    H134422   5.678   0.431   8.405  2.1975  0.5124  1.2088
 3409TIP3    H234423   5.697   0.283   8.429 -0.3317 -0.1273 -0.4009
 3410TIP3   OH234424   3.611   6.267   9.446  0.2668 -0.0821 -0.5123
 3410TIP3    H134425   3.580   6.307   9.364 -1.2397 -0.4559 -0.1673
 3410TIP3    H234426   3.537   6.278   9.506  0.0869 -2.6569 -0.1632
 3411TIP3   OH234427   3.655   2.807   8.992 -0.2831 -0.4045  0.0316
 3411TIP3    H134428   3.595   2.873   8.956  0.5439  0.5234  0.3118
 3411TIP3    H234429   3.680   2.754   8.917 -1.8388 -1.1418 -0.0086
 3412TIP3   OH234430   5.584   1.896   8.888 -0.0916  0.5612 -0.3562
 3412TIP3    H134431   5.607   1.938   8.971  1.9057  0.4704 -0.8257
 3412TIP3    H234432   5.568   1.969   8.828  1.4816  0.6950 -0.6610
 3413TIP3   OH234433   5.724   5.066   7.813 -0.3302 -0.6170 -0.9234
 3413TIP3    H134434   5.737   5.099   7.724 -0.7307  0.0095 -0.7606
 3413TIP3    H234435   5.656   4.999   7.804 -1.9782  0.9414 -0.8240
 3414TIP3   OH234436   2.110   0.452   8.173 -0.5865 -0.0301 -0.2059
 3414TIP3    H134437   2.028   0.480   8.133  0.4025  1.8750 -1.0519
 3414TIP3    H234438   2.150   0.395   8.108 -0.8117 -0.2172 -0.1832
 3415TIP3   OH234439   4.683   0.347   9.289  0.3803 -0.5673 -0.2687
 3415TIP3    H134440   4.722   0.290   9.356  1.7950  1.0692  0.3678
 3415TIP3    H234441   4.635   0.413   9.338  0.1727 -0.2094 -0.9413
 3416TIP3   OH234442   5.103   6.675   8.757  0.1921  0.6445 -0.1684
 3416TIP3    H134443   5.160   6.608   8.795 -1.3131 -1.1935 -0.9828
 3416TIP3    H234444   5.025   6.674   8.813 -1.0739 -0.4481 -1.8452
 3417TIP3   OH234445   5.454   3.925   9.065 -0.2818 -0.5033  0.0914
 3417TIP3    H134446   5.420   3.839   9.040  2.5108 -1.2931 -1.4769
 3417TIP3    H234447   5.547   3.909   9.081 -0.2720  1.7086  2.7897
 3418TIP3   OH234448   5.189   4.464   7.368 -0.0063  0.5020 -0.1603
 3418TIP3    H134449   5.130   4.509   7.307  0.4649  1.3603 -0.0078
 3418TIP3    H234450   5.242   4.535   7.406  1.2903 -0.2716 -0.4833
 3419TIP3   OH234451   3.765   3.560   8.061 -0.0691 -0.2504  0.2172
 3419TIP3    H134452   3.780   3.616   8.137  0.2478 -0.6216  0.4305
 3419TIP3    H234453   3.731   3.479   8.097  0.7992 -0.7060  0.0376
 3420TIP3   OH234454   7.100   7.109   8.704  0.1261 -0.9253  0.6607
 3420TIP3    H134455   7.082   7.201   8.723  2.5271 -0.2921  0.2948
 3420TIP3    H234456   7.021   7.063   8.730 -1.2721  1.2656  0.5907
 3421TIP3   OH234457   7.428   1.231   9.418  0.3036  0.8327  0.1256
 3421TIP3    H134458   7.499   1.292   9.399 -0.8099  3.0085  2.3003
 3421TIP3    H234459   7.371   1.234   9.342  1.6790  0.2736 -0.9685
 3422TIP3   OH234460   1.368   5.279   8.894 -0.0386  0.2537  0.0095
 3422TIP3    H134461   1.440   5.218   8.908 -1.8017 -1.6387  1.4735
 3422TIP3    H234462   1.297   5.245   8.948 -1.0944  3.7903  1.1264
 3423TIP3   OH234463   1.206   2.667   8.108 -0.5992  0.3210 -0.0584
 3423TIP3    H134464   1.129   2.722   8.123  1.1569  2.8128  0.4564
 3423TIP3    H234465   1.258   2.675   8.189  0.3575 -1.0516 -0.4963
 3424TIP3   OH234466   5.370   1.759   8.132  0.2820  0.0211 -0.1557
 3424TIP3    H134467   5.336   1.848   8.125  2.5709  0.8708 -1.2480
 3424TIP3    H234468   5.386   1.746   8.225 -0.3365  0.6427  0.0420
 3425TIP3   OH234469   1.380   2.160   8.093 -0.0722  0.2693  0.1811
 3425TIP3    H134470   1.354   2.251   8.078 -0.4045  0.2220  0.4531
 3425TIP3    H234471   1.422   2.133   8.011 -0.3318  0.5404 -0.0437
 3426TIP3   OH234472   7.377   2.648   6.378 -0.1139  0.0405 -0.2224
 3426TIP3    H134473   7.397   2.648   6.284  1.6258 -0.8489  0.1041
 3426TIP3    H234474   7.402   2.735   6.409 -1.7191  0.7217 -0.7448
 3427TIP3   OH234475   6.150   6.533   7.670  0.0698  0.5468 -0.2493
 3427TIP3    H134476   6.110   6.454   7.633  1.3829 -0.4368  0.3324
 3427TIP3    H234477   6.202   6.569   7.598  1.3552 -0.4793  0.1242
 3428TIP3   OH234478   3.403   2.084   8.696 -0.2678  0.2955 -0.7883
 3428TIP3    H134479   3.315   2.063   8.664 -1.3547 -0.3921  2.2066
 3428TIP3    H234480   3.435   2.001   8.731  0.7691  0.9526 -0.1290
 3429TIP3   OH234481   0.775   2.253   8.980 -0.2896 -0.1601  0.2485
 3429TIP3    H134482   0.719   2.246   8.904 -2.1659  0.7591  1.4768
 3429TIP3    H234483   0.810   2.165   8.993  1.2317 -0.0651 -2.4196
 3430TIP3   OH234484   2.289   7.239   7.885 -0.7258  0.0513 -0.5753
 3430TIP3    H134485   2.368   7.287   7.859 -1.6082  1.2029 -1.2285
 3430TIP3    H234486   2.299   7.225   7.979 -0.0640  0.7992 -0.5255
 3431TIP3   OH234487   3.582   3.763   7.177 -0.0872 -0.3453 -0.0830
 3431TIP3    H134488   3.653   3.711   7.140  0.8328 -0.8341  2.2215
 3431TIP3    H234489   3.504   3.733   7.131  0.8826 -1.4497 -1.0746
 3432TIP3   OH234490   6.219   1.760   7.355 -0.5192  0.1490  0.0825
 3432TIP3    H134491   6.215   1.805   7.440  1.1699  0.4576  0.0347
 3432TIP3    H234492   6.139   1.787   7.310 -1.0143  0.6795  1.2318
 3433TIP3   OH234493   3.473   7.560   9.499 -0.2041  0.0877 -0.2493
 3433TIP3    H134494   3.390   7.518   9.478  1.1197 -2.5603 -0.7034
 3433TIP3    H234495   3.537   7.488   9.495  1.9480  1.8120  1.0556
 3434TIP3   OH234496   5.714   2.198   7.561 -0.0224  0.4663  0.1394
 3434TIP3    H134497   5.679   2.213   7.650 -0.0982 -1.9359  0.5910
 3434TIP3    H234498   5.784   2.135   7.574 -0.1673 -0.0715 -1.5389
 3435TIP3   OH234499   1.650   5.333   9.169  0.3187  0.0775  0.4754
 3435TIP3    H134500   1.596   5.349   9.091 -0.3949  0.4271  1.0348
 3435TIP3    H234501   1.732   5.381   9.152 -0.5682  1.7596  0.7555
 3436TIP3   OH234502   3.072   0.645   8.514  0.3449  0.4348  0.5354
 3436TIP3    H134503   2.980   0.667   8.528  0.0244  0.4096 -1.2336
 3436TIP3    H234504   3.112   0.729   8.490  0.9269  0.5443  1.7905
 3437TIP3   OH234505   7.356   4.395   8.706  0.2456  0.6546 -0.4445
 3437TIP3    H134506   7.413   4.330   8.748 -0.6482  0.5461  0.6347
 3437TIP3    H234507   7.404   4.421   8.627  1.7343  0.4889  0.3743
 3438TIP3   OH234508   0.018   2.465   8.435 -1.0538  0.3203  0.8023
 3438TIP3    H134509   0.027   2.411   8.356 -1.6920 -1.1529  1.6942
 3438TIP3    H234510  -0.005   2.552   8.402  1.3171  0.4656 -0.7515
 3439TIP3   OH234511   7.057   3.904   8.765 -0.1074  0.7907  0.0614
 3439TIP3    H134512   6.997   3.915   8.691 -0.4012  0.1114  0.1896
 3439TIP3    H234513   7.144   3.904   8.725 -0.3176 -1.9212 -0.6390
 3440TIP3   OH234514   7.579   2.931   7.293 -0.2957  0.2496 -0.0967
 3440TIP3    H134515   7.575   2.838   7.268 -0.2197 -0.0005  0.7876
 3440TIP3    H234516   7.647   2.967   7.236  2.6210 -1.1621  2.2041
 3441TIP3   OH234517   6.848   5.720   7.450  0.8099  0.1441  0.2412
 3441TIP3    H134518   6.919   5.679   7.499 -0.1746 -1.2555  0.5561
 3441TIP3    H234519   6.770   5.707   7.504  0.3952  2.2696  0.2388
 3442TIP3   OH234520   6.866   5.674   6.793 -0.3356 -0.4474  0.2560
 3442TIP3    H134521   6.895   5.585   6.774 -0.5668 -1.1346  2.7765
 3442TIP3    H234522   6.850   5.713   6.707  1.2835 -2.2982 -0.9711
 3443TIP3   OH234523   0.298   4.999   6.506  0.0424  0.2127  0.6428
 3443TIP3    H134524   0.325   4.909   6.525 -0.8723 -0.2669 -0.2230
 3443TIP3    H234525   0.334   5.017   6.419 -1.1047  0.1056  0.1324
 3444TIP3   OH234526   3.742   4.106   8.752 -0.1251  0.2145 -0.2492
 3444TIP3    H134527   3.712   4.027   8.797 -0.1792  0.6372  0.4726
 3444TIP3    H234528   3.727   4.088   8.659 -2.3128  0.2592  0.0470
 3445TIP3   OH234529   5.564   2.237   7.098  0.1989  0.0616 -0.2830
 3445TIP3    H134530   5.555   2.328   7.072 -1.5522 -0.0433 -0.1503
 3445TIP3    H234531   5.627   2.239   7.170  0.0936  1.1829 -0.2085
 3446TIP3   OH234532   3.771   0.498   7.721 -0.1051 -0.3321 -0.0395
 3446TIP3    H134533   3.688   0.476   7.679 -0.1188 -1.5094  0.5683
 3446TIP3    H234534   3.760   0.472   7.813  1.9181 -3.4285 -0.5136
 3447TIP3   OH234535   3.395   6.243   9.636 -0.5770  0.6767  0.1821
 3447TIP3    H134536   3.404   6.338   9.646  0.8462  0.5551  0.1474
 3447TIP3    H234537   3.365   6.213   9.722  0.3565  1.0024  0.6373
 3448TIP3   OH234538   4.102   5.462   9.215 -0.2284  0.4005  0.1352
 3448TIP3    H134539   4.111   5.525   9.286  0.2558 -1.5768  1.9439
 3448TIP3    H234540   4.170   5.397   9.232 -0.1976 -0.2250 -2.0808
 3449TIP3   OH234541   5.583   3.868   9.431  0.0648 -0.2632 -0.0248
 3449TIP3    H134542   5.523   3.810   9.478  0.5123 -0.1703  0.6783
 3449TIP3    H234543   5.652   3.888   9.495  1.1258 -0.7750 -0.9619
 3450TIP3   OH234544   7.535   4.221   7.232  0.6932  0.1079 -0.0485
 3450TIP3    H134545   7.515   4.296   7.175  1.6648 -0.3637 -1.0516
 3450TIP3    H234546   7.549   4.260   7.318  1.0202  1.0642 -0.5193
 3451TIP3   OH234547   4.823   0.094   8.983  0.5722  0.1395 -0.0561
 3451TIP3    H134548   4.861   0.027   8.926 -0.6659 -1.2302  0.6318
 3451TIP3    H234549   4.758   0.138   8.928 -0.4492 -1.0147  0.1840
 3452TIP3   OH234550   3.001   6.285   9.547  0.7053  0.0221  0.0256
 3452TIP3    H134551   2.986   6.377   9.569 -0.9539  0.1079 -1.2178
 3452TIP3    H234552   2.955   6.237   9.616  0.2568  0.1773 -0.1555
 3453TIP3   OH234553   0.357   4.938   7.179 -0.0365 -0.5792 -0.9629
 3453TIP3    H134554   0.357   4.988   7.097 -0.2009 -0.7222 -1.0491
 3453TIP3    H234555   0.450   4.926   7.200  0.0596 -2.4654 -2.2841
 3454TIP3   OH234556   7.547   6.482   7.339  0.0960 -0.1580  0.3225
 3454TIP3    H134557   7.587   6.506   7.255  0.5099  0.2595  0.6286
 3454TIP3    H234558   7.453   6.495   7.325  0.2286  0.7730  0.1828
 3455TIP3   OH234559   3.740   1.517   7.783 -0.8521  0.0812  0.3530
 3455TIP3    H134560   3.799   1.465   7.728 -1.3336  1.8396 -1.9657
 3455TIP3    H234561   3.798   1.578   7.829 -0.6065 -0.1694  0.3804
 3456TIP3   OH234562   1.823   0.685   7.359  0.3596  0.1720  0.0350
 3456TIP3    H134563   1.869   0.738   7.424 -1.5062  2.0491 -0.0625
 3456TIP3    H234564   1.850   0.721   7.275 -0.1313  0.3275 -0.0637
 3457TIP3   OH234565   0.638   2.077   7.173 -0.0571 -0.4995  0.0989
 3457TIP3    H134566   0.647   2.036   7.087 -0.9357 -1.0512  0.2541
 3457TIP3    H234567   0.704   2.035   7.227  0.2817 -0.3817 -0.2191
 3458TIP3   OH234568   2.677   5.394   7.059 -0.2574  0.0064  0.5290
 3458TIP3    H134569   2.595   5.441   7.073 -0.4070 -0.5943  1.7729
 3458TIP3    H234570   2.656   5.327   6.994 -0.4600  0.5711  0.0063
 3459TIP3   OH234571   5.413   0.503   9.065  0.0475 -0.1166  0.6268
 3459TIP3    H134572   5.406   0.469   9.154  1.5022 -0.7956  0.5054
 3459TIP3    H234573   5.506   0.521   9.053 -0.1343  0.0353 -0.7338
 3460TIP3   OH234574   0.792   2.096   6.916  0.4646  0.3625  0.0358
 3460TIP3    H134575   0.765   2.185   6.941  1.1046  0.0449  2.0799
 3460TIP3    H234576   0.802   2.099   6.821 -0.4321  2.2190 -0.0352
 3461TIP3   OH234577   6.576   3.363   7.246  0.4074 -0.2006  0.0460
 3461TIP3    H134578   6.562   3.376   7.152  1.0058 -0.7867 -0.1313
 3461TIP3    H234579   6.663   3.398   7.262  0.3937 -0.3013  0.3378
 3462TIP3   OH234580   0.838   0.853   9.088  0.1320 -0.3226  0.8253
 3462TIP3    H134581   0.823   0.944   9.064 -0.0548 -0.1006  1.7540
 3462TIP3    H234582   0.916   0.854   9.143  0.5992 -0.8338  0.1923
 3463TIP3   OH234583   5.035   4.852   7.431  0.1306 -0.0896  0.2311
 3463TIP3    H134584   4.953   4.838   7.384 -0.2059 -0.4601  0.9120
 3463TIP3    H234585   5.031   4.792   7.505  1.0019 -0.0815  0.3011
 3464TIP3   OH234586   0.135   2.755   8.255 -0.1167  0.6984  0.2273
 3464TIP3    H134587   0.065   2.703   8.294 -0.2316  1.5874  1.2806
 3464TIP3    H234588   0.090   2.820   8.202 -0.1664  1.6750  1.4106
 3465TIP3   OH234589   6.443   4.658   6.597 -0.1765 -0.5608  0.5863
 3465TIP3    H134590   6.459   4.592   6.664 -0.6263  0.8231  2.1273
 3465TIP3    H234591   6.373   4.621   6.543 -0.4177 -1.3531  1.4142
 3466TIP3   OH234592   5.895   3.965   7.243 -0.1719 -0.2372 -0.1847
 3466TIP3    H134593   5.836   4.038   7.222  0.9108  0.3254 -1.4069
 3466TIP3    H234594   5.980   3.992   7.210  0.9670 -0.7508  2.1448
 3467TIP3   OH234595   0.988   5.715   7.171 -0.4686  0.2338 -0.2180
 3467TIP3    H134596   0.998   5.798   7.219 -0.9827 -0.1177  0.5126
 3467TIP3    H234597   1.015   5.736   7.082  0.1886  0.9894  0.1440
 3468TIP3   OH234598   2.676   1.901   7.805 -0.3775  0.7809  0.3558
 3468TIP3    H134599   2.761   1.863   7.829 -0.6744 -0.3009 -0.2144
 3468TIP3    H234600   2.684   1.994   7.828  0.8280  0.6309  0.6423
 3469TIP3   OH234601   6.314   1.966   8.490  0.5537 -0.0657 -0.4440
 3469TIP3    H134602   6.407   1.983   8.502  0.3897  0.7815 -0.2629
 3469TIP3    H234603   6.309   1.875   8.463  1.1940 -1.2148  2.8806
 3470TIP3   OH234604   2.683   7.667   7.952  0.1624 -0.0308 -0.8486
 3470TIP3    H134605   2.687   7.659   8.047 -0.0651  0.9507 -0.7503
 3470TIP3    H234606   2.727   7.588   7.920 -0.6038 -0.8539  0.0534
 3471TIP3   OH234607   3.453   0.388   8.681  0.8073  0.0189  0.3039
 3471TIP3    H134608   3.372   0.434   8.704  1.2413  0.3919  1.1354
 3471TIP3    H234609   3.523   0.439   8.723  1.6377  0.6359 -1.7331
 3472TIP3   OH234610   6.590   3.089   9.240 -0.0967 -0.0479 -0.8015
 3472TIP3    H134611   6.593   3.003   9.197 -0.5869  0.2256 -1.4044
 3472TIP3    H234612   6.558   3.071   9.328 -0.6279 -0.4358 -1.0699
 3473TIP3   OH234613   0.104   6.004   9.265 -0.0119  0.1160  0.0703
 3473TIP3    H134614   0.072   6.091   9.242  1.1646  0.7068  0.5794
 3473TIP3    H234615   0.083   5.950   9.188  1.4692  1.4465 -1.3622
 3474TIP3   OH234616   2.755   1.490   9.639 -0.4659 -0.2136 -0.8555
 3474TIP3    H134617   2.833   1.438   9.622  0.6851  0.4888  1.7269
 3474TIP3    H234618   2.685   1.426   9.647  0.6646 -1.3182  0.8761
 3475TIP3   OH234619   1.907   0.805   7.605 -0.0496  0.0728 -0.3942
 3475TIP3    H134620   1.923   0.897   7.627  0.7372  0.0106 -0.6684
 3475TIP3    H234621   1.972   0.756   7.655 -1.4775 -0.4994  0.9935
 3476TIP3   OH234622   1.293   0.290   8.486  0.5579  0.2173  0.0243
 3476TIP3    H134623   1.205   0.264   8.513  1.0749 -0.2591  1.2952
 3476TIP3    H234624   1.351   0.226   8.526  1.5203  0.6715 -0.5978
 3477TIP3   OH234625   5.083   5.751   7.341  0.5920 -0.3460  0.2735
 3477TIP3    H134626   5.115   5.685   7.402  0.2139 -1.3625 -0.5988
 3477TIP3    H234627   5.118   5.725   7.256  0.6723  0.7487 -0.0541
 3478TIP3   OH234628   6.024   4.673   9.124  0.7156 -0.4993  0.0055
 3478TIP3    H134629   6.082   4.674   9.048  1.5684 -0.0978  0.6429
 3478TIP3    H234630   6.079   4.700   9.197  0.4418 -2.7638  1.1510
 3479TIP3   OH234631   2.283   1.619   7.478  0.2407 -0.5382  0.1142
 3479TIP3    H134632   2.307   1.627   7.571 -0.9141  0.1785  0.3827
 3479TIP3    H234633   2.188   1.630   7.478 -0.0031 -2.3581 -0.9780
 3480TIP3   OH234634   2.000   1.598   8.001 -0.3248 -0.3070 -0.2398
 3480TIP3    H134635   2.038   1.545   7.931  0.2652 -1.6030  1.0274
 3480TIP3    H234636   1.906   1.577   7.998 -0.3038 -0.3471 -0.6461
 3481TIP3   OH234637   7.484   0.451   8.123 -0.4945  0.4122 -0.2720
 3481TIP3    H134638   7.468   0.397   8.200 -0.3556  0.3046 -0.3183
 3481TIP3    H234639   7.562   0.413   8.083 -0.4329  0.6084 -0.3389
 3482TIP3   OH234640   6.438   0.715   6.614 -0.7002 -0.3675 -0.2114
 3482TIP3    H134641   6.353   0.749   6.586  0.1528  1.0607 -1.2029
 3482TIP3    H234642   6.494   0.725   6.537  0.7707  0.2028  0.8884
 3483TIP3   OH234643   1.896   0.560   8.608 -0.0864 -0.1384 -0.3396
 3483TIP3    H134644   1.902   0.491   8.675 -2.1181 -0.1554 -0.1102
 3483TIP3    H234645   1.890   0.513   8.525 -1.9210 -0.3055 -0.1487
 3484TIP3   OH234646   0.208   2.975   8.723  0.3400  0.4628 -0.3643
 3484TIP3    H134647   0.183   2.888   8.755  0.8951  0.3454 -0.2340
 3484TIP3    H234648   0.274   3.005   8.786  0.3860  0.8422 -0.5925
 3485TIP3   OH234649   1.998   3.157   7.794  1.1679 -0.0144  0.0159
 3485TIP3    H134650   2.088   3.186   7.808  0.7254  1.0125  0.9899
 3485TIP3    H234651   1.968   3.208   7.719  1.7752 -1.3106 -1.1433
 3486TIP3   OH234652   3.547   2.652   8.059 -0.2451 -0.2193  0.4868
 3486TIP3    H134653   3.526   2.571   8.105  0.5645 -0.4265  0.4911
 3486TIP3    H234654   3.470   2.709   8.074 -0.9015 -1.0450  0.3231
 3487TIP3   OH234655   6.772   4.479   7.676  0.7081 -0.9114  0.1200
 3487TIP3    H134656   6.729   4.394   7.680 -2.5326  0.5739  0.1287
 3487TIP3    H234657   6.776   4.509   7.767  0.6380 -0.5185 -0.0031
 3488TIP3   OH234658   2.067   1.981   9.650  0.4784 -0.1653  0.2816
 3488TIP3    H134659   2.143   1.946   9.605  0.8187  0.6780  0.2062
 3488TIP3    H234660   2.059   2.071   9.620 -0.0259  0.0256  0.9566
 3489TIP3   OH234661   4.236   6.540   8.934 -0.6091  0.2312 -0.1822
 3489TIP3    H134662   4.266   6.611   8.878 -0.6486  0.1085 -0.3613
 3489TIP3    H234663   4.274   6.558   9.019 -0.2823  0.2467 -0.3307
 3490TIP3   OH234664   5.419   6.578   7.927 -0.4353  0.0597 -0.0100
 3490TIP3    H134665   5.324   6.577   7.918 -0.5139  1.1262  0.4649
 3490TIP3    H234666   5.451   6.621   7.848 -0.4205  0.4905  0.2249
 3491TIP3   OH234667   6.707   5.587   8.547  0.2213  0.4151  0.0345
 3491TIP3    H134668   6.647   5.542   8.487 -0.5421 -0.0879  1.1403
 3491TIP3    H234669   6.654   5.658   8.584  1.3299  2.1135 -1.4866
 3492TIP3   OH234670   0.660   5.013   7.139  0.4502  0.6375  0.3103
 3492TIP3    H134671   0.654   4.978   7.050 -0.8716  0.3278  0.4976
 3492TIP3    H234672   0.685   4.938   7.193 -1.2481  0.1887  0.5416
 3493TIP3   OH234673   4.753   3.411   9.313 -0.2547  0.5593 -0.1015
 3493TIP3    H134674   4.796   3.491   9.342 -0.8693  0.3599  1.4579
 3493TIP3    H234675   4.815   3.371   9.252  0.7400  1.4330  0.3112
 3494TIP3   OH234676   1.474   0.781   9.045  1.0981 -0.5099  0.0512
 3494TIP3    H134677   1.499   0.872   9.033  0.4626 -0.1958  0.9627
 3494TIP3    H234678   1.424   0.781   9.127 -0.1464 -1.4248 -0.6777
 3495TIP3   OH234679   5.169   1.943   7.634 -0.3977 -0.4883  0.1792
 3495TIP3    H134680   5.181   1.986   7.549 -0.8708  1.6245  1.0927
 3495TIP3    H234681   5.148   1.852   7.612 -2.2331  0.3481 -2.0666
 3496TIP3   OH234682   0.918   4.751   7.767 -0.1073  0.1834 -0.0572
 3496TIP3    H134683   0.985   4.797   7.816  0.0691 -0.4756  0.3355
 3496TIP3    H234684   0.944   4.659   7.771 -1.6498 -0.2431  1.0955
 3497TIP3   OH234685   1.395   5.542   9.000 -0.3607  0.0516  0.5218
 3497TIP3    H134686   1.336   5.607   8.962 -1.1966 -0.4237  0.9594
 3497TIP3    H234687   1.381   5.463   8.947  1.1976  0.4052 -0.4829
 3498TIP3   OH234688   7.574   2.775   8.018 -0.0437  0.3433  0.5110
 3498TIP3    H134689   7.620   2.858   8.028  0.9729 -0.1410  0.0053
 3498TIP3    H234690   7.553   2.770   7.924 -1.2895  0.6246  0.7524
 3499TIP3   OH234691   2.309   2.030   8.294  0.0268  0.1080  0.5642
 3499TIP3    H134692   2.392   1.999   8.258 -0.1136  1.7837 -1.3653
 3499TIP3    H234693   2.269   1.952   8.333  1.4431 -1.2329 -0.5378
 3500TIP3   OH234694   3.352   2.594   8.408 -0.5621 -0.2061  0.2180
 3500TIP3    H134695   3.392   2.669   8.363 -1.1083  0.1687  0.3475
 3500TIP3    H234696   3.417   2.524   8.400  0.3677  0.5532  0.9173
 3501TIP3   OH234697   7.109   7.324   9.316 -0.0413 -0.2965  0.2932
 3501TIP3    H134698   7.136   7.235   9.338  3.1647  0.8093  1.3862
 3501TIP3    H234699   7.147   7.341   9.230 -0.5285  0.0807  0.1455
 3502TIP3   OH234700   0.839   1.710   7.375 -0.4730 -0.1198 -0.3108
 3502TIP3    H134701   0.908   1.680   7.316  0.1899  0.7779 -0.0135
 3502TIP3    H234702   0.783   1.634   7.387 -0.6947 -0.3054 -2.1864
 3503TIP3   OH234703   4.324   1.971   9.513 -0.0606  0.0396  0.1347
 3503TIP3    H134704   4.365   2.006   9.434  0.1762 -1.8621 -0.6356
 3503TIP3    H234705   4.264   2.040   9.541  1.9496  1.9480 -0.0099
 3504TIP3   OH234706   2.186   0.660   6.566  0.2118 -0.7771 -0.0648
 3504TIP3    H134707   2.092   0.680   6.566 -0.4525 -3.4429 -1.5112
 3504TIP3    H234708   2.192   0.570   6.598  2.3885 -0.3948  0.7841
 3505TIP3   OH234709   2.628   4.639   9.318 -0.2882 -0.7836 -0.0079
 3505TIP3    H134710   2.636   4.609   9.227  0.5266  1.1146 -0.6002
 3505TIP3    H234711   2.538   4.673   9.324 -0.2371 -0.6150 -0.1951
 3506TIP3   OH234712   2.741   5.264   7.423  0.7392  0.1363  0.1067
 3506TIP3    H134713   2.788   5.235   7.502  1.8914 -0.4263 -0.7454
 3506TIP3    H234714   2.810   5.277   7.359 -0.1667  0.8233 -0.7433
 3507TIP3   OH234715   7.367   5.607   8.915 -0.1020  0.3104 -0.0360
 3507TIP3    H134716   7.303   5.605   8.986 -1.4431  0.8382 -1.1698
 3507TIP3    H234717   7.402   5.518   8.911 -2.2078 -0.5529 -0.6210
 3508TIP3   OH234718   5.204   1.121   7.935 -0.2423  0.5426 -0.2533
 3508TIP3    H134719   5.134   1.157   7.881 -1.1227 -0.7820 -0.0541
 3508TIP3    H234720   5.219   1.033   7.900 -0.5818 -0.2076  1.3770
 3509TIP3   OH234721   5.813   2.948   7.231  0.1846 -0.2731 -0.4656
 3509TIP3    H134722   5.802   2.962   7.137 -1.5807 -0.3725 -0.3022
 3509TIP3    H234723   5.843   3.033   7.264  0.9333 -0.2681 -1.1193
 3510TIP3   OH234724   2.081   4.457   9.143 -0.3943 -0.8323 -0.1459
 3510TIP3    H134725   2.107   4.543   9.176 -0.6183 -1.8034  2.8828
 3510TIP3    H234726   2.162   4.417   9.113  0.1328 -0.4494  0.7158
 3511TIP3   OH234727   1.923   2.291   7.686 -0.4764  0.6009 -0.1194
 3511TIP3    H134728   1.864   2.364   7.665 -0.1026  1.0395  0.3216
 3511TIP3    H234729   2.010   2.330   7.686 -0.2028 -0.0082 -0.5824
 3512TIP3   OH234730   5.033   7.274   8.414 -0.2477 -0.4783 -0.2724
 3512TIP3    H134731   5.049   7.305   8.325 -1.0708 -1.6460 -0.8399
 3512TIP3    H234732   4.952   7.317   8.441  0.1357  0.0762  0.0340
 3513TIP3   OH234733   4.865   2.492   8.645  0.0290  0.3025  0.6252
 3513TIP3    H134734   4.888   2.574   8.602 -0.7812  0.0992 -0.2278
 3513TIP3    H234735   4.769   2.487   8.639  0.0729 -0.7606  0.5382
 3514TIP3   OH234736   5.974   5.029   8.330  0.2775  0.4570  0.2076
 3514TIP3    H134737   5.991   4.968   8.258  2.4384  0.1550  0.8802
 3514TIP3    H234738   6.012   4.985   8.407 -2.0182  0.7368  1.5930
 3515TIP3   OH234739   0.122   3.775   9.103 -0.7528 -0.1165  0.5664
 3515TIP3    H134740   0.051   3.839   9.101  0.0724  0.8200  0.3996
 3515TIP3    H234741   0.108   3.721   9.025 -2.0024 -0.7823  1.2159
 3516TIP3   OH234742   7.488   7.189   7.630  0.5318 -0.5844  0.1640
 3516TIP3    H134743   7.404   7.154   7.660  0.7459 -0.7044  0.6367
 3516TIP3    H234744   7.537   7.205   7.710  1.4255 -1.6751 -0.1293
 3517TIP3   OH234745   2.756   6.212   8.350  0.3108 -0.2782 -0.1047
 3517TIP3    H134746   2.674   6.163   8.342 -0.3252  0.7119  0.2652
 3517TIP3    H234747   2.750   6.280   8.283  0.7139 -0.0245  0.1162
 3518TIP3   OH234748   6.717   6.828   7.752  0.1220 -0.4451  0.1253
 3518TIP3    H134749   6.728   6.768   7.677 -1.2316  1.0262 -1.3254
 3518TIP3    H234750   6.638   6.878   7.732  0.7480  1.2896  1.6645
 3519TIP3   OH234751   0.465   4.164   6.452 -0.7651 -0.2717 -0.2265
 3519TIP3    H134752   0.521   4.146   6.527  0.3479  3.8516  0.1662
 3519TIP3    H234753   0.379   4.182   6.490 -1.3779 -2.4659 -0.4500
 3520TIP3   OH234754   5.012   2.042   9.294 -0.0293  0.5721  0.0885
 3520TIP3    H134755   5.053   2.128   9.293  0.2977  0.4173  0.1150
 3520TIP3    H234756   5.030   2.006   9.207  0.2944  0.3149  0.2605
 3521TIP3   OH234757   5.250   6.296   9.285  0.2282  0.0789 -0.2336
 3521TIP3    H134758   5.184   6.347   9.238  0.4951  0.3583 -0.3082
 3521TIP3    H234759   5.220   6.205   9.276  0.5014  0.0777 -1.3436
 3522TIP3   OH234760   7.312   7.576   8.986  0.2879 -0.0749 -0.2552
 3522TIP3    H134761   7.366   7.633   9.041  0.4363  0.5066 -0.9824
 3522TIP3    H234762   7.283   7.633   8.915 -1.3834 -0.3504  0.1796
 3523TIP3   OH234763   2.176   1.278   8.491  0.0628 -0.0094  0.0925
 3523TIP3    H134764   2.167   1.278   8.587  0.4932 -0.6930  0.1390
 3523TIP3    H234765   2.235   1.206   8.473  0.3632  0.4215 -0.6648
 3524TIP3   OH234766   6.655   4.441   8.744 -0.1578 -0.2193  0.3467
 3524TIP3    H134767   6.727   4.378   8.741  0.9562  1.0385 -1.6899
 3524TIP3    H234768   6.576   4.388   8.751  0.7612 -1.8318 -0.8869
 3525TIP3   OH234769   1.477   0.188   8.839  0.2900 -0.6489  0.0114
 3525TIP3    H134770   1.506   0.126   8.906 -0.3578 -1.2702 -0.2801
 3525TIP3    H234771   1.455   0.268   8.888  0.1435 -0.9820  0.4936
 3526TIP3   OH234772   4.311   3.094   7.373 -0.3551 -0.4406 -0.3475
 3526TIP3    H134773   4.288   3.112   7.282 -1.0458 -1.4216 -0.3827
 3526TIP3    H234774   4.239   3.132   7.424  1.3370  2.6081  0.0415
 3527TIP3   OH234775   3.946   3.867   9.223 -0.1187  0.1590  0.2465
 3527TIP3    H134776   3.884   3.893   9.291 -0.3262 -0.2591  0.2179
 3527TIP3    H234777   3.904   3.794   9.178 -0.6200  1.2956 -1.2386
 3528TIP3   OH234778   5.686   7.177   7.745  0.9125 -0.0918  0.0120
 3528TIP3    H134779   5.594   7.194   7.765  1.2288  0.9525  0.7076
 3528TIP3    H234780   5.733   7.217   7.818  1.8947 -1.2262  0.0240
 3529TIP3   OH234781   5.640   3.469   9.507  0.1448  0.4714 -0.0837
 3529TIP3    H134782   5.557   3.426   9.488  0.5022  0.2134 -1.1606
 3529TIP3    H234783   5.707   3.404   9.484  0.6883  1.4080 -1.3194
 3530TIP3   OH234784   6.227   7.632   7.148  0.0539 -0.3653 -0.3318
 3530TIP3    H134785   6.185   7.716   7.126 -0.8743 -0.2643  1.6461
 3530TIP3    H234786   6.270   7.606   7.066 -0.0933  1.7494 -1.1704
 3531TIP3   OH234787   5.809   1.500   7.919 -0.4865 -0.1209  0.0718
 3531TIP3    H134788   5.786   1.465   8.005 -1.0570  0.8434  0.3173
 3531TIP3    H234789   5.740   1.468   7.861 -0.7308  0.1830  0.1963
 3532TIP3   OH234790   7.677   1.695   6.492  0.5962 -0.2597 -0.4401
 3532TIP3    H134791   7.610   1.632   6.464 -1.1525  1.3753 -0.1463
 3532TIP3    H234792   7.722   1.652   6.564 -0.5883 -1.1766 -0.2149
 3533TIP3   OH234793   6.445   0.476   7.577  0.0010  0.2126 -0.5994
 3533TIP3    H134794   6.399   0.488   7.660  0.8295  0.3461 -0.1484
 3533TIP3    H234795   6.450   0.565   7.540 -0.1080  0.1965 -0.6536
 3534TIP3   OH234796   1.606   5.765   9.379  0.3900 -0.3938  0.3001
 3534TIP3    H134797   1.602   5.671   9.362 -0.5469 -0.3436  0.1894
 3534TIP3    H234798   1.518   5.788   9.409 -0.2222  0.9379 -2.2179
 3535TIP3   OH234799   7.186   5.305   8.408 -0.0948  0.0938  0.0466
 3535TIP3    H134800   7.095   5.323   8.432  0.4166 -0.1275  2.3998
 3535TIP3    H234801   7.219   5.248   8.478  1.3364 -1.4031 -1.7532
 3536TIP3   OH234802   4.675   4.890   8.948 -0.6155  0.0099  0.4510
 3536TIP3    H134803   4.702   4.917   8.861 -1.2355 -1.4416 -0.2203
 3536TIP3    H234804   4.754   4.897   9.002 -0.2435  0.9672 -0.1966
 3537TIP3   OH234805   4.980   3.503   7.391  0.2321 -0.1308  0.2350
 3537TIP3    H134806   5.009   3.594   7.393  1.8154 -0.5949 -0.0514
 3537TIP3    H234807   4.993   3.476   7.300 -2.1906 -0.0888 -0.2120
 3538TIP3   OH234808   6.166   4.347   9.576  0.0776  0.3218 -0.0003
 3538TIP3    H134809   6.165   4.406   9.652  1.8748  0.9947 -0.4539
 3538TIP3    H234810   6.183   4.405   9.501  0.4329 -0.5919 -0.6430
 3539TIP3   OH234811   2.490   2.527   8.720  0.1666 -0.1829 -0.1733
 3539TIP3    H134812   2.519   2.464   8.654  2.2185  0.9973 -0.4850
 3539TIP3    H234813   2.498   2.480   8.803  1.6731 -0.3585 -0.3978
 3540TIP3   OH234814   5.625   2.205   7.850  0.2191 -0.1574  0.2178
 3540TIP3    H134815   5.567   2.273   7.884  0.7738  0.0040  0.8726
 3540TIP3    H234816   5.617   2.133   7.913  1.5959  0.3141  0.9809
 3541TIP3   OH234817   3.390   6.326   8.294  0.1307  0.1796 -0.2219
 3541TIP3    H134818   3.351   6.397   8.243 -2.7451 -0.5984  0.7102
 3541TIP3    H234819   3.399   6.361   8.382 -0.5161 -0.3125  0.0516
 3542TIP3   OH234820   4.467   0.596   7.718 -0.5897  0.0898 -0.1639
 3542TIP3    H134821   4.451   0.659   7.788 -0.4036 -0.8819  0.7818
 3542TIP3    H234822   4.439   0.512   7.754 -1.6143 -0.2600 -1.6959
 3543TIP3   OH234823   0.200   6.857   8.414  0.4684 -0.2748 -0.0694
 3543TIP3    H134824   0.247   6.937   8.438  0.7802 -0.6938  0.7698
 3543TIP3    H234825   0.269   6.791   8.401  0.2996 -0.1171 -2.0246
 3544TIP3   OH234826   1.137   5.052   9.390  0.3182  0.1411 -0.1026
 3544TIP3    H134827   1.194   5.110   9.441  1.8372 -1.4690  0.1561
 3544TIP3    H234828   1.068   5.109   9.357  0.6575  1.7102  1.7029
 3545TIP3   OH234829   2.595   1.073   7.263  0.2105  0.5302 -0.1613
 3545TIP3    H134830   2.536   1.021   7.209  0.9463  0.6390 -1.0920
 3545TIP3    H234831   2.568   1.164   7.247 -0.1604  0.5173  0.3696
 3546TIP3   OH234832   6.910   0.361   8.047 -0.2080 -0.2040  0.2830
 3546TIP3    H134833   6.922   0.395   8.135  2.0927 -0.9779  0.3250
 3546TIP3    H234834   6.959   0.421   7.991 -0.3921 -0.5749 -0.2810
 3547TIP3   OH234835   6.919   3.430   9.162 -0.4797 -0.0764  0.5479
 3547TIP3    H134836   6.963   3.440   9.077  0.1997  0.2652  0.9290
 3547TIP3    H234837   6.836   3.387   9.141 -0.5092  0.3799 -0.3438
 3548TIP3   OH234838   2.995   3.724   9.191 -1.1183 -0.0514 -0.3551
 3548TIP3    H134839   2.934   3.794   9.170 -1.3288  0.5942  2.1636
 3548TIP3    H234840   2.941   3.645   9.197 -1.1970 -0.0651 -1.1084
 3549TIP3   OH234841   0.708   4.923   7.691 -0.2486 -0.4600  0.4406
 3549TIP3    H134842   0.788   4.875   7.713  0.2409  0.0491 -0.1671
 3549TIP3    H234843   0.731   4.972   7.612 -0.4968  1.3380  1.4309
 3550TIP3   OH234844   1.724   4.994   8.230  0.4835 -0.1706  0.3599
 3550TIP3    H134845   1.630   5.002   8.248  0.1852 -0.4212 -0.9454
 3550TIP3    H234846   1.736   4.901   8.210 -0.0365  0.5363 -4.3955
 3551TIP3   OH234847   2.785   0.662   8.483  0.0572 -0.1548  0.4570
 3551TIP3    H134848   2.713   0.603   8.461 -0.7303  0.0536  2.2339
 3551TIP3    H234849   2.748   0.750   8.474  0.7808  0.0421 -0.7537
 3552TIP3   OH234850   4.783   4.760   7.363  0.4362  0.0359  0.3750
 3552TIP3    H134851   4.799   4.675   7.405 -0.1499 -0.8621 -1.1451
 3552TIP3    H234852   4.715   4.742   7.298  1.1752  1.4059 -0.8296
 3553TIP3   OH234853   0.363   2.439   7.516 -0.4399 -0.2802 -0.4961
 3553TIP3    H134854   0.435   2.474   7.464  1.6978 -1.1549  1.6991
 3553TIP3    H234855   0.322   2.516   7.555  0.4355  0.1317 -0.3765
 3554TIP3   OH234856   1.395   2.794   8.590 -0.2088 -0.0231  0.0472
 3554TIP3    H134857   1.314   2.794   8.641 -0.4945  0.5937 -0.3992
 3554TIP3    H234858   1.465   2.801   8.655 -0.5730  0.9384  0.3442
 3555TIP3   OH234859   3.278   2.125   7.389  0.5766 -0.3895 -0.5084
 3555TIP3    H134860   3.372   2.114   7.403  1.0725  0.3947 -2.7726
 3555TIP3    H234861   3.266   2.111   7.295 -1.5996 -0.5714 -0.2507
 3556TIP3   OH234862   4.065   6.344   8.146  0.3819 -0.1377  0.3937
 3556TIP3    H134863   4.117   6.383   8.216  1.5020 -0.8095 -0.0338
 3556TIP3    H234864   4.074   6.407   8.073 -0.4487  0.3599  0.7095
 3557TIP3   OH234865   2.544   0.991   9.217  0.1313 -0.4916  0.0181
 3557TIP3    H134866   2.452   0.966   9.224  0.3028 -1.0892  0.1970
 3557TIP3    H234867   2.590   0.933   9.278  0.7523 -0.8926 -0.8135
 3558TIP3   OH234868   4.986   0.279   7.869  0.5411  0.2006 -0.4697
 3558TIP3    H134869   5.026   0.258   7.953  1.2517 -0.4944 -0.9677
 3558TIP3    H234870   4.915   0.340   7.891 -0.8167 -1.7407  0.8947
 3559TIP3   OH234871   1.859   3.978   8.541 -0.7904  0.1318 -0.3790
 3559TIP3    H134872   1.903   3.893   8.549 -0.6720  0.0918 -1.3677
 3559TIP3    H234873   1.872   4.003   8.450 -0.3618  1.4719  0.0274
 3560TIP3   OH234874   1.722   3.345   8.197 -0.2994  0.7383  0.2346
 3560TIP3    H134875   1.654   3.392   8.148 -0.5733 -1.1436 -1.3280
 3560TIP3    H234876   1.695   3.253   8.193  1.0000  0.2388  1.8372
 3561TIP3   OH234877   5.291   1.020   7.224  0.4829 -0.1952  0.1372
 3561TIP3    H134878   5.304   0.931   7.194 -0.9092 -0.0154 -1.1332
 3561TIP3    H234879   5.238   1.011   7.303 -0.8112 -0.4888 -0.7247
 3562TIP3   OH234880   4.537   1.184   8.668  0.2115 -0.1459  0.2858
 3562TIP3    H134881   4.591   1.121   8.715  1.4129  0.7237  0.0954
 3562TIP3    H234882   4.496   1.237   8.737  1.2676  0.5484  0.3963
 3563TIP3   OH234883   0.353   4.879   9.303 -0.2913  0.0317 -0.5010
 3563TIP3    H134884   0.330   4.947   9.240 -1.1597 -1.0134 -1.3679
 3563TIP3    H234885   0.446   4.893   9.321 -0.6351  1.9275 -0.0045
 3564TIP3   OH234886   5.088   0.721   7.312 -0.0219  0.6548 -0.4191
 3564TIP3    H134887   5.177   0.713   7.278  0.2903  0.9912  0.3005
 3564TIP3    H234888   5.079   0.813   7.337 -0.9858  0.9065 -1.5727
 3565TIP3   OH234889   6.883   2.868   9.440  0.1642  0.0020  0.1428
 3565TIP3    H134890   6.866   2.905   9.353  1.5440 -1.1977 -0.6696
 3565TIP3    H234891   6.978   2.867   9.447  0.0737  0.9160  2.0710
 3566TIP3   OH234892   0.761   4.591   8.423 -0.2804 -0.0388 -0.4965
 3566TIP3    H134893   0.730   4.523   8.362 -1.8237  0.6566 -0.5439
 3566TIP3    H234894   0.774   4.544   8.505 -0.4228 -0.5703 -0.7666
 3567TIP3   OH234895   3.094   2.548   8.490 -0.8206  0.2975  0.1123
 3567TIP3    H134896   3.175   2.547   8.439 -1.2513  0.7060 -0.5916
 3567TIP3    H234897   3.118   2.509   8.574  0.4649  1.7916  0.4821
 3568TIP3   OH234898   5.200   2.684   7.313 -0.4964  0.2901 -0.6292
 3568TIP3    H134899   5.292   2.711   7.318 -0.8352  1.3172  0.3492
 3568TIP3    H234900   5.198   2.618   7.243  0.9593  0.3328 -0.7346
 3569TIP3   OH234901   0.606   1.579   8.250 -0.3907 -0.1100 -0.0087
 3569TIP3    H134902   0.523   1.542   8.279 -0.4056  0.1110  0.2220
 3569TIP3    H234903   0.672   1.515   8.279 -0.5300 -0.5830 -0.7106
 3570TIP3   OH234904   6.006   1.670   8.487 -0.5497  0.0575 -0.4609
 3570TIP3    H134905   5.965   1.588   8.514  0.6894 -0.5633 -0.4044
 3570TIP3    H234906   6.020   1.661   8.393  0.3161 -0.1325 -0.3192
 3571TIP3   OH234907   7.384   2.694   9.597  0.1083  0.3145  0.2032
 3571TIP3    H134908   7.351   2.773   9.639  0.8699  0.5576  0.3651
 3571TIP3    H234909   7.307   2.638   9.588 -0.2212  0.5773  1.2073
 3572TIP3   OH234910   2.288   3.183   9.333 -0.1431 -0.3228 -0.5091
 3572TIP3    H134911   2.295   3.093   9.363  2.0717 -0.8844 -2.3728
 3572TIP3    H234912   2.377   3.206   9.305 -0.7509  2.2562 -0.6038
 3573TIP3   OH234913   2.374   0.327   8.574 -0.0352  0.0299 -0.0047
 3573TIP3    H134914   2.313   0.398   8.595 -0.9580 -0.8179  0.2249
 3573TIP3    H234915   2.323   0.247   8.585  0.9029 -0.6662 -0.5759
 3574TIP3   OH234916   0.289   0.148   7.619 -0.2313 -0.1308 -0.4022
 3574TIP3    H134917   0.249   0.169   7.703  0.7189 -0.7402  0.2202
 3574TIP3    H234918   0.359   0.212   7.608 -0.1310 -0.2672 -0.5712
 3575TIP3   OH234919   3.067   3.114   8.622  0.2537  0.1142 -0.2046
 3575TIP3    H134920   3.028   3.027   8.621  1.0615 -0.2737  0.7600
 3575TIP3    H234921   3.101   3.125   8.711 -1.1355  2.0101  0.1557
 3576TIP3   OH234922   0.362   5.493   9.269  0.1239  0.3548  0.0815
 3576TIP3    H134923   0.454   5.519   9.257 -0.2872  2.0138  0.2494
 3576TIP3    H234924   0.312   5.572   9.249 -1.3237 -0.6850 -0.5727
 3577TIP3   OH234925   5.097   2.014   8.440 -0.2273  0.2178  0.0094
 3577TIP3    H134926   5.169   2.069   8.408  0.0384  0.0698  0.3476
 3577TIP3    H234927   5.032   2.077   8.472 -1.2208  0.4385 -2.2630
 3578TIP3   OH234928   0.405   2.760   8.231 -0.2255 -0.2955 -0.1451
 3578TIP3    H134929   0.312   2.749   8.252 -0.1901 -1.3586 -0.4956
 3578TIP3    H234930   0.427   2.846   8.265 -1.0100 -0.5809  1.1563
 3579TIP3   OH234931   6.910   6.161   7.414  0.1512  0.1117 -0.4482
 3579TIP3    H134932   6.833   6.158   7.357 -0.6795 -0.9371  0.6912
 3579TIP3    H234933   6.875   6.183   7.500  1.1691 -0.1277  0.0366
 3580TIP3   OH234934   4.226   4.808   8.270 -0.2345 -0.2935  0.1879
 3580TIP3    H134935   4.239   4.896   8.236  0.0376  0.6713  2.5454
 3580TIP3    H234936   4.314   4.778   8.294 -0.0636 -2.0238 -2.2559
 3581TIP3   OH234937   1.017   7.535   9.027  0.0034  0.1294  1.2339
 3581TIP3    H134938   0.940   7.515   9.080 -0.3429  0.0481  0.7128
 3581TIP3    H234939   0.982   7.568   8.945  0.5398  0.6420  1.2048
 3582TIP3   OH234940   7.331   3.810   9.004  0.2969 -0.2354 -0.0177
 3582TIP3    H134941   7.310   3.902   8.990  0.3059 -0.3130 -0.5439
 3582TIP3    H234942   7.295   3.790   9.091 -1.7347 -0.3331 -0.8329
 3583TIP3   OH234943   4.219   0.903   7.448  0.1837 -0.1823  0.3942
 3583TIP3    H134944   4.276   0.837   7.407  1.1511 -0.5796  2.2741
 3583TIP3    H234945   4.239   0.984   7.401 -0.6133 -1.0602 -1.5846
 3584TIP3   OH234946   4.148   3.617   7.095 -0.1934  0.5425 -0.4764
 3584TIP3    H134947   4.130   3.711   7.091 -1.8066  0.2483 -0.8570
 3584TIP3    H234948   4.140   3.587   7.004 -0.7883 -0.1386 -0.2112
 3585TIP3   OH234949   4.307   6.162   8.350  0.3036 -0.3501 -0.0256
 3585TIP3    H134950   4.334   6.152   8.441  0.0206 -0.1963  0.0783
 3585TIP3    H234951   4.221   6.119   8.346 -0.2724  0.7728  0.0874
 3586TIP3   OH234952   0.232   5.208   7.755 -0.0723  0.6148  0.3111
 3586TIP3    H134953   0.247   5.255   7.837  0.2081  1.7011 -0.3479
 3586TIP3    H234954   0.319   5.192   7.721 -0.1807 -0.1016  0.3635
 3587TIP3   OH234955   2.432   5.618   8.535 -0.1669 -0.2748 -0.2453
 3587TIP3    H134956   2.421   5.681   8.606 -1.6219 -2.1596  1.3425
 3587TIP3    H234957   2.521   5.585   8.546 -0.8020 -1.5350  1.6911
 3588TIP3   OH234958   2.142   7.606   7.621 -0.5913  0.5919  0.1293
 3588TIP3    H134959   2.106   7.662   7.690  0.3846  1.1837  0.1696
 3588TIP3    H234960   2.068   7.592   7.561 -0.4981  3.2709 -0.7489
 3589TIP3   OH234961   7.660   4.210   7.840  0.3829 -0.1282  0.1246
 3589TIP3    H134962   7.588   4.156   7.807  0.3902 -0.0029 -0.0971
 3589TIP3    H234963   7.627   4.299   7.834 -0.9459 -0.2149  3.5788
 3590TIP3   OH234964   5.122   5.977   8.546  0.1660  0.0219 -0.5900
 3590TIP3    H134965   5.056   6.045   8.560  1.4017  0.8920  1.6888
 3590TIP3    H234966   5.205   6.025   8.542  1.0270 -1.2732  0.6472
 3591TIP3   OH234967   2.790   2.849   8.205 -0.2776  0.1825 -0.1423
 3591TIP3    H134968   2.810   2.797   8.127 -0.2874  1.0031 -0.7005
 3591TIP3    H234969   2.865   2.835   8.263  0.2590  0.4347 -0.7629
 3592TIP3   OH234970   2.049   0.016   8.390  0.0871 -0.3180  0.2081
 3592TIP3    H134971   2.013   0.084   8.332 -1.1830 -0.1795  1.1266
 3592TIP3    H234972   1.974  -0.015   8.440  0.6793 -2.2970 -0.0661
 3593TIP3   OH234973   0.601   0.500   8.051  0.3821 -0.0319  0.0032
 3593TIP3    H134974   0.601   0.580   8.105  1.0582  1.4817 -2.1323
 3593TIP3    H234975   0.638   0.433   8.109 -0.7664  0.9924  2.0705
 3594TIP3   OH234976   5.967   3.038   9.356  0.3702 -0.3894  0.3221
 3594TIP3    H134977   5.938   2.950   9.381  0.4669 -0.6827 -0.5793
 3594TIP3    H234978   6.004   3.028   9.269 -0.0253  0.6301  0.0164
 3595TIP3   OH234979   1.170   0.760   8.196 -0.8417 -0.2162 -0.4205
 3595TIP3    H134980   1.142   0.735   8.108  0.0470 -0.2553 -0.7044
 3595TIP3    H234981   1.232   0.691   8.222 -1.8128 -0.7309  0.6305
 3596TIP3   OH234982   7.486   5.952   9.342 -0.2865 -0.2930  0.1441
 3596TIP3    H134983   7.424   6.022   9.364 -0.9905 -0.0457 -2.2541
 3596TIP3    H234984   7.572   5.992   9.353 -0.6609  0.6570 -0.2120
 3597TIP3   OH234985   2.573   3.508   8.491  0.2833 -0.0237 -0.9448
 3597TIP3    H134986   2.534   3.481   8.575 -0.4532  0.3878 -1.1371
 3597TIP3    H234987   2.663   3.529   8.512 -0.0459  0.6249 -0.1307
 3598TIP3   OH234988   5.555   3.114   9.373  0.1278 -1.1293 -0.0161
 3598TIP3    H134989   5.554   3.019   9.357 -1.0574 -1.3442  1.1414
 3598TIP3    H234990   5.633   3.128   9.426  0.3031 -1.4611 -0.1823
 3599TIP3   OH234991   5.805   3.317   9.117 -1.1010 -0.1398  0.2357
 3599TIP3    H134992   5.790   3.330   9.211  0.3160  1.9686  0.2284
 3599TIP3    H234993   5.806   3.406   9.080  0.9417 -0.7596 -1.3556
 3600TIP3   OH234994   6.100   1.269   7.524 -0.0381 -0.1851 -0.2629
 3600TIP3    H134995   6.004   1.259   7.523 -0.1662  0.3932  1.5255
 3600TIP3    H234996   6.116   1.351   7.478 -0.4454 -0.1148 -0.2862
 3601TIP3   OH234997   1.390   0.107   7.368  0.2914  0.1852  0.5262
 3601TIP3    H134998   1.369   0.098   7.461 -1.6299  0.2760  0.1396
 3601TIP3    H234999   1.452   0.036   7.351  0.3337 -0.1044  1.7758
 3602TIP3   OH235000   0.777   2.917   6.819 -0.0093 -0.2466  0.1663
 3602TIP3    H135001   0.840   2.852   6.786  0.3492  0.1498  0.0560
 3602TIP3    H235002   0.709   2.921   6.752  0.4169  0.1271 -0.2545
 3603TIP3   OH235003   4.282   5.739   8.967  0.8147  0.3407  0.3566
 3603TIP3    H135004   4.293   5.834   8.977  1.6118  0.2653  0.2799
 3603TIP3    H235005   4.192   5.722   8.996 -0.2128  1.4505 -1.9139
 3604TIP3   OH235006   1.548   1.621   8.914 -0.1852  0.2902  0.0215
 3604TIP3    H135007   1.518   1.707   8.944 -0.8505 -0.1094  0.5214
 3604TIP3    H235008   1.539   1.625   8.819 -1.8825  0.1819  0.1472
 3605TIP3   OH235009   3.018   2.259   7.176  0.1388 -0.3331 -0.1316
 3605TIP3    H135010   2.999   2.175   7.136 -0.7940 -0.5894  0.8045
 3605TIP3    H235011   2.936   2.284   7.221  0.5923  0.7614  0.1364
 3606TIP3   OH235012   3.051   6.216   8.346  0.0998  0.0472 -0.0691
 3606TIP3    H135013   3.017   6.211   8.257  1.4743 -0.3432 -0.6020
 3606TIP3    H235014   2.982   6.177   8.400 -0.8946  0.5894 -0.9005
 3607TIP3   OH235015   3.116   2.140   8.152  0.5277  0.5927 -0.4986
 3607TIP3    H135016   3.161   2.110   8.073 -1.2239  1.3257 -1.8405
 3607TIP3    H235017   3.096   2.060   8.200  0.7598  0.0516 -1.2840
 3608TIP3   OH235018   5.906   0.122   7.655  0.0478  0.0116  0.3838
 3608TIP3    H135019   5.878   0.031   7.667  0.9589 -0.0728  2.2003
 3608TIP3    H235020   6.000   0.117   7.640 -0.2010  0.5581 -1.5836
 3609TIP3   OH235021   0.808   2.819   9.137  0.0818 -0.6885  0.1832
 3609TIP3    H135022   0.845   2.815   9.225  0.6791 -0.6881 -0.0667
 3609TIP3    H235023   0.880   2.847   9.082 -1.0884  2.8718  0.1951
 3610TIP3   OH235024   6.587   6.166   7.556  0.2709  0.6956  0.0811
 3610TIP3    H135025   6.521   6.207   7.612  1.1417  1.9845  0.2069
 3610TIP3    H235026   6.566   6.197   7.468  0.3558  0.6327  0.0382
 3611TIP3   OH235027   0.314   2.193   6.976 -0.3569 -0.1097 -0.3668
 3611TIP3    H135028   0.219   2.195   6.981 -0.4041  1.0696 -1.3497
 3611TIP3    H235029   0.334   2.219   6.887  0.9523  2.6513  0.6201
 3612TIP3   OH235030   1.404   3.698   8.852  0.5604 -0.1634 -0.3154
 3612TIP3    H135031   1.463   3.630   8.883  1.4835  0.6152 -0.3134
 3612TIP3    H235032   1.319   3.654   8.843  0.3889 -0.6373  2.6017
 3613TIP3   OH235033   7.446   3.728   7.844  0.2725  0.0511  0.0451
 3613TIP3    H135034   7.494   3.658   7.889  0.5335  1.0225  1.3206
 3613TIP3    H235035   7.425   3.691   7.758 -0.2141 -1.8586  0.9267
 3614TIP3   OH235036   4.469   3.617   8.656  0.3041  0.4749 -1.0813
 3614TIP3    H135037   4.443   3.683   8.592  0.9489  2.3162  0.4619
 3614TIP3    H235038   4.442   3.534   8.617 -2.1471  1.7375 -2.3411
 3615TIP3   OH235039   6.428   6.369   8.946  0.1188  0.0377 -0.1814
 3615TIP3    H135040   6.408   6.359   8.853  4.2735  0.1441 -1.2802
 3615TIP3    H235041   6.429   6.463   8.961 -0.9756  0.0170  0.1746
 3616TIP3   OH235042   5.797   7.263   7.974  0.1839 -0.3616 -0.0543
 3616TIP3    H135043   5.722   7.317   8.002 -1.5833 -1.7549 -1.7770
 3616TIP3    H235044   5.872   7.302   8.018 -1.5866  0.8872  2.1182
 3617TIP3   OH235045   7.643   1.021   7.338  0.5904 -0.2327 -0.5361
 3617TIP3    H135046   7.700   0.986   7.406 -1.1874 -2.1135  0.0494
 3617TIP3    H235047   7.692   1.097   7.304  2.5783 -0.6434  1.1719
 3618TIP3   OH235048   3.114   0.157   8.974  0.1931 -0.2980 -0.2762
 3618TIP3    H135049   3.135   0.249   8.989  0.3696  0.4171 -4.0093
 3618TIP3    H235050   3.195   0.110   8.997  1.0133  0.7894 -0.8452
 3619TIP3   OH235051   0.763   1.107   8.964  0.0159  0.6332 -0.1688
 3619TIP3    H135052   0.776   1.200   8.983 -0.9019  0.4472  1.5537
 3619TIP3    H235053   0.763   1.103   8.868  0.9292  2.2615 -0.2842
 3620TIP3   OH235054   2.476   1.054   9.512  0.2066  0.1486  0.8728
 3620TIP3    H135055   2.516   0.970   9.488 -0.9750 -0.9530  2.4739
 3620TIP3    H235056   2.382   1.038   9.504 -0.0284  1.7406  0.0440
 3621TIP3   OH235057   1.890   3.831   8.866 -0.1752 -0.0224  0.4172
 3621TIP3    H135058   1.882   3.926   8.859  1.9888  0.2241  0.5601
 3621TIP3    H235059   1.803   3.798   8.846 -1.0107  1.9934  0.5085
 3622TIP3   OH235060   1.234   1.152   7.516 -0.3976  0.2849  0.4758
 3622TIP3    H135061   1.321   1.114   7.531 -1.0767 -1.1957  0.7787
 3622TIP3    H235062   1.173   1.080   7.532 -1.6622  1.1518 -0.2944
 3623TIP3   OH235063   7.194   1.973   8.268  0.4300  0.2031  0.0605
 3623TIP3    H135064   7.116   1.967   8.324 -0.4048 -0.8075 -1.1528
 3623TIP3    H235065   7.232   1.885   8.271 -0.1328 -0.1336 -1.6094
 3624TIP3   OH235066   7.428   0.212   9.097  0.2987 -0.4796 -0.7333
 3624TIP3    H135067   7.488   0.278   9.133  0.6480 -1.2513  0.1737
 3624TIP3    H235068   7.361   0.201   9.165 -1.8961  1.5607 -2.4024
 3625TIP3   OH235069   2.754   5.100   8.415  0.0820  0.0862 -0.0281
 3625TIP3    H135070   2.673   5.051   8.429 -0.3843  1.1915  1.3656
 3625TIP3    H235071   2.821   5.033   8.403 -0.5912 -0.9020  1.5168
 3626TIP3   OH235072   7.652   4.394   7.413 -0.8011 -0.1753  0.4568
 3626TIP3    H135073   7.606   4.476   7.432  0.8066  0.8264  0.1947
 3626TIP3    H235074   7.678   4.360   7.499 -0.4268  0.2271  0.5052
 3627TIP3   OH235075   5.127   7.347   7.292  0.1901 -0.7756  0.1884
 3627TIP3    H135076   5.043   7.372   7.253 -0.0624  0.6357  1.5407
 3627TIP3    H235077   5.193   7.378   7.228 -0.2019  1.7405  0.8817
 3628TIP3   OH235078   0.558   1.047   9.138  0.5837  0.0817 -0.3065
 3628TIP3    H135079   0.638   1.050   9.086  0.6415  1.4446 -0.1551
 3628TIP3    H235080   0.505   0.978   9.096  1.6104 -0.4924 -0.7011
 3629TIP3   OH235081   6.345   5.171   7.257 -0.1864 -0.2262 -0.1892
 3629TIP3    H135082   6.431   5.134   7.278  0.0700  1.7495  2.9030
 3629TIP3    H235083   6.358   5.218   7.175  1.8843  0.4515  0.4593
 3630TIP3   OH235084   0.103   5.192   7.088 -0.4691 -0.2244  0.0494
 3630TIP3    H135085   0.072   5.259   7.149  0.8623  0.8124 -0.3788
 3630TIP3    H235086   0.153   5.240   7.022  0.7465 -1.6609 -0.1265
 3631TIP3   OH235087   1.323   6.772   8.058 -0.4118  0.1064 -0.2365
 3631TIP3    H135088   1.364   6.693   8.093 -2.5397 -0.3103  1.5119
 3631TIP3    H235089   1.393   6.838   8.060  0.6209 -0.9598  1.1567
 3632TIP3   OH235090   6.179   4.439   9.315 -0.5261 -0.1845 -0.2859
 3632TIP3    H135091   6.149   4.413   9.228  0.1264 -1.3485 -0.1898
 3632TIP3    H235092   6.275   4.435   9.310 -0.4826 -0.2808  0.4774
 3633TIP3   OH235093   1.195   3.957   9.394  0.2475  0.0917 -0.3662
 3633TIP3    H135094   1.283   3.945   9.358  0.5881 -0.5969  0.6344
 3633TIP3    H235095   1.166   4.042   9.362  1.3759  0.4261 -0.5120
 3634TIP3   OH235096   2.363   4.349   7.723 -0.0166  0.1483  0.1027
 3634TIP3    H135097   2.427   4.357   7.652  0.8968  0.4072  0.9295
 3634TIP3    H235098   2.396   4.407   7.791  0.2320 -1.6094  1.5427
 3635TIP3   OH235099   4.806   6.156   8.283 -0.0700  0.1301  0.4876
 3635TIP3    H135100   4.759   6.198   8.211 -0.1443  0.7111  0.8696
 3635TIP3    H235101   4.899   6.171   8.262 -0.1005  1.7723  1.3450
 3636TIP3   OH235102   0.584   7.372   7.363 -0.1193  0.8120  0.3256
 3636TIP3    H135103   0.496   7.350   7.396 -1.0602  1.1225 -1.7801
 3636TIP3    H235104   0.569   7.446   7.304  1.1513 -0.6205 -1.9452
 3637TIP3   OH235105   6.645   7.400   7.854 -0.1457 -0.1424  0.0719
 3637TIP3    H135106   6.568   7.368   7.903  0.2776 -0.1439  0.7553
 3637TIP3    H235107   6.614   7.409   7.764 -0.5146 -1.6536  0.0224
 3638TIP3   OH235108   1.238   7.136   7.544  0.3821 -0.6291  0.5155
 3638TIP3    H135109   1.298   7.199   7.504  0.8141 -1.1039  0.4017
 3638TIP3    H235110   1.257   7.053   7.499  0.0589 -0.9160  0.8978
 3639TIP3   OH235111   2.227   2.207   7.149 -0.7795 -0.2671  0.0855
 3639TIP3    H135112   2.283   2.241   7.079 -3.5333  1.5685 -1.4380
 3639TIP3    H235113   2.288   2.180   7.218  2.0128 -0.7256 -2.3581
 3640TIP3   OH235114   4.472   4.563   7.999 -0.3292 -0.2800 -1.0506
 3640TIP3    H135115   4.545   4.580   7.939  1.0606  1.3687  0.9088
 3640TIP3    H235116   4.461   4.646   8.046 -0.6654 -1.7210  1.5952
 3641TIP3   OH235117   5.536   3.171   8.182  0.2246 -0.5277 -0.2194
 3641TIP3    H135118   5.511   3.210   8.098 -1.8702  0.0155  0.5966
 3641TIP3    H235119   5.495   3.084   8.182 -2.8498  0.7696  1.5701
 3642TIP3   OH235120   6.510   0.988   7.421 -0.4572 -0.2022 -0.2063
 3642TIP3    H135121   6.574   1.041   7.467 -1.4465  1.9349 -1.1597
 3642TIP3    H235122   6.456   1.051   7.374 -2.0301 -2.0428 -1.0042
 3643TIP3   OH235123   5.415   1.717   8.672 -0.0816  0.0953  0.1369
 3643TIP3    H135124   5.465   1.635   8.677  1.2556  0.8308 -0.4559
 3643TIP3    H235125   5.408   1.734   8.578  1.7811  1.8386  0.2291
 3644TIP3   OH235126   7.565   5.657   7.978 -0.5394  0.1119 -0.5458
 3644TIP3    H135127   7.517   5.714   8.038 -0.5287  0.6997 -1.0861
 3644TIP3    H235128   7.509   5.580   7.968  0.2466 -0.8193  1.5923
 3645TIP3   OH235129   4.458   0.196   9.600 -0.3388 -0.0627  0.0357
 3645TIP3    H135130   4.420   0.220   9.515 -1.0732  0.3752  0.4695
 3645TIP3    H235131   4.382   0.174   9.654  0.1815 -1.2014  0.3274
 3646TIP3   OH235132   3.485   6.384   9.232  0.1895 -0.0231  0.4050
 3646TIP3    H135133   3.517   6.386   9.141  1.9276 -0.5859  0.9680
 3646TIP3    H235134   3.390   6.388   9.224  0.3056 -0.1391 -1.4462
 3647TIP3   OH235135   6.957   2.944   8.616  0.0735 -0.5570 -0.4495
 3647TIP3    H135136   7.021   2.923   8.548  0.7992  0.8384 -0.2457
 3647TIP3    H235137   6.872   2.929   8.575  0.5069 -0.1088 -1.5550
 3648TIP3   OH235138   4.483   2.611   6.782 -0.1045 -0.5126  0.0342
 3648TIP3    H135139   4.511   2.639   6.695 -1.6993  2.0974  0.2564
 3648TIP3    H235140   4.524   2.674   6.842 -0.6001 -1.0786  0.9918
 3649TIP3   OH235141   6.875   4.800   6.550  0.2144 -0.1337  0.0298
 3649TIP3    H135142   6.952   4.777   6.498  1.0529  1.6041  0.4390
 3649TIP3    H235143   6.802   4.764   6.500  1.1709 -0.5447 -1.1367
 3650TIP3   OH235144   7.634   7.009   8.974  0.2930  0.3986 -0.3273
 3650TIP3    H135145   7.614   6.926   9.017  0.1897  0.2377 -0.6750
 3650TIP3    H235146   7.728   7.020   8.983  0.2913  0.2954 -0.1878
 3651TIP3   OH235147   6.943   0.958   8.568 -0.2357  0.3995 -0.5598
 3651TIP3    H135148   6.884   0.991   8.500 -0.9543 -1.3410 -0.8220
 3651TIP3    H235149   6.893   0.890   8.613  1.4382 -0.9327 -0.6036
 3652TIP3   OH235150   2.147   5.867   9.003 -0.4517  0.2818 -0.1848
 3652TIP3    H135151   2.080   5.817   8.956  0.3225  0.1697 -1.2122
 3652TIP3    H235152   2.225   5.858   8.949  0.1107  1.3066  0.4324
 3653TIP3   OH235153   4.761   1.410   9.280  0.2927 -0.4170 -0.2901
 3653TIP3    H135154   4.700   1.355   9.328  1.0086  0.4610  1.7560
 3653TIP3    H235155   4.840   1.356   9.271  0.2765 -0.4636 -0.1576
 3654TIP3   OH235156   2.893   5.872   9.720  0.0765 -0.1964 -0.6638
 3654TIP3    H135157   2.836   5.825   9.659 -0.7353 -0.4423  0.2471
 3654TIP3    H235158   2.916   5.806   9.786  1.0819  0.0188 -0.7938
 3655TIP3   OH235159   4.357   7.421   7.895  0.1325  0.0447  0.0142
 3655TIP3    H135160   4.393   7.503   7.931 -1.4431  0.4482  0.7345
 3655TIP3    H235161   4.379   7.426   7.801 -1.0126  1.9245 -0.2091
 3656TIP3   OH235162   6.524   3.657   9.101  0.3248 -0.4094 -0.1249
 3656TIP3    H135163   6.469   3.724   9.059  1.1273  0.3042 -0.0693
 3656TIP3    H235164   6.525   3.584   9.039  0.4479  0.1245 -0.7574
 3657TIP3   OH235165   5.612   1.146   6.532  0.0761  0.1698  0.6384
 3657TIP3    H135166   5.662   1.064   6.532 -0.6421 -0.2825 -0.2503
 3657TIP3    H235167   5.523   1.119   6.512  0.0446  1.2881 -0.8698
 3658TIP3   OH235168   7.231   0.386   8.724  0.0556 -0.2565  0.1193
 3658TIP3    H135169   7.183   0.369   8.642 -0.6837 -2.4565  0.9396
 3658TIP3    H235170   7.322   0.393   8.697 -0.2349 -0.4172 -0.9646
 3659TIP3   OH235171   3.852   6.491   7.844  0.2607 -0.2786 -0.1604
 3659TIP3    H135172   3.919   6.440   7.797  2.8650 -0.0602  3.0259
 3659TIP3    H235173   3.820   6.431   7.911 -0.6832  0.5660  0.1578
 3660TIP3   OH235174   0.494   3.452   8.457 -0.3264  0.5663  0.0940
 3660TIP3    H135175   0.439   3.402   8.519  0.1947  0.5064  0.5141
 3660TIP3    H235176   0.580   3.452   8.497  0.3175 -0.4955 -1.2033
 3661TIP3   OH235177   5.785   1.386   6.532  0.3444  0.3451 -0.0702
 3661TIP3    H135178   5.726   1.311   6.524 -0.4163  0.9485 -0.1547
 3661TIP3    H235179   5.872   1.347   6.542 -0.1976 -0.5632  1.3071
 3662TIP3   OH235180   6.532   4.956   7.937 -0.7819 -0.2202 -0.0222
 3662TIP3    H135181   6.470   4.887   7.963 -1.9945  1.4443  1.7952
 3662TIP3    H235182   6.572   4.984   8.020 -0.1303  1.0614 -0.7511
 3663TIP3   OH235183   7.594   7.487   8.291 -0.3057 -0.1000 -0.0172
 3663TIP3    H135184   7.536   7.418   8.323  3.1640 -2.1743  2.5343
 3663TIP3    H235185   7.631   7.451   8.210  0.5119 -0.6912  0.6064
 3664TIP3   OH235186   3.324   3.404   7.598  0.0590  0.5644 -0.1157
 3664TIP3    H135187   3.357   3.468   7.534  1.0182 -0.0146 -0.2207
 3664TIP3    H235188   3.347   3.319   7.561  0.4250  0.2139  0.8759
 3665TIP3   OH235189   6.196   2.928   8.035 -0.1537  0.2001 -0.5444
 3665TIP3    H135190   6.116   2.960   8.077 -0.3850 -1.2131  0.1402
 3665TIP3    H235191   6.176   2.926   7.942 -1.1826 -0.8209 -0.3157
 3666TIP3   OH235192   4.905   5.510   7.488 -0.3737 -0.0265  0.1335
 3666TIP3    H135193   4.830   5.486   7.433 -0.6859  1.2208 -0.0205
 3666TIP3    H235194   4.980   5.502   7.430 -0.7635  1.8383 -0.6987
 3667TIP3   OH235195   7.061   0.702   8.165 -0.2806  0.2421 -0.3135
 3667TIP3    H135196   7.073   0.738   8.077 -1.1140  0.6247 -0.2785
 3667TIP3    H235197   7.082   0.775   8.224 -0.2920  0.1612 -0.2098
 3668TIP3   OH235198   6.421   2.161   9.033  0.2168 -0.3579 -0.6128
 3668TIP3    H135199   6.401   2.148   9.126  0.2951  0.3570 -0.4937
 3668TIP3    H235200   6.510   2.125   9.023  0.1772 -0.5090 -0.4335
 3669TIP3   OH235201   3.024   4.710   8.405  0.1464  0.3213 -0.1748
 3669TIP3    H135202   2.932   4.710   8.429  0.0891  0.7098 -0.3926
 3669TIP3    H235203   3.065   4.769   8.469  0.0998  0.8359 -0.6096
 3670TIP3   OH235204   6.425   6.976   8.830 -0.4578  0.6816  0.4732
 3670TIP3    H135205   6.344   7.010   8.793 -0.1494  0.7060 -0.1950
 3670TIP3    H235206   6.452   6.907   8.770 -0.3268  0.2219  1.0483
 3671TIP3   OH235207   5.567   1.554   8.089  0.4635 -0.7396 -0.0395
 3671TIP3    H135208   5.533   1.642   8.105  1.8211 -0.4282  1.4875
 3671TIP3    H235209   5.514   1.520   8.017  1.7574  2.3994 -2.7284
 3672TIP3   OH235210   3.396   0.126   8.270 -0.7519 -0.0800 -0.0387
 3672TIP3    H135211   3.355   0.173   8.343 -0.2249  0.6776 -0.2167
 3672TIP3    H235212   3.479   0.095   8.306 -0.0189  1.1614 -0.5662
 3673TIP3   OH235213   3.596   6.866   7.211  0.3568  0.3287 -0.7292
 3673TIP3    H135214   3.662   6.904   7.155  1.2190  0.7619  0.5301
 3673TIP3    H235215   3.587   6.776   7.180  1.1775  0.4110 -1.2292
 3674TIP3   OH235216   0.563   6.952   7.945  0.2702  0.0540  0.1038
 3674TIP3    H135217   0.592   7.038   7.913  0.1147 -0.1478 -0.6014
 3674TIP3    H235218   0.561   6.897   7.866 -1.3133 -0.1390  0.2404
 3675TIP3   OH235219   7.248   5.151   8.943 -0.2980  0.6021 -0.2772
 3675TIP3    H135220   7.190   5.206   8.995 -0.6212 -1.4793  1.7155
 3675TIP3    H235221   7.244   5.065   8.984  2.5473 -0.1883 -1.3630
 3676TIP3   OH235222   0.449   3.887   6.489 -0.2834  0.0583  0.7162
 3676TIP3    H135223   0.526   3.871   6.543  1.2252 -0.9318 -1.5807
 3676TIP3    H235224   0.443   3.983   6.483  0.3912  0.1508  1.4244
 3677TIP3   OH235225   2.122   6.075   7.737  0.1598 -0.0517 -0.4996
 3677TIP3    H135226   2.085   6.161   7.719  1.1343  0.5662  0.3666
 3677TIP3    H235227   2.065   6.014   7.690  0.0548  1.1314 -1.9720
 3678TIP3   OH235228   2.307   1.767   8.285 -0.1989 -0.5312  0.8466
 3678TIP3    H135229   2.247   1.783   8.212 -0.3404 -1.5756  0.7221
 3678TIP3    H235230   2.292   1.676   8.308 -0.7627  0.0025  2.7450
 3679TIP3   OH235231   4.125   2.038   8.124  0.2659 -0.0967 -0.4019
 3679TIP3    H135232   4.208   1.995   8.145 -0.3319 -0.8907  0.4046
 3679TIP3    H235233   4.092   1.990   8.048  1.0427  0.9266 -1.4316
 3680TIP3   OH235234   0.468   2.556   7.036 -0.5105 -0.0557  0.0732
 3680TIP3    H135235   0.402   2.594   6.978 -0.6507  1.1781  1.0091
 3680TIP3    H235236   0.551   2.569   6.989 -0.5109  1.7733  0.5236
 3681TIP3   OH235237   4.862   5.510   7.032 -0.3335  0.1397  0.3622
 3681TIP3    H135238   4.847   5.453   6.956  0.1601 -1.5996  1.5012
 3681TIP3    H235239   4.785   5.497   7.087 -0.3263  0.7895  0.5333
 3682TIP3   OH235240   1.705   1.753   9.659  0.4500  0.5782  0.2849
 3682TIP3    H135241   1.745   1.790   9.738  2.0732  1.9211 -1.0950
 3682TIP3    H235242   1.778   1.742   9.598 -0.9405  0.9030 -1.5237
 3683TIP3   OH235243   3.267   7.352   9.446 -1.0499  0.1219 -0.4380
 3683TIP3    H135244   3.338   7.289   9.431  0.9606  2.2340 -0.2838
 3683TIP3    H235245   3.223   7.319   9.525  0.5587 -0.6208  0.2083
 3684TIP3   OH235246   2.177   1.632   9.690  0.0692 -0.0061  0.4984
 3684TIP3    H135247   2.096   1.639   9.741 -0.9431 -1.9877 -0.6679
 3684TIP3    H235248   2.170   1.701   9.624  0.8919  1.8840  2.2832
 3685TIP3   OH235249   1.642   0.099   8.439  0.0646 -0.4973  0.4548
 3685TIP3    H135250   1.624   0.053   8.357 -1.1630 -0.3162  0.6103
 3685TIP3    H235251   1.670   0.186   8.411  0.9754 -0.8614  0.2005
 3686TIP3   OH235252   4.321   2.560   8.307  0.2289  0.0765  0.0213
 3686TIP3    H135253   4.339   2.610   8.387 -0.6887 -1.1580  1.0512
 3686TIP3    H235254   4.268   2.618   8.253 -1.5540 -0.0281  1.5641
 3687TIP3   OH235255   7.282   4.370   8.356  0.0198  0.4059  0.1449
 3687TIP3    H135256   7.297   4.276   8.353 -1.7841 -0.0994  3.0260
 3687TIP3    H235257   7.365   4.409   8.329  1.9343 -2.0311  2.0773
 3688TIP3   OH235258   1.687   5.423   7.192 -0.3159  0.4909  0.1148
 3688TIP3    H135259   1.599   5.446   7.160 -0.1147 -0.5726 -1.3237
 3688TIP3    H235260   1.741   5.424   7.114  0.8420  0.5470  0.9010
 3689TIP3   OH235261   2.771   1.093   9.445  0.0738 -0.1849 -0.4987
 3689TIP3    H135262   2.804   1.109   9.356 -1.0027 -1.2592 -1.1236
 3689TIP3    H235263   2.682   1.129   9.444 -0.3056 -1.0946 -0.1818
 3690TIP3   OH235264   4.643   3.587   8.341 -0.2682 -0.2093  0.2270
 3690TIP3    H135265   4.728   3.603   8.383  0.8872  0.4222 -2.1926
 3690TIP3    H235266   4.589   3.661   8.368  0.0920 -0.3522  1.3921
 3691TIP3   OH235267   0.494   5.338   9.805  0.4963  0.6375 -0.1708
 3691TIP3    H135268   0.405   5.372   9.815  0.3580  0.3691 -0.4786
 3691TIP3    H235269   0.483   5.256   9.758  0.9726  0.9761 -0.8904
 3692TIP3   OH235270   7.105   0.624   9.309 -0.7023 -0.6261  0.2865
 3692TIP3    H135271   7.175   0.562   9.329 -0.6984  0.1811  3.3534
 3692TIP3    H235272   7.151   0.701   9.275  0.0559  0.0249  2.5857
 3693TIP3   OH235273   1.634   1.015   7.824 -0.2985  0.1164 -0.1708
 3693TIP3    H135274   1.699   1.054   7.765  1.7613  1.0515  2.5359
 3693TIP3    H235275   1.652   0.921   7.821 -0.6191  0.0767 -1.4245
 3694TIP3   OH235276   6.617   5.201   8.806  0.1909  0.4303 -0.5856
 3694TIP3    H135277   6.609   5.286   8.850 -2.3453 -0.6428  1.2970
 3694TIP3    H235278   6.540   5.196   8.749 -0.8716 -1.3590  0.8949
 3695TIP3   OH235279   0.738   2.697   7.018  0.1404  0.4962  0.4693
 3695TIP3    H135280   0.721   2.790   7.005  0.8557  0.4354 -1.2888
 3695TIP3    H235281   0.803   2.676   6.950  0.8046 -1.0437  1.5406
 3696TIP3   OH235282   2.357   7.511   8.070 -0.6172  0.2859 -0.8249
 3696TIP3    H135283   2.427   7.471   8.020 -1.0535 -0.8555 -0.5373
 3696TIP3    H235284   2.388   7.601   8.087  1.5774 -0.6867  0.8072
 3697TIP3   OH235285   0.379   2.056   6.398  0.2485 -0.3281  0.5338
 3697TIP3    H135286   0.312   2.123   6.388  1.0159  0.3629 -0.0706
 3697TIP3    H235287   0.348   1.982   6.346  0.0029  0.0253  0.1760
 3698TIP3   OH235288   6.588   1.263   8.423 -0.0879 -0.5504 -0.2600
 3698TIP3    H135289   6.530   1.261   8.499 -1.7185  1.7291 -1.3436
 3698TIP3    H235290   6.555   1.193   8.366  0.6389 -1.7318  0.7235
 3699TIP3   OH235291   2.224   6.521   8.519 -0.0206 -0.0210  0.1601
 3699TIP3    H135292   2.270   6.520   8.603 -0.4127  2.8560  0.5038
 3699TIP3    H235293   2.159   6.591   8.528 -0.2199  0.2285 -2.4735
 3700TIP3   OH235294   3.872   6.363   7.049  0.4240 -0.2044  0.0255
 3700TIP3    H135295   3.898   6.386   6.959  2.1631  0.0424  0.5585
 3700TIP3    H235296   3.777   6.372   7.049  0.5894  2.3668 -1.1141
 3701TIP3   OH235297   2.718   1.405   9.228 -0.3519  0.3383 -0.1142
 3701TIP3    H135298   2.663   1.355   9.288  0.8206 -1.4851 -0.4681
 3701TIP3    H235299   2.793   1.431   9.282  0.8755 -1.6052 -0.8016
 3702TIP3   OH235300   5.549   2.476   8.735 -0.1092 -0.1433 -0.2667
 3702TIP3    H135301   5.568   2.481   8.829  2.1136  0.0882 -0.6644
 3702TIP3    H235302   5.528   2.566   8.710 -0.4980 -0.1674 -0.0305
 3703TIP3   OH235303   1.747   2.501   7.630 -0.0961  0.8720 -0.1764
 3703TIP3    H135304   1.803   2.496   7.553 -1.5655  2.1169 -1.3910
 3703TIP3    H235305   1.731   2.595   7.642 -2.2338  0.5654 -0.1654
 3704TIP3   OH235306   5.349   3.555   8.720  0.4730  0.2344 -0.5693
 3704TIP3    H135307   5.334   3.465   8.748  0.7181  0.5721  0.7229
 3704TIP3    H235308   5.444   3.564   8.717  0.4701  0.7435  0.3847
 3705TIP3   OH235309   6.618   0.806   7.213  0.1957 -0.3431  0.5334
 3705TIP3    H135310   6.559   0.867   7.257  0.3881  0.9805 -0.9619
 3705TIP3    H235311   6.577   0.789   7.128  0.9758 -0.9889  0.2706
 3706TIP3   OH235312   5.616   6.982   8.428 -0.5592 -0.0905 -0.0308
 3706TIP3    H135313   5.607   7.060   8.483 -0.9987 -0.0166 -0.2004
 3706TIP3    H235314   5.671   7.011   8.355  0.0897 -0.2097  0.3978
 3707TIP3   OH235315   4.042   2.054   9.427  0.6278  0.0948  0.0285
 3707TIP3    H135316   4.023   2.143   9.397 -3.4005 -0.3517  0.5950
 3707TIP3    H235317   4.087   2.012   9.354  0.7430  2.0275 -1.0532
 3708TIP3   OH235318   6.108   7.484   7.946  0.3397  0.1044 -0.4433
 3708TIP3    H135319   6.096   7.438   7.863  1.1014 -0.8855 -0.0174
 3708TIP3    H235320   6.133   7.573   7.921 -0.6405  0.1643 -1.2746
 3709TIP3   OH235321   1.188   1.810   8.843  0.0445 -0.3542  0.0612
 3709TIP3    H135322   1.194   1.905   8.831  1.4906 -0.6300 -1.6410
 3709TIP3    H235323   1.094   1.793   8.847 -0.2834  0.9874 -1.0889
 3710TIP3   OH235324   7.050   0.492   7.036 -0.3684 -0.0717  0.2979
 3710TIP3    H135325   7.104   0.433   6.984 -1.4707 -0.0266 -0.9634
 3710TIP3    H235326   7.043   0.572   6.983 -3.9009 -1.0436 -1.0095
 3711TIP3   OH235327   4.257   2.390   7.512 -0.0906  0.7485  0.4790
 3711TIP3    H135328   4.178   2.411   7.562  0.2337 -0.0981  1.3682
 3711TIP3    H235329   4.225   2.342   7.435 -0.5256  1.4252  0.2206
 3712TIP3   OH235330   3.253   2.928   8.319  0.2617  0.3618  0.6385
 3712TIP3    H135331   3.170   2.908   8.362  0.4205 -0.2377  0.6790
 3712TIP3    H235332   3.246   3.020   8.294  0.3673  0.8878  2.4091
 3713TIP3   OH235333   6.371   0.588   9.044 -0.5311 -0.4467  0.1918
 3713TIP3    H135334   6.378   0.533   9.122 -0.1523 -0.5087  0.1143
 3713TIP3    H235335   6.412   0.537   8.974  0.2757  0.1424  0.2275
 3714TIP3   OH235336   6.223   7.665   8.780 -0.5539 -0.2318 -0.1136
 3714TIP3    H135337   6.199   7.729   8.713 -0.5338 -1.3575 -1.2287
 3714TIP3    H235338   6.311   7.691   8.808 -0.8239  0.6241 -0.0399
 3715TIP3   OH235339   1.297   4.343   8.168 -0.3401  0.0048  0.3370
 3715TIP3    H135340   1.329   4.264   8.210  0.0534 -0.7199 -1.2690
 3715TIP3    H235341   1.234   4.312   8.102  2.2706  0.6521 -2.6884
 3716TIP3   OH235342   1.593   3.310   7.771  0.1995 -0.1076 -0.3609
 3716TIP3    H135343   1.616   3.226   7.810 -1.9583 -1.5099 -1.8788
 3716TIP3    H235344   1.644   3.374   7.821  1.4985 -2.2308  1.2244
 3717TIP3   OH235345   1.490   0.981   7.418  0.1152  0.0588 -0.4955
 3717TIP3    H135346   1.407   0.952   7.379 -0.9682  0.3842  1.4350
 3717TIP3    H235347   1.499   0.928   7.497 -0.2717  2.6092  1.3983
 3718TIP3   OH235348   7.283   6.197   9.615 -0.1746  0.1180  0.4653
 3718TIP3    H135349   7.230   6.178   9.692  0.0099  1.8651  1.0719
 3718TIP3    H235350   7.359   6.139   9.623 -0.9350 -0.8476  0.7365
 3719TIP3   OH235351   7.457   0.856   7.579  0.0805  0.8897 -0.6666
 3719TIP3    H135352   7.496   0.815   7.502  0.0275  1.0424 -0.7768
 3719TIP3    H235353   7.521   0.922   7.606  0.0201  0.9549 -0.6839
 3720TIP3   OH235354   0.505   0.032   7.283  0.0543  0.0732  0.2487
 3720TIP3    H135355   0.421   0.065   7.250 -0.5453 -1.8386 -0.3002
 3720TIP3    H235356   0.554   0.110   7.307 -2.2959  1.2462  1.6300
 3721TIP3   OH235357   3.960   4.767   8.934 -0.3687 -0.9758  0.0052
 3721TIP3    H135358   3.911   4.816   8.868  0.1666  0.0599  0.3506
 3721TIP3    H235359   3.968   4.679   8.898 -0.6065 -0.5841 -1.0394
 3722TIP3   OH235360   3.444   3.191   8.227 -0.4122  0.8006 -0.0355
 3722TIP3    H135361   3.370   3.249   8.208 -0.0874  1.5003  0.7638
 3722TIP3    H235362   3.421   3.149   8.310 -0.2759  0.4026 -0.1986
 3723TIP3   OH235363   5.910   7.395   8.194  0.1374  0.4075  0.1238
 3723TIP3    H135364   5.916   7.475   8.142 -0.6121  1.0111  0.9391
 3723TIP3    H235365   5.893   7.425   8.283 -2.5033 -0.6965  0.0780
 3724TIP3   OH235366   5.605   3.576   8.648 -0.9004 -0.3856  0.7904
 3724TIP3    H135367   5.677   3.543   8.701 -1.7520 -0.3893  1.9769
 3724TIP3    H235368   5.643   3.646   8.595  0.1936 -1.0794  0.6209
 3725TIP3   OH235369   4.887   6.574   6.679  0.2403 -0.1146 -0.6204
 3725TIP3    H135370   4.924   6.639   6.739  0.1443  0.2505 -0.9557
 3725TIP3    H235371   4.792   6.580   6.692  0.2657 -0.7437 -0.0811
 3726TIP3   OH235372   3.994   3.856   8.087  0.5144 -0.3463  0.1791
 3726TIP3    H135373   4.086   3.864   8.116  0.1158  0.5204  1.3082
 3726TIP3    H235374   4.000   3.845   7.992  1.7561  1.3323  0.0049
 3727TIP3   OH235375   6.093   3.118   6.396  0.7014  0.5617 -0.5679
 3727TIP3    H135376   6.143   3.047   6.437  0.0400  0.6260  0.3987
 3727TIP3    H235377   6.127   3.198   6.437 -1.3963  0.5024  1.5690
 3728TIP3   OH235378   0.187   4.324   8.295  0.1500  0.4095 -0.3210
 3728TIP3    H135379   0.095   4.348   8.281 -0.1933 -0.3620  0.4858
 3728TIP3    H235380   0.224   4.319   8.207 -0.1802  2.1963 -0.5956
 3729TIP3   OH235381   2.863   7.385   7.115 -0.1389  0.2885  0.0607
 3729TIP3    H135382   2.942   7.426   7.080  0.5028  0.2332  1.3727
 3729TIP3    H235383   2.838   7.440   7.189 -1.1343  0.1020 -0.1244
 3730TIP3   OH235384   0.816   3.208   8.085  0.4415 -0.0641 -0.4311
 3730TIP3    H135385   0.781   3.120   8.073  0.0442  0.2239 -1.4564
 3730TIP3    H235386   0.779   3.237   8.168  0.2333 -0.7000 -0.2916
 3731TIP3   OH235387   6.004   5.280   8.077 -0.6550 -0.1360  0.2635
 3731TIP3    H135388   5.988   5.365   8.119 -1.1128  1.1705 -2.3425
 3731TIP3    H235389   6.070   5.238   8.133 -0.2679  2.0009  1.5497
 3732TIP3   OH235390   6.741   6.520   7.286  0.0621 -0.3034  0.1053
 3732TIP3    H135391   6.764   6.539   7.195 -0.2197  2.8233  0.5728
 3732TIP3    H235392   6.822   6.487   7.325  0.6509 -0.0254 -0.8545
 3733TIP3   OH235393   5.720   0.007   6.552 -0.4187  0.0196 -0.1253
 3733TIP3    H135394   5.749  -0.053   6.483 -0.5691 -0.9307  0.6238
 3733TIP3    H235395   5.624  -0.001   6.551 -0.5697  1.4124 -1.0331
 3734TIP3   OH235396   5.716   6.890   7.349 -0.2469  0.3247  0.6280
 3734TIP3    H135397   5.737   6.944   7.425  0.0682  0.7972  0.2055
 3734TIP3    H235398   5.797   6.844   7.328  0.8594  3.0825 -1.7668
 3735TIP3   OH235399   4.082   2.812   6.811 -0.1913 -0.6159 -0.4625
 3735TIP3    H135400   4.100   2.808   6.717 -0.5007  1.0306 -0.6244
 3735TIP3    H235401   4.009   2.751   6.825 -0.6364 -0.3203 -1.4285
 3736TIP3   OH235402   2.291   3.616   7.735 -0.5536 -0.2984 -0.0251
 3736TIP3    H135403   2.237   3.655   7.804 -1.0540 -2.2688  0.7578
 3736TIP3    H235404   2.377   3.606   7.775  0.3435  2.3100 -1.0887
 3737TIP3   OH235405   6.354   0.470   8.494 -0.3732 -0.3511  0.6595
 3737TIP3    H135406   6.333   0.551   8.448 -2.6640 -0.6731  1.0269
 3737TIP3    H235407   6.278   0.413   8.479  1.1504 -2.4624  0.4173
 3738TIP3   OH235408   5.882   4.440   9.934  0.2647  0.1111 -0.1298
 3738TIP3    H135409   5.856   4.424  10.025  2.0572  0.4640  0.4954
 3738TIP3    H235410   5.804   4.421   9.883 -0.8008 -0.0777  1.4858
 3739TIP3   OH235411   4.233   3.791   9.183 -0.1430 -0.1148 -0.8976
 3739TIP3    H135412   4.157   3.835   9.223 -0.8961 -0.5484 -1.8268
 3739TIP3    H235413   4.308   3.845   9.210 -0.2716 -1.5116  2.8964
 3740TIP3   OH235414   5.821   5.900   9.232 -0.3793  0.5998 -0.3237
 3740TIP3    H135415   5.777   5.974   9.190 -1.2423 -0.4494 -1.3435
 3740TIP3    H235416   5.794   5.824   9.181  0.5709 -0.4187  0.6301
 3741TIP3   OH235417   7.531   2.655   8.282  0.2825  0.8265 -0.4543
 3741TIP3    H135418   7.456   2.707   8.310 -0.6254 -0.1162 -1.0674
 3741TIP3    H235419   7.525   2.654   8.186 -0.1532 -0.9631 -0.4475
 3742TIP3   OH235420   5.473   7.607   6.646  0.2721 -0.5553  0.3006
 3742TIP3    H135421   5.392   7.566   6.616  0.7014 -1.0041 -0.2786
 3742TIP3    H235422   5.444   7.681   6.699 -0.5471  0.2043 -1.1261
 3743TIP3   OH235423   4.360   1.307   9.349  0.0571 -0.2470 -0.1569
 3743TIP3    H135424   4.314   1.241   9.297  1.2630 -0.7859 -0.5738
 3743TIP3    H235425   4.323   1.390   9.320  0.4825 -0.5633 -1.6959
 3744TIP3   OH235426   2.558   2.485   7.640 -0.1349  0.0484 -0.4573
 3744TIP3    H135427   2.510   2.567   7.634  0.0201  0.1804  0.0734
 3744TIP3    H235428   2.546   2.456   7.730 -1.3367 -1.2281 -0.9839
 3745TIP3   OH235429   3.272   2.130   7.689 -0.4867 -0.1888  0.3825
 3745TIP3    H135430   3.259   2.136   7.594  0.8646  0.6636  0.2172
 3745TIP3    H235431   3.275   2.221   7.718  2.5274 -0.2928  0.6916
 3746TIP3   OH235432   4.335   2.296   8.253 -0.4446 -0.6445 -0.1128
 3746TIP3    H135433   4.343   2.390   8.270  0.2764 -0.5114 -1.0547
 3746TIP3    H235434   4.263   2.267   8.308  0.1057  0.2243  1.1172
 3747TIP3   OH235435   4.946   4.978   9.502  0.5608  0.2054 -0.2946
 3747TIP3    H135436   4.901   4.916   9.445  0.6265  0.6223 -0.8085
 3747TIP3    H235437   4.980   5.045   9.443 -1.4699  1.9698  0.4062
 3748TIP3   OH235438   0.248   6.356   8.593  0.0080  0.7888  0.4433
 3748TIP3    H135439   0.334   6.314   8.589  0.2684  1.2879  0.6677
 3748TIP3    H235440   0.189   6.287   8.623  0.0672  0.0609 -1.0662
 3749TIP3   OH235441   1.315   3.238   9.362  0.1394 -0.5282 -0.6258
 3749TIP3    H135442   1.359   3.304   9.416  0.7332 -1.0027 -0.5154
 3749TIP3    H235443   1.242   3.285   9.321  0.7389  0.2805 -0.7982
 3750TIP3   OH235444   1.223   4.197   6.959  0.1774  0.1954 -0.1696
 3750TIP3    H135445   1.318   4.201   6.943  0.0199 -0.3322 -1.3116
 3750TIP3    H235446   1.215   4.201   7.054  1.4764 -1.6380  0.0779
 3751TIP3   OH235447   0.811   2.640   8.209 -0.1847 -0.4080  0.6005
 3751TIP3    H135448   0.879   2.695   8.170  1.1395 -1.7234  0.9453
 3751TIP3    H235449   0.852   2.554   8.216 -2.0096 -1.3150  0.5613
 3752TIP3   OH235450   2.650   5.564   7.421  0.1007  0.2965 -0.5981
 3752TIP3    H135451   2.664   5.470   7.431 -0.9181  0.0995 -0.9438
 3752TIP3    H235452   2.594   5.588   7.495 -1.2440  0.2463 -1.5596
 3753TIP3   OH235453   3.420   0.756   8.622  0.6050  0.1608  0.1487
 3753TIP3    H135454   3.444   0.682   8.678  1.3042 -2.8122 -3.6304
 3753TIP3    H235455   3.504   0.789   8.590  0.1955  0.3000 -0.8096
 3754TIP3   OH235456   6.190   6.847   7.854 -0.1379  0.1091 -0.3896
 3754TIP3    H135457   6.250   6.921   7.861  0.8381 -0.5571 -1.3189
 3754TIP3    H235458   6.103   6.884   7.871  0.5272  1.0762  1.0527
 3755TIP3   OH235459   7.616   4.124   8.111  0.0930 -0.5364 -0.3358
 3755TIP3    H135460   7.671   4.156   8.039 -0.9514 -0.0887 -0.9548
 3755TIP3    H235461   7.556   4.063   8.069 -0.8721  0.1257  0.0678
 3756TIP3   OH235462   5.053   6.246   8.171 -0.2609  0.2544  0.4712
 3756TIP3    H135463   5.122   6.227   8.234  0.0750 -0.4632 -0.0979
 3756TIP3    H235464   5.041   6.164   8.123 -0.6310  0.7353 -0.2724
 3757TIP3   OH235465   7.243   2.500   7.605 -0.3064 -0.2463 -0.5320
 3757TIP3    H135466   7.320   2.548   7.572  0.0707 -0.6980 -0.3261
 3757TIP3    H235467   7.197   2.563   7.659  0.8636 -0.4592  0.7747
 3758TIP3   OH235468   4.059   5.964   8.425 -0.1056  0.5168 -0.6085
 3758TIP3    H135469   4.107   5.955   8.508 -0.4457  1.8420 -0.2537
 3758TIP3    H235470   3.976   5.919   8.441 -0.6662  1.7898  0.2019
 3759TIP3   OH235471   2.176   2.309   9.127 -0.0892  0.6787  0.5022
 3759TIP3    H135472   2.087   2.285   9.100 -1.7433  3.4046  2.9552
 3759TIP3    H235473   2.200   2.380   9.069  0.4377  0.0979 -0.0060
 3760TIP3   OH235474   3.356   2.170   8.335  0.3085  0.4179 -0.3051
 3760TIP3    H135475   3.281   2.207   8.381 -0.8400  0.1886 -1.9274
 3760TIP3    H235476   3.359   2.079   8.364 -0.6060  0.1898 -0.8881
 3761TIP3   OH235477   6.762   2.228   8.049 -0.1946 -0.4935  0.0131
 3761TIP3    H135478   6.671   2.233   8.078 -0.3850 -0.3343 -0.6090
 3761TIP3    H235479   6.774   2.304   7.993  0.0201 -1.0723 -0.7393
 3762TIP3   OH235480   3.817   0.763   6.849  0.0022  0.3650  0.0211
 3762TIP3    H135481   3.843   0.757   6.757 -0.2165 -0.7170  0.0230
 3762TIP3    H235482   3.722   0.746   6.848  0.1445 -0.5024  0.5252
 3763TIP3   OH235483   0.057   4.890   7.908  0.7728 -0.4643  0.7727
 3763TIP3    H135484  -0.002   4.939   7.850 -0.8462 -1.8657  1.1380
 3763TIP3    H235485   0.008   4.811   7.930  2.4987 -1.3129  1.7823
 3764TIP3   OH235486   5.878   3.503   8.122 -0.6172 -0.8363  0.3873
 3764TIP3    H135487   5.853   3.414   8.095 -2.3539 -0.5067  0.8048
 3764TIP3    H235488   5.806   3.532   8.178 -1.2744  1.7101 -1.5933
 3765TIP3   OH235489   4.897   5.930   8.721 -0.0994  0.1905  0.4886
 3765TIP3    H135490   4.854   5.928   8.635  0.2005  0.1245  0.3416
 3765TIP3    H235491   4.989   5.913   8.702  0.2716  1.8753  0.6215
 3766TIP3   OH235492   6.870   3.717   8.552  0.0442  0.8248  0.3605
 3766TIP3    H135493   6.801   3.737   8.489 -0.9699  1.4918  1.6260
 3766TIP3    H235494   6.940   3.678   8.500 -1.6659 -0.8171 -0.8150
 3767TIP3   OH235495   0.634   5.886   8.668 -0.1292  0.3813 -0.2985
 3767TIP3    H135496   0.724   5.886   8.701 -0.4550  2.4113  0.7949
 3767TIP3    H235497   0.643   5.888   8.573  0.9097 -1.5897 -0.3015
 3768TIP3   OH235498   3.455   1.513   7.842 -0.4866 -0.7644  0.2235
 3768TIP3    H135499   3.548   1.492   7.833 -0.5949 -0.8061 -0.9028
 3768TIP3    H235500   3.413   1.466   7.770 -0.9589  1.8358 -1.3004
 3769TIP3   OH235501   3.435   5.142   7.345 -0.0461 -0.9292 -0.5031
 3769TIP3    H135502   3.481   5.148   7.428 -0.8043  0.2427 -0.1419
 3769TIP3    H235503   3.492   5.090   7.289  1.8772  0.7466 -0.1940
 3770TIP3   OH235504   1.631   6.662   7.904  0.1360  0.1644 -0.0932
 3770TIP3    H135505   1.599   6.749   7.881 -0.9217 -0.1648  0.0577
 3770TIP3    H235506   1.558   6.623   7.953  0.1992 -1.1640 -1.0103
 3771TIP3   OH235507   7.652   3.253   7.350 -0.9361 -0.2557  0.3313
 3771TIP3    H135508   7.656   3.342   7.386 -2.7378 -1.2075  3.2640
 3771TIP3    H235509   7.717   3.204   7.399  1.5682 -0.2867 -2.7105
 3772TIP3   OH235510   7.023   7.637   7.864  0.1683 -0.1854  0.6745
 3772TIP3    H135511   6.965   7.680   7.927 -1.1150  0.7455 -1.0628
 3772TIP3    H235512   7.013   7.688   7.783  1.2764 -1.6941 -0.4720
 3773TIP3   OH235513   4.205   7.359   8.444 -0.4138 -0.1099  0.6121
 3773TIP3    H135514   4.128   7.314   8.409 -0.0171 -0.6872  0.4704
 3773TIP3    H235515   4.279   7.320   8.398 -0.1260  1.4067 -0.2657
 3774TIP3   OH235516   1.097   0.161   7.534 -0.5290 -0.5865 -0.0393
 3774TIP3    H135517   1.006   0.191   7.538 -1.5092 -3.2678 -0.5736
 3774TIP3    H235518   1.141   0.227   7.481 -2.6313 -0.2313 -1.4741
 3775TIP3   OH235519   6.693   1.359   8.870 -0.1335  0.3610 -0.4937
 3775TIP3    H135520   6.646   1.359   8.953  0.6709 -0.5253 -0.0176
 3775TIP3    H235521   6.785   1.344   8.894 -0.0692 -1.2736 -1.6301
 3776TIP3   OH235522   4.350   1.535   9.091  0.1955 -0.3438 -0.4745
 3776TIP3    H135523   4.288   1.573   9.029  0.5665  0.9000 -0.1000
 3776TIP3    H235524   4.431   1.524   9.042  0.3480  0.1903 -0.3465
 3777TIP3   OH235525   3.374   6.516   9.631 -0.5814 -0.4052 -0.1067
 3777TIP3    H135526   3.454   6.569   9.633 -1.3787  0.8162  0.4624
 3777TIP3    H235527   3.319   6.557   9.565 -2.8966  2.1630  3.0612
 3778TIP3   OH235528   6.132   4.100   8.981 -0.3198 -0.4290 -0.3733
 3778TIP3    H135529   6.208   4.079   9.036 -0.1153  0.9436 -0.1014
 3778TIP3    H235530   6.165   4.164   8.918 -1.0241 -0.5653 -0.8879
 3779TIP3   OH235531   2.383   1.093   8.981  0.9181 -0.3082 -0.1570
 3779TIP3    H135532   2.383   1.035   9.057  2.4221 -0.9249 -0.5932
 3779TIP3    H235533   2.471   1.131   8.980  0.7921 -0.0117 -1.3528
 3780TIP3   OH235534   7.311   3.891   7.493  0.0392  0.2360  0.0666
 3780TIP3    H135535   7.273   3.967   7.536  1.2834  0.2693  1.1554
 3780TIP3    H235536   7.389   3.925   7.449 -0.3190 -0.1163 -0.8905
 3781TIP3   OH235537   1.866   0.511   8.061 -0.3869  0.2546  0.3829
 3781TIP3    H135538   1.828   0.534   8.146  2.1807 -1.6833  2.2271
 3781TIP3    H235539   1.879   0.596   8.018 -0.4046  1.4606  2.5844
 3782TIP3   OH235540   3.414   6.057   9.256 -0.5357 -0.0730  0.1410
 3782TIP3    H135541   3.418   5.966   9.285 -2.6451  0.1055  1.2612
 3782TIP3    H235542   3.323   6.083   9.272  0.2921  2.6185  1.0899
 3783TIP3   OH235543   6.251   0.229   6.775  0.2664 -0.0951 -0.1753
 3783TIP3    H135544   6.223   0.189   6.857  2.7152 -0.1437  0.7229
 3783TIP3    H235545   6.320   0.172   6.742 -0.3986  0.1300 -2.1087
 3784TIP3   OH235546   0.463   0.098   8.393 -0.4517  0.2539 -0.3174
 3784TIP3    H135547   0.453   0.010   8.359  0.7078  0.6875 -1.8405
 3784TIP3    H235548   0.399   0.150   8.345  0.0804  0.5686 -0.6919
 3785TIP3   OH235549   2.892   0.225   6.834 -0.4255 -0.1759  0.1064
 3785TIP3    H135550   2.986   0.206   6.839 -0.4056  0.0618  0.7021
 3785TIP3    H235551   2.860   0.211   6.923 -1.2327 -1.6475 -0.3781
 3786TIP3   OH235552   4.840   3.860   6.312 -0.0738 -0.3230 -0.0994
 3786TIP3    H135553   4.926   3.843   6.351  0.1114 -1.3891 -0.9194
 3786TIP3    H235554   4.851   3.837   6.220 -1.0581  0.1995 -0.3588
 3787TIP3   OH235555   5.426   6.329   7.785 -0.1660  0.0540 -0.2520
 3787TIP3    H135556   5.444   6.386   7.859  0.9595 -1.4466  0.6907
 3787TIP3    H235557   5.344   6.286   7.808  1.5225 -2.4990  1.5978
 3788TIP3   OH235558   3.863   0.314   8.218 -0.0894 -0.3642 -0.3373
 3788TIP3    H135559   3.932   0.247   8.219 -0.4966 -1.0032 -3.4006
 3788TIP3    H235560   3.785   0.270   8.252  0.3086 -0.5295  0.3797
 3789TIP3   OH235561   6.594   3.005   7.547 -0.0278 -0.4223  0.6101
 3789TIP3    H135562   6.531   3.000   7.475 -0.0912 -0.7623  0.6898
 3789TIP3    H235563   6.541   2.995   7.626 -0.0695  0.7300  0.7541
 3790TIP3   OH235564   2.302   1.602   9.340  0.9943  0.1813 -0.3567
 3790TIP3    H135565   2.396   1.614   9.355  1.1530  0.5075 -1.5106
 3790TIP3    H235566   2.290   1.621   9.247  0.0465 -1.4802 -0.6132
 3791TIP3   OH235567   2.063   2.628   8.565  0.6653 -0.3761  0.4855
 3791TIP3    H135568   2.018   2.703   8.604 -0.9053 -1.2650  0.4416
 3791TIP3    H235569   2.126   2.667   8.505 -2.7947  1.0350 -2.6309
 3792TIP3   OH235570   4.386   5.489   9.599  0.1616  0.4168  0.2906
 3792TIP3    H135571   4.460   5.541   9.631  0.2287 -0.6823  2.0792
 3792TIP3    H235572   4.376   5.420   9.664 -3.1313  1.1600  0.7430
 3793TIP3   OH235573   2.066   4.341   8.704  0.1722 -0.0457  0.0736
 3793TIP3    H135574   2.120   4.420   8.705 -0.7275  0.6091 -0.9313
 3793TIP3    H235575   2.016   4.345   8.785  0.0446  0.4729 -0.0305
 3794TIP3   OH235576   1.611   4.354   8.690 -0.3698  0.2922 -0.4293
 3794TIP3    H135577   1.698   4.383   8.659 -0.2884  0.1073 -0.3756
 3794TIP3    H235578   1.550   4.389   8.625 -0.3234  1.0176 -0.0952
 3795TIP3   OH235579   5.818   6.416   7.905  0.0530  0.1305 -0.1332
 3795TIP3    H135580   5.840   6.485   7.843  0.4267  0.5922  0.5050
 3795TIP3    H235581   5.831   6.456   7.991 -1.1417 -0.2713  0.2591
 3796TIP3   OH235582   6.478   2.587   8.148  0.0079  0.2908  0.3824
 3796TIP3    H135583   6.384   2.600   8.161 -0.0203 -0.0911  0.5940
 3796TIP3    H235584   6.517   2.610   8.233 -0.2557 -3.0134  1.5448
 3797TIP3   OH235585   1.906   2.532   8.286  0.2921 -0.1123 -0.0070
 3797TIP3    H135586   1.983   2.556   8.337  1.8264 -2.4406 -1.0439
 3797TIP3    H235587   1.904   2.597   8.215  1.0235  0.2646  0.3006
 3798TIP3   OH235588   7.439   5.793   7.473  0.4034 -0.7230 -0.2991
 3798TIP3    H135589   7.515   5.767   7.422 -1.0547 -0.8043 -2.5756
 3798TIP3    H235590   7.441   5.735   7.550  0.4132 -3.6942 -2.3534
 3799TIP3   OH235591   6.798   2.829   8.956 -0.0894  0.1317  0.5495
 3799TIP3    H135592   6.873   2.784   8.995  0.1177  0.2440  0.2770
 3799TIP3    H235593   6.733   2.832   9.027 -0.0977 -0.5733  0.5850
 3800TIP3   OH235594   2.130   4.128   7.255  0.0328  0.7156  0.0661
 3800TIP3    H135595   2.225   4.121   7.258  0.0716  1.0457 -0.2917
 3800TIP3    H235596   2.112   4.173   7.173 -0.4417  0.5001  0.0484
 3801TIP3   OH235597   2.488   4.404   8.810  0.1076  0.7880 -0.3704
 3801TIP3    H135598   2.569   4.457   8.808  2.0987 -2.0654 -1.4483
 3801TIP3    H235599   2.454   4.410   8.720  0.1975  0.4418 -0.4273
 3802TIP3   OH235600   2.943   1.257   9.606 -0.2563  0.0134 -0.0461
 3802TIP3    H135601   2.901   1.208   9.534  0.2472  0.2403 -0.4982
 3802TIP3    H235602   3.037   1.247   9.590 -0.1465  0.3798  0.3707
 3803TIP3   OH235603   6.883   0.527   8.616 -0.3193  0.6073  0.0576
 3803TIP3    H135604   6.873   0.451   8.674  0.9769  0.3295 -0.0482
 3803TIP3    H235605   6.841   0.500   8.534 -0.9669  0.4843  0.4252
 3804TIP3   OH235606   4.159   2.389   8.031  0.0631 -0.0115  0.2170
 3804TIP3    H135607   4.238   2.372   7.979 -0.5628  0.3795 -0.9003
 3804TIP3    H235608   4.184   2.367   8.121  1.1492 -0.8180 -0.2603
 3805TIP3   OH235609   4.446   7.471   8.965 -0.0377 -0.0003 -0.3216
 3805TIP3    H135610   4.378   7.438   8.905  0.5651  0.7197 -1.4487
 3805TIP3    H235611   4.502   7.525   8.909  0.5029  0.7711  0.9391
 3806TIP3   OH235612   1.033   6.142   8.051 -0.3184  0.4032 -0.1222
 3806TIP3    H135613   0.945   6.180   8.054 -0.3061  0.3826  0.5264
 3806TIP3    H235614   1.052   6.118   8.142  0.7221  1.2379 -0.1075
 3807TIP3   OH235615   6.825   3.007   8.124  0.2264  0.3723 -0.1568
 3807TIP3    H135616   6.779   3.091   8.133 -0.8808 -0.2562  0.2858
 3807TIP3    H235617   6.771   2.958   8.061  1.4321  0.3583 -1.2155
 3808TIP3   OH235618   0.395   1.533   8.830  0.2379  0.7661 -0.6175
 3808TIP3    H135619   0.347   1.543   8.912  1.8904  0.2171  0.4610
 3808TIP3    H235620   0.372   1.445   8.799  2.8671 -0.8515  1.5699
 3809TIP3   OH235621   0.722   4.575   6.924 -0.7746 -0.3092  0.3108
 3809TIP3    H135622   0.764   4.638   6.865 -0.3469 -1.1959 -0.3606
 3809TIP3    H235623   0.628   4.592   6.914 -0.7564 -0.9855 -1.2756
 3810TIP3   OH235624   6.096   4.383   9.048  0.4684  0.7503  0.3820
 3810TIP3    H135625   6.021   4.435   9.020 -0.7013 -1.7972 -1.6821
 3810TIP3    H235626   6.169   4.415   8.994 -0.6534 -0.7918 -2.2711
 3811TIP3   OH235627   2.392   4.752   8.851  0.3009 -0.1125  0.0611
 3811TIP3    H135628   2.322   4.772   8.913  1.8298 -1.0300  2.1943
 3811TIP3    H235629   2.472   4.777   8.896  1.4034  0.5306 -2.1604
 3812TIP3   OH235630   0.830   7.281   8.638 -0.2741  0.0417  0.1125
 3812TIP3    H135631   0.920   7.313   8.643 -1.2458  3.0220 -0.1044
 3812TIP3    H235632   0.808   7.284   8.545 -0.9627  0.4380  0.2815
 3813TIP3   OH235633   0.436   6.547   9.044  0.4209  0.0325 -1.0619
 3813TIP3    H135634   0.465   6.471   8.993 -0.3794 -0.1833 -1.2143
 3813TIP3    H235635   0.349   6.567   9.009 -0.1655 -0.1477  0.2254
 3814TIP3   OH235636   4.022   2.771   8.410 -0.4698  0.3823 -0.5805
 3814TIP3    H135637   4.051   2.756   8.320 -0.3068  1.2403 -0.6793
 3814TIP3    H235638   4.103   2.784   8.459 -0.6106  1.1902 -0.5541
 3815TIP3   OH235639   4.384   0.347   7.816 -0.2821  0.2603  0.2470
 3815TIP3    H135640   4.418   0.367   7.903 -1.1565  0.3479  0.5737
 3815TIP3    H235641   4.314   0.284   7.831 -1.7642  1.7408 -0.1880
 3816TIP3   OH235642   4.954   3.589   9.357  1.1517 -0.1591 -0.5648
 3816TIP3    H135643   5.013   3.660   9.334  0.8255  0.4450  0.4339
 3816TIP3    H235644   5.011   3.513   9.369  1.4886 -0.1025 -1.7172
 3817TIP3   OH235645   7.618   0.013   9.027  0.0147 -0.2367 -0.7570
 3817TIP3    H135646   7.569   0.078   9.077 -1.0757 -1.6686  0.0981
 3817TIP3    H235647   7.701   0.055   9.008 -0.3295  1.0901  0.5246
 3818TIP3   OH235648   6.044   0.403   8.418  0.2615 -0.6038 -0.3789
 3818TIP3    H135649   6.028   0.491   8.383 -1.3573  0.1903  2.0785
 3818TIP3    H235650   6.037   0.345   8.343  1.1237  1.3253 -2.0311
 3819TIP3   OH235651   2.023   2.879   8.698 -0.0896 -0.4090 -0.1076
 3819TIP3    H135652   2.090   2.894   8.764 -0.8324 -1.0181  0.8100
 3819TIP3    H235653   1.944   2.921   8.733 -0.6215 -1.1750 -0.3474
 3820TIP3   OH235654   2.435   2.151   7.322 -0.5857  0.5034  0.1548
 3820TIP3    H135655   2.475   2.236   7.342  0.1189  0.2163 -0.0003
 3820TIP3    H235656   2.507   2.099   7.287 -0.7859 -0.4697  1.1220
 3821TIP3   OH235657   3.311   5.985   7.918  0.1723 -0.2796  0.2538
 3821TIP3    H135658   3.305   5.893   7.940  2.7273 -0.4828  0.4438
 3821TIP3    H235659   3.303   6.031   8.002  1.8165 -0.5665  0.6117
 3822TIP3   OH235660   0.698   5.293   9.486  0.2229 -0.3773 -0.7315
 3822TIP3    H135661   0.620   5.242   9.462 -0.8030  1.9942 -2.8578
 3822TIP3    H235662   0.671   5.344   9.563  1.1098 -2.5232  1.1205
 3823TIP3   OH235663   7.019   2.709   9.088 -0.4067 -0.1166  0.7547
 3823TIP3    H135664   7.010   2.780   9.152  0.8152  0.4658  0.2987
 3823TIP3    H235665   7.102   2.726   9.044 -2.0145  0.5935 -2.3385
 3824TIP3   OH235666   4.259   4.914   7.792  0.0893 -0.6302 -0.1224
 3824TIP3    H135667   4.281   4.859   7.716 -0.2771 -2.6860  1.1618
 3824TIP3    H235668   4.187   4.867   7.835  0.5643  0.2402  1.7236
 3825TIP3   OH235669   0.138   3.713   9.381 -0.0530  0.4644  0.0216
 3825TIP3    H135670   0.124   3.788   9.438 -0.5777 -0.5583  1.3037
 3825TIP3    H235671   0.107   3.741   9.295 -2.0144  1.1257  0.8902
 3826TIP3   OH235672   4.065   4.334   7.797 -0.4643  0.0376  0.2752
 3826TIP3    H135673   4.140   4.393   7.808 -1.4475  1.3785 -0.0662
 3826TIP3    H235674   4.007   4.355   7.870 -0.5030 -1.0359  0.5685
 3827TIP3   OH235675   4.765   5.696   7.692 -0.0528  0.6876 -0.7394
 3827TIP3    H135676   4.709   5.639   7.745  0.1270  1.5925  0.4477
 3827TIP3    H235677   4.806   5.636   7.629  0.1793 -0.5216  0.5024
 3828TIP3   OH235678   5.284   0.369   7.894  0.4036 -0.0967 -0.5875
 3828TIP3    H135679   5.203   0.408   7.859  0.8243  1.2662 -0.1130
 3828TIP3    H235680   5.266   0.275   7.896 -0.0693 -0.1282 -3.2843
 3829TIP3   OH235681   5.182   6.686   9.109 -0.1935 -0.5707 -0.1951
 3829TIP3    H135682   5.155   6.745   9.180  0.6082  0.3214 -0.6037
 3829TIP3    H235683   5.212   6.745   9.039 -1.7817 -1.3866 -1.6372
 3830TIP3   OH235684   4.573   4.807   8.142 -0.0573 -0.0834  0.2685
 3830TIP3    H135685   4.592   4.901   8.132 -0.4744  0.3677  2.7939
 3830TIP3    H235686   4.645   4.774   8.196  0.2396 -1.3212 -0.8332
 3831TIP3   OH235687   2.696   6.076   8.967 -0.1597  0.8122  0.0268
 3831TIP3    H135688   2.615   6.104   9.011 -0.4866 -0.5370  0.3395
 3831TIP3    H235689   2.713   6.144   8.902 -2.3279  0.4477 -1.0122
 3832TIP3   OH235690   6.444   7.290   8.001  0.3835  0.4607 -0.1470
 3832TIP3    H135691   6.403   7.328   8.079  2.8954  0.7969  1.1304
 3832TIP3    H235692   6.473   7.203   8.030 -0.7155 -0.3720 -1.4632
 3833TIP3   OH235693   4.489   2.172   7.402  0.0668 -0.4371  0.4657
 3833TIP3    H135694   4.564   2.112   7.400  0.6422  0.2793 -0.3662
 3833TIP3    H235695   4.449   2.163   7.315 -0.7028 -0.6647  0.8343
 3834TIP3   OH235696   4.273   3.023   9.022 -0.3375  0.3082 -0.1618
 3834TIP3    H135697   4.364   3.013   8.993 -0.2898  2.2295 -0.8001
 3834TIP3    H235698   4.222   3.029   8.941 -1.4155 -3.0111  0.1205
 3835TIP3   OH235699   5.740   3.008   6.975  0.0852  0.2251  0.3485
 3835TIP3    H135700   5.711   3.094   6.944  1.4582  0.9964  1.1451
 3835TIP3    H235701   5.815   2.986   6.920  0.6720  0.2302  1.1343
 3836TIP3   OH235702   6.389   1.430   8.154 -0.2971 -0.1407  0.3135
 3836TIP3    H135703   6.293   1.427   8.149 -0.3733 -1.7710  1.6698
 3836TIP3    H235704   6.411   1.361   8.217  1.7611  0.4113  0.2499
 3837TIP3   OH235705   0.934   1.340   7.367  0.4399 -0.3294 -0.5548
 3837TIP3    H135706   0.876   1.403   7.410  0.3187 -1.2562  0.7299
 3837TIP3    H235707   0.964   1.284   7.439  2.7794 -0.0090 -1.2197
 3838TIP3   OH235708   2.629   6.930   8.198  0.6338  0.0171 -0.0340
 3838TIP3    H135709   2.598   7.003   8.144  1.3632  0.3779  0.0274
 3838TIP3    H235710   2.622   6.962   8.288 -0.5613 -0.5762  0.1128
 3839TIP3   OH235711   0.974   1.615   6.766  0.2038 -0.5805  0.0973
 3839TIP3    H135712   1.045   1.667   6.803  0.4166 -0.7812 -0.0320
 3839TIP3    H235713   0.900   1.631   6.826 -0.4233  1.6511 -1.1684
 3840TIP3   OH235714   2.461   5.731   8.804  0.8471  0.0837  0.3288
 3840TIP3    H135715   2.453   5.826   8.814 -1.2052  0.1030 -0.8457
 3840TIP3    H235716   2.503   5.702   8.884  2.2240  2.0579  0.3916
 3841TIP3   OH235717   7.327   5.774   9.516  0.2363  0.7661  0.0403
 3841TIP3    H135718   7.377   5.835   9.462 -0.4625  0.0834 -1.4299
 3841TIP3    H235719   7.240   5.812   9.522 -0.3551 -0.2962 -1.3287
 3842TIP3   OH235720   6.330   1.807   9.296  0.4015 -0.3159  0.3045
 3842TIP3    H135721   6.282   1.849   9.224  1.0328  0.0152  0.0651
 3842TIP3    H235722   6.418   1.846   9.292  0.4367 -0.2759  1.2734
 3843TIP3   OH235723   5.903   2.622   8.228 -0.3979  0.2262  0.3642
 3843TIP3    H135724   5.929   2.558   8.161 -0.0400  0.7155  0.0340
 3843TIP3    H235725   5.854   2.570   8.292  1.5045 -0.7817  1.0944
 3844TIP3   OH235726   1.892   1.704   9.473 -0.3313  0.1024  0.0066
 3844TIP3    H135727   1.923   1.789   9.442  1.4534  0.2680  2.0208
 3844TIP3    H235728   1.915   1.643   9.404  0.7362  0.8901 -0.3572
 3845TIP3   OH235729   2.800   2.380   7.313 -0.7865  0.0183  0.5755
 3845TIP3    H135730   2.763   2.465   7.338 -2.3897 -0.7423  0.9369
 3845TIP3    H235731   2.746   2.316   7.358 -0.0041 -1.2298 -0.1896
 3846TIP3   OH235732   0.924   7.208   9.168  0.4872  0.9024  0.1617
 3846TIP3    H135733   0.945   7.230   9.077 -0.0536  2.3368  0.3553
 3846TIP3    H235734   0.990   7.144   9.194 -0.1254 -0.5389 -1.6406
 3847TIP3   OH235735   1.705   6.508   8.194 -0.2428  0.1206 -0.0603
 3847TIP3    H135736   1.659   6.551   8.122 -2.3099 -0.4618  0.8223
 3847TIP3    H235737   1.754   6.579   8.236  0.1038  0.6792 -1.3723
 3848TIP3   OH235738   3.599   5.988   8.645 -0.0624  0.7689  0.4219
 3848TIP3    H135739   3.533   5.926   8.676  0.5482  0.7987  1.8847
 3848TIP3    H235740   3.581   6.068   8.694  0.1522  1.2386 -0.2557
 3849TIP3   OH235741   0.491   4.464   7.442  0.5389  0.2598  0.4161
 3849TIP3    H135742   0.492   4.556   7.468 -2.0450  0.5691 -0.2318
 3849TIP3    H235743   0.582   4.437   7.443  1.4558  3.0417 -0.0908
 3850TIP3   OH235744   4.806   0.871   7.000  0.0759  0.2105 -0.5250
 3850TIP3    H135745   4.783   0.867   6.907 -1.0379 -2.2622 -0.2178
 3850TIP3    H235746   4.889   0.920   7.002  0.0011  0.5259 -2.7752
 3851TIP3   OH235747   6.398   4.232   8.161 -0.3643 -0.4364 -0.5687
 3851TIP3    H135748   6.395   4.146   8.203  0.3586  0.7576  2.1386
 3851TIP3    H235749   6.491   4.252   8.154 -0.5400  0.7191  0.1900
 3852TIP3   OH235750   6.472   4.433   9.298 -0.0318 -0.4907 -0.2011
 3852TIP3    H135751   6.500   4.379   9.372  2.0612 -1.2343 -1.4426
 3852TIP3    H235752   6.548   4.488   9.279 -0.3465 -0.6175 -2.0413
 3853TIP3   OH235753   1.301   2.990   8.394  0.6594 -0.1154 -0.4116
 3853TIP3    H135754   1.214   2.996   8.432  0.7770  0.1116 -0.1715
 3853TIP3    H235755   1.340   2.912   8.433  0.3937 -0.4906 -0.8805
 3854TIP3   OH235756   4.067   3.699   7.359  0.0539 -0.0009 -0.4507
 3854TIP3    H135757   4.071   3.605   7.341 -0.1093  0.1027 -1.0498
 3854TIP3    H235758   4.032   3.737   7.278  3.1490  0.9319 -1.4694
 3855TIP3   OH235759   2.116   7.277   7.522 -0.6490  0.1972 -0.4733
 3855TIP3    H135760   2.040   7.227   7.491  0.1917 -1.3510 -0.0944
 3855TIP3    H235761   2.080   7.334   7.591 -1.0333 -2.8344  2.0711
 3856TIP3   OH235762   4.904   7.456   9.201 -0.0237 -0.2447  0.4900
 3856TIP3    H135763   4.841   7.436   9.132  0.7024 -1.6743  0.1945
 3856TIP3    H235764   4.854   7.447   9.282 -0.3201 -0.8927  0.2408
 3857TIP3   OH235765   4.350   6.008   9.066 -0.1344  0.3699 -0.7235
 3857TIP3    H135766   4.421   5.947   9.084 -0.7804  0.0476  0.8569
 3857TIP3    H235767   4.283   5.988   9.131 -1.7657  0.5594 -2.2413
 3858TIP3   OH235768   1.803   5.054   9.061 -0.1452  0.2693  0.3803
 3858TIP3    H135769   1.785   5.061   9.154 -0.8657  1.8343  0.1675
 3858TIP3    H235770   1.865   5.124   9.043 -2.6944  2.3992 -0.8595
 3859TIP3   OH235771   5.684   3.123   8.967 -0.1376 -0.2177 -0.1495
 3859TIP3    H135772   5.590   3.144   8.971 -0.0749  0.0100  0.1609
 3859TIP3    H235773   5.726   3.194   9.014  0.3486  0.6332 -1.7940
 3860TIP3   OH235774   0.773   0.755   6.827 -0.0403  0.2087 -0.2165
 3860TIP3    H135775   0.752   0.663   6.839 -0.8917  0.1561 -1.8465
 3860TIP3    H235776   0.689   0.798   6.812  0.4181  1.1027 -0.3551
 3861TIP3   OH235777   1.986   5.272   8.978  0.1628  0.1036 -0.3450
 3861TIP3    H135778   2.049   5.342   8.960 -1.8548  2.0037 -0.5521
 3861TIP3    H235779   1.919   5.282   8.910 -1.2340 -0.6925  0.8478
 3862TIP3   OH235780   7.531   2.750   9.347 -0.3711 -0.4539 -0.3805
 3862TIP3    H135781   7.608   2.699   9.322  0.2489 -0.1889  0.8866
 3862TIP3    H235782   7.490   2.698   9.416 -0.9625 -0.2754 -0.5964
 3863TIP3   OH235783   0.040   6.912   7.009 -0.2237 -0.3334 -0.1496
 3863TIP3    H135784  -0.029   6.963   6.967  1.2626  0.3426 -1.9210
 3863TIP3    H235785   0.043   6.830   6.960  0.8571  0.0508 -0.7720
 3864TIP3   OH235786   5.963   0.041   6.655 -0.7888  0.1980  0.8050
 3864TIP3    H135787   5.877   0.024   6.618 -0.9823  1.5290  0.6033
 3864TIP3    H235788   5.948   0.043   6.750 -1.1059  1.0369  0.7427
 3865TIP3   OH235789   5.407   1.210   8.321 -0.2284  0.2581 -0.4010
 3865TIP3    H135790   5.467   1.136   8.334 -0.1809  0.1410 -1.2314
 3865TIP3    H235791   5.323   1.178   8.354 -0.2545 -0.2488 -0.9346
 3866TIP3   OH235792   1.316   3.149   7.509 -0.5389  0.2613  0.4592
 3866TIP3    H135793   1.388   3.110   7.558  0.3015 -1.3497 -1.9068
 3866TIP3    H235794   1.323   3.243   7.526  1.2861  0.0006  1.3533
 3867TIP3   OH235795   4.631   5.489   8.728  0.1256  0.3178  0.0889
 3867TIP3    H135796   4.581   5.492   8.810 -0.5636 -2.4001 -0.1410
 3867TIP3    H235797   4.564   5.496   8.660  0.1985 -1.4920 -0.2117
 3868TIP3   OH235798   4.618   5.637   9.544 -0.2360  0.4981 -0.3349
 3868TIP3    H135799   4.567   5.623   9.464  1.2675  1.2481 -1.4589
 3868TIP3    H235800   4.703   5.667   9.514  1.5417 -2.2986  1.3719
 3869TIP3   OH235801   3.193   4.331   8.681  0.5197  0.7949  0.1066
 3869TIP3    H135802   3.258   4.288   8.737 -0.7676 -0.2375  0.8510
 3869TIP3    H235803   3.245   4.381   8.617  2.0631 -1.2286 -0.2958
 3870TIP3   OH235804   4.123   6.771   7.899  0.1566 -0.0764  0.1059
 3870TIP3    H135805   4.171   6.835   7.950 -0.4515 -0.7829  1.6247
 3870TIP3    H235806   4.050   6.820   7.861  1.2025  0.6722 -0.9661
 3871TIP3   OH235807   1.118   6.059   8.307 -0.0203  0.4403 -0.3607
 3871TIP3    H135808   1.141   5.991   8.370 -1.7257 -0.0213 -0.1917
 3871TIP3    H235809   1.063   6.120   8.356 -1.1254  0.2333 -1.3060
 3872TIP3   OH235810   2.807   2.301   8.782  0.2324 -0.6211 -0.6413
 3872TIP3    H135811   2.724   2.261   8.755 -0.0110 -0.8379  0.3728
 3872TIP3    H235812   2.840   2.345   8.703 -0.9252 -0.3915 -1.0148
 3873TIP3   OH235813   6.156   5.308   8.711 -0.4027  0.0837  0.4339
 3873TIP3    H135814   6.100   5.358   8.652 -0.4979 -0.2143  0.2743
 3873TIP3    H235815   6.232   5.365   8.726  0.0835 -0.2221 -0.7389
 3874TIP3   OH235816   0.006   7.280   7.458  0.3647 -0.2861  0.0909
 3874TIP3    H135817  -0.059   7.252   7.521  0.3442 -1.0938 -0.2827
 3874TIP3    H235818   0.084   7.300   7.511  0.6664 -1.8975  0.2973
 3875TIP3   OH235819   2.424   2.985   9.021  0.1978  0.0161 -0.5874
 3875TIP3    H135820   2.430   2.937   9.104 -1.5000  1.0271  0.1723
 3875TIP3    H235821   2.495   2.950   8.968  1.0774 -0.9564  1.1459
 3876TIP3   OH235822   1.627   4.259   9.081 -0.2502  0.0955 -0.3122
 3876TIP3    H135823   1.580   4.292   9.005 -0.0161  0.0173 -0.4921
 3876TIP3    H235824   1.639   4.335   9.137  0.2872  0.3119 -0.7226
 3877TIP3   OH235825   1.658   1.482   7.635  0.6349 -0.0228  0.4923
 3877TIP3    H135826   1.627   1.503   7.723  1.7019 -1.7586  1.3325
 3877TIP3    H235827   1.720   1.552   7.614  0.4004  0.3847  1.1243
 3878TIP3   OH235828   0.252   2.855   9.061 -0.1327  0.6049  0.1595
 3878TIP3    H135829   0.172   2.807   9.038  0.6390 -2.7515  3.5382
 3878TIP3    H235830   0.225   2.915   9.131  0.0125  0.6223  0.2006
 3879TIP3   OH235831   3.192   0.027   7.690 -0.0282 -0.0343  0.7062
 3879TIP3    H135832   3.267   0.086   7.701  1.3174 -1.4237 -0.5632
 3879TIP3    H235833   3.158   0.015   7.779  1.8505 -0.0881  1.4764
 3880TIP3   OH235834   1.934   1.567   9.240  0.1969 -0.0544 -0.2180
 3880TIP3    H135835   2.015   1.528   9.207 -0.1307 -0.9081 -0.0286
 3880TIP3    H235836   1.875   1.567   9.165  0.0876 -0.2314 -0.1325
 3881TIP3   OH235837   3.017   5.266   8.330 -0.3860 -0.4077  0.2501
 3881TIP3    H135838   3.000   5.303   8.244 -0.4858 -1.8807 -0.3779
 3881TIP3    H235839   3.075   5.330   8.372  0.3966 -0.1027 -1.2440
 3882TIP3   OH235840   3.210   5.020   8.301  0.8312 -0.5172 -0.4651
 3882TIP3    H135841   3.264   5.023   8.380  1.0053  1.0466 -0.5947
 3882TIP3    H235842   3.158   5.101   8.305 -0.0293 -1.0040 -1.3573
 3883TIP3   OH235843   5.997   1.901   8.619  0.7596 -0.7864 -0.0592
 3883TIP3    H135844   6.047   1.874   8.542  1.9244 -3.2719  1.4700
 3883TIP3    H235845   5.967   1.820   8.658  0.3308  0.3928  2.2143
 3884TIP3   OH235846   5.529   7.596   9.203 -0.4476 -0.1912 -0.3944
 3884TIP3    H135847   5.581   7.672   9.177 -0.9506  0.1290 -0.4599
 3884TIP3    H235848   5.595   7.530   9.225 -0.0016 -0.4319 -2.2903
 3885TIP3   OH235849   3.541   5.185   8.218  0.4055 -0.5642  0.0187
 3885TIP3    H135850   3.495   5.266   8.240  1.0844  0.2801 -1.5002
 3885TIP3    H235851   3.628   5.194   8.257  0.4230 -0.6424  0.0001
 3886TIP3   OH235852   2.348   1.489   6.891  0.0072 -0.1936 -0.1495
 3886TIP3    H135853   2.376   1.498   6.982  0.1812  2.0272 -0.3646
 3886TIP3    H235854   2.409   1.426   6.853  1.1441  0.2974  0.7910
 3887TIP3   OH235855   6.998   5.712   8.366 -0.1657  0.4336  0.4624
 3887TIP3    H135856   7.082   5.699   8.322 -0.3550 -0.2317  0.2842
 3887TIP3    H235857   6.945   5.637   8.339 -0.8529  0.8997  0.4912
 3888TIP3   OH235858   7.291   6.280   8.622 -0.1127 -0.8274 -0.5817
 3888TIP3    H135859   7.309   6.213   8.557  0.4825  0.3202 -1.6323
 3888TIP3    H235860   7.366   6.278   8.681 -0.2107 -1.2417 -0.4695
 3889TIP3   OH235861   6.371   3.434   7.445  0.0720  0.3800 -0.5083
 3889TIP3    H135862   6.466   3.421   7.446 -0.1615 -1.6511 -0.5275
 3889TIP3    H235863   6.345   3.412   7.356 -1.0002 -4.8780  0.7958
 3890TIP3   OH235864   3.980   0.794   7.559 -0.5204  0.0393 -0.1591
 3890TIP3    H135865   4.049   0.837   7.509  1.1451  0.4053  2.2897
 3890TIP3    H235866   3.953   0.860   7.624 -2.6348 -0.3869 -0.5220
 3891TIP3   OH235867   3.836   6.309   8.749  0.5434  0.7199  0.2401
 3891TIP3    H135868   3.917   6.341   8.708 -0.4122 -0.4578 -2.9064
 3891TIP3    H235869   3.782   6.387   8.757  1.1087  1.1413  0.0938
 3892TIP3   OH235870   2.543   4.849   7.843  0.1568  0.4266  0.4925
 3892TIP3    H135871   2.609   4.792   7.805 -1.1730 -4.1878  4.1164
 3892TIP3    H235872   2.581   4.879   7.926 -0.0094  3.3035 -0.3556
 3893TIP3   OH235873   7.613   6.206   9.178 -0.1130  0.2381  0.3673
 3893TIP3    H135874   7.548   6.236   9.242 -1.5855  0.4232 -1.1276
 3893TIP3    H235875   7.563   6.146   9.122  1.6438 -1.5363  0.6079
 3894TIP3   OH235876   3.496   2.353   8.682 -0.4494 -0.2539  0.1218
 3894TIP3    H135877   3.464   2.263   8.676  0.7986 -0.8707  1.8022
 3894TIP3    H235878   3.573   2.347   8.738  1.1129  1.5372 -1.7052
 3895TIP3   OH235879   6.239   3.614   9.541  0.4192  0.0108  0.9042
 3895TIP3    H135880   6.325   3.596   9.578  0.8821  0.2844  0.0115
 3895TIP3    H235881   6.223   3.707   9.562  0.0747 -0.1885  1.5613
 3896TIP3   OH235882   3.156   1.705   8.793 -0.0256  0.5315 -0.0334
 3896TIP3    H135883   3.078   1.650   8.788  0.4044 -0.1610  0.6994
 3896TIP3    H235884   3.133   1.772   8.858  0.1055  0.1175  0.4489
 3897TIP3   OH235885   2.416   6.335   7.285 -0.0027  0.1711 -0.0222
 3897TIP3    H135886   2.493   6.340   7.229 -0.3722  1.2603 -0.4438
 3897TIP3    H235887   2.429   6.403   7.351 -0.0339 -0.4492  0.6368
 3898TIP3   OH235888   4.831   1.028   8.232  0.3114  0.0288  0.3312
 3898TIP3    H135889   4.896   0.972   8.188  0.7715  0.0708  0.9481
 3898TIP3    H235890   4.848   1.115   8.195 -1.3975 -0.4425 -1.7620
 3899TIP3   OH235891   2.116   7.014   6.655  0.1725  0.4513  0.4633
 3899TIP3    H135892   2.141   6.933   6.611 -0.8629 -0.6147  1.7525
 3899TIP3    H235893   2.036   7.042   6.610  0.1108  0.3262  0.4924
 3900TIP3   OH235894   7.662   6.057   6.589 -0.1773 -0.0839  0.4085
 3900TIP3    H135895   7.567   6.072   6.588 -0.4181 -1.4446  0.8439
 3900TIP3    H235896   7.699   6.140   6.619 -1.3179  0.1239  1.2986
 3901TIP3   OH235897   3.908   1.013   8.465 -0.1727  0.6256  0.3184
 3901TIP3    H135898   3.844   1.081   8.445  0.3642  0.7532 -1.0979
 3901TIP3    H235899   3.987   1.061   8.490  0.1257  0.5319 -0.4190
 3902TIP3   OH235900   0.717   4.163   7.634 -0.2213 -0.2342  0.0008
 3902TIP3    H135901   0.751   4.216   7.706  0.3713  1.2902 -1.3392
 3902TIP3    H235902   0.623   4.163   7.646 -0.2150  0.9927  0.1416
 3903TIP3   OH235903   4.003   7.333   8.222 -0.1441 -0.2796  0.8307
 3903TIP3    H135904   4.025   7.333   8.129  0.2865  0.9829  0.9188
 3903TIP3    H235905   3.987   7.241   8.242  1.4165 -0.8027 -0.1108
 3904TIP3   OH235906   5.595   2.354   6.716 -0.4494 -0.0027  0.3062
 3904TIP3    H135907   5.668   2.381   6.772  0.4553 -0.6212 -0.5550
 3904TIP3    H235908   5.600   2.411   6.640 -1.4290  0.5557  0.6386
 3905TIP3   OH235909   1.781   5.592   7.484 -0.0395 -0.3710  0.0917
 3905TIP3    H135910   1.823   5.531   7.545  0.0665  1.5044  2.0328
 3905TIP3    H235911   1.838   5.592   7.407  0.7464 -1.6090  0.6416
 3906TIP3   OH235912   6.826   1.688   8.735  0.3308  0.7033 -0.1994
 3906TIP3    H135913   6.733   1.698   8.718  0.0174  0.2765  1.1794
 3906TIP3    H235914   6.845   1.598   8.711  0.7929  1.2400 -2.0849
 3907TIP3   OH235915   7.346   1.701   8.294 -0.4039  0.4685 -0.1877
 3907TIP3    H135916   7.293   1.631   8.256 -2.1085  1.9027 -0.5992
 3907TIP3    H235917   7.421   1.656   8.334 -0.9630 -1.4748 -1.2162
 3908TIP3   OH235918   1.538   6.943   8.011  0.3384 -0.8169 -0.4622
 3908TIP3    H135919   1.625   6.921   8.044  0.3559 -0.8675 -0.5424
 3908TIP3    H235920   1.533   7.038   8.017 -0.4412 -0.9236  1.6977
 3909TIP3   OH235921   3.428   0.935   9.066 -0.2232 -0.2282  0.0676
 3909TIP3    H135922   3.499   0.872   9.053 -0.2655 -0.5001  1.0206
 3909TIP3    H235923   3.349   0.889   9.037  0.0189  0.1832 -1.2743
 3910TIP3   OH235924   6.169   1.151   7.279  0.3199  0.3581 -0.3325
 3910TIP3    H135925   6.122   1.141   7.361 -0.3530 -0.6239 -0.8128
 3910TIP3    H235926   6.258   1.177   7.305  0.8412 -2.2883  0.8861
 3911TIP3   OH235927   0.471   6.853   8.760 -0.0132 -0.9449  0.7458
 3911TIP3    H135928   0.405   6.917   8.734  0.7522 -0.4530 -0.0472
 3911TIP3    H235929   0.490   6.873   8.851 -0.0772 -0.2947  0.6223
 3912TIP3   OH235930   2.467   1.975   7.612  0.3280 -0.1526 -0.3376
 3912TIP3    H135931   2.526   1.920   7.664  1.1908  1.1312  0.0925
 3912TIP3    H235932   2.484   1.950   7.521  0.9639 -0.3438 -0.1684
 3913TIP3   OH235933   5.138   6.437   7.909  0.3545 -0.6501  0.4014
 3913TIP3    H135934   5.134   6.523   7.951 -0.2813 -0.1105 -0.7174
 3913TIP3    H235935   5.124   6.374   7.980  1.0489  0.1570  1.2649
 3914TIP3   OH235936   6.189   5.598   6.944 -0.4391 -0.3687 -0.4503
 3914TIP3    H135937   6.278   5.564   6.945 -0.2625  0.0404 -1.3276
 3914TIP3    H235938   6.140   5.539   7.001  0.8159  0.6652  1.8500
 3915TIP3   OH235939   3.154   5.930   8.344 -0.0566  0.3634  0.1995
 3915TIP3    H135940   3.158   6.005   8.403 -0.8423  1.6863 -1.3748
 3915TIP3    H235941   3.245   5.902   8.335  0.2929  1.3732  0.4797
 3916TIP3   OH235942   0.292   0.764   8.007 -0.9536 -0.6152 -0.1718
 3916TIP3    H135943   0.336   0.690   8.048 -0.2814 -2.1088 -3.2912
 3916TIP3    H235944   0.222   0.725   7.955 -0.8574  0.9482 -1.5567
 3917TIP3   OH235945   7.024   6.643   8.924  0.2151  0.2363  0.3817
 3917TIP3    H135946   7.010   6.565   8.978  1.8841  0.5647  1.3583
 3917TIP3    H235947   7.078   6.612   8.851  0.3232  0.3325  0.4195
 3918TIP3   OH235948   1.935   1.889   7.829 -0.0590  0.4700  0.4910
 3918TIP3    H135949   1.858   1.945   7.816 -1.5304 -1.5774 -0.1122
 3918TIP3    H235950   1.926   1.857   7.919 -0.4947 -0.5807  0.0820
 3919TIP3   OH235951   0.131   5.828   7.440 -0.0163  0.1389  0.6984
 3919TIP3    H135952   0.183   5.863   7.512  1.4943  0.7810 -0.6318
 3919TIP3    H235953   0.142   5.893   7.370 -0.0414 -1.2703 -0.6592
 3920TIP3   OH235954   1.556   7.508   8.641  0.2177  0.0343 -1.2045
 3920TIP3    H135955   1.546   7.603   8.635  1.7323  0.7762  3.5494
 3920TIP3    H235956   1.487   7.480   8.702  1.8075 -1.2912  0.0873
 3921TIP3   OH235957   7.137   3.200   9.018  0.4144  0.2309  0.0074
 3921TIP3    H135958   7.150   3.119   8.968 -2.5578 -1.4108  1.5885
 3921TIP3    H235959   7.072   3.249   8.968 -0.5415 -0.1517  0.8336
 3922TIP3   OH235960   2.654   4.178   7.636 -0.6749 -0.3613  0.2277
 3922TIP3    H135961   2.645   4.247   7.702  2.9683  0.0232  0.5418
 3922TIP3    H235962   2.747   4.153   7.641 -0.8153 -2.0184 -3.1164
 3923TIP3   OH235963   4.236   3.236   8.170 -0.1973  0.2056 -0.1526
 3923TIP3    H135964   4.229   3.331   8.182  0.9596  0.1201  1.4782
 3923TIP3    H235965   4.190   3.199   8.245 -0.0983 -0.5171 -0.4395
 3924TIP3   OH235966   0.128   3.809   7.532  0.2011  0.1058 -0.1445
 3924TIP3    H135967   0.039   3.784   7.556  0.9047 -1.0432  1.4385
 3924TIP3    H235968   0.133   3.903   7.552 -0.7497  0.2521 -0.5815
 3925TIP3   OH235969   4.745   7.048   9.271  0.0726 -0.4329  0.0345
 3925TIP3    H135970   4.724   6.954   9.278  0.3238 -0.5231 -0.4154
 3925TIP3    H235971   4.838   7.050   9.249  0.6428 -0.0320  2.2013
 3926TIP3   OH235972   5.128   6.338   7.275 -0.4463 -0.0355 -0.5758
 3926TIP3    H135973   5.109   6.324   7.367 -2.4641  0.9759 -0.7817
 3926TIP3    H235974   5.085   6.421   7.254 -0.9159 -0.7527 -2.6773
 3927TIP3   OH235975   4.174   5.432   8.796 -0.3369 -0.4083 -0.0202
 3927TIP3    H135976   4.096   5.446   8.849 -0.6057 -0.0254 -0.5144
 3927TIP3    H235977   4.221   5.361   8.841  0.4587  1.2280  1.8569
 3928TIP3   OH235978   0.086   0.824   6.734  0.5391  0.9067 -0.0463
 3928TIP3    H135979   0.181   0.832   6.723  0.4904 -0.4458 -1.9025
 3928TIP3    H235980   0.076   0.768   6.811  1.3066  0.1476 -0.4723
 3929TIP3   OH235981   5.296   6.877   9.275 -0.5193  0.1836 -0.8287
 3929TIP3    H135982   5.356   6.944   9.241 -1.2089  0.9458 -0.5744
 3929TIP3    H235983   5.354   6.809   9.311  0.2273 -0.2665 -2.7510
 3930TIP3   OH235984   0.574   3.279   8.253 -0.0688 -0.4649 -0.6132
 3930TIP3    H135985   0.531   3.304   8.172 -0.7776  0.5616  0.0513
 3930TIP3    H235986   0.532   3.332   8.320  0.1872 -1.6039  0.5025
 3931TIP3   OH235987   1.484   1.843   7.950  0.2720  0.0653  0.2440
 3931TIP3    H135988   1.457   1.920   7.901 -0.3110  0.6559  1.4464
 3931TIP3    H235989   1.402   1.799   7.974  0.6046 -1.1951 -0.8064
 3932TIP3   OH235990   1.329   5.384   7.399  0.6920  0.2272 -0.6984
 3932TIP3    H135991   1.374   5.316   7.349  0.7084 -1.3550  1.3508
 3932TIP3    H235992   1.397   5.422   7.455  0.3059  0.6396 -0.5014
 3933TIP3   OH235993   3.172   0.533   8.761  0.3863  0.9955 -0.0270
 3933TIP3    H135994   3.100   0.546   8.822  0.4368 -0.6252  0.4131
 3933TIP3    H235995   3.141   0.571   8.679 -1.3324 -0.4458 -0.0808
 3934TIP3   OH235996   5.530   5.416   8.515 -0.1665  0.3453 -0.3809
 3934TIP3    H135997   5.446   5.463   8.515 -0.9259 -0.9455 -1.4685
 3934TIP3    H235998   5.530   5.366   8.434  0.2012 -2.1800  1.0632
 3935TIP3   OH235999   3.726   3.224   8.400  0.4575  0.3543 -0.0030
 3935TIP3    H136000   3.758   3.272   8.324  0.4819  0.3845  0.0264
 3935TIP3    H236001   3.767   3.138   8.393 -0.6465 -0.1344 -0.7956
 3936TIP3   OH236002   4.543   5.350   7.414 -0.6333  0.4765 -0.0409
 3936TIP3    H136003   4.514   5.374   7.502  0.0117 -0.6120  0.4912
 3936TIP3    H236004   4.492   5.273   7.392 -0.6482  0.6269 -0.5420
 3937TIP3   OH236005   4.823   4.204   7.579  0.1654  0.0764  0.3942
 3937TIP3    H136006   4.835   4.136   7.645 -0.2751 -0.0575  0.3404
 3937TIP3    H236007   4.878   4.277   7.608 -0.6809  0.3564  1.3820
 3938TIP3   OH236008   5.611   5.155   7.336 -0.6275  0.5162 -0.2525
 3938TIP3    H136009   5.669   5.107   7.277 -2.6563 -2.7425  0.1783
 3938TIP3    H236010   5.671   5.202   7.395  1.4833  0.0464 -1.9050
 3939TIP3   OH236011   1.899   6.733   8.714 -0.0413  0.0336 -0.2711
 3939TIP3    H136012   1.809   6.728   8.683  0.6122 -0.2692 -2.2057
 3939TIP3    H236013   1.923   6.642   8.732 -0.1912  0.1419  0.5381
 3940TIP3   OH236014   4.131   2.925   7.957  0.2725 -0.0796  0.6518
 3940TIP3    H136015   4.220   2.955   7.937 -0.4669  1.2581 -0.9376
 3940TIP3    H236016   4.098   2.892   7.873 -0.5377 -1.1436  1.3601
 3941TIP3   OH236017   3.960   5.489   8.976  0.6215 -0.3319 -0.4819
 3941TIP3    H136018   3.889   5.424   8.981  0.3917 -0.1183 -0.8999
 3941TIP3    H236019   3.995   5.493   9.064  0.2506 -0.5982 -0.3185
 3942TIP3   OH236020   5.629   1.728   7.425  0.4067  0.5211 -0.5585
 3942TIP3    H136021   5.563   1.662   7.401  1.0188 -0.5192  0.5385
 3942TIP3    H236022   5.582   1.811   7.421 -0.4146  0.0351 -1.8822
 3943TIP3   OH236023   3.074   3.491   8.401 -0.7100  1.1869  0.0115
 3943TIP3    H136024   3.140   3.482   8.469  0.0211  1.3388 -0.6567
 3943TIP3    H236025   3.113   3.552   8.338 -1.0480  0.4686 -0.9163
 3944TIP3   OH236026   5.836   4.121   8.284 -0.4594 -0.0314 -0.2498
 3944TIP3    H136027   5.845   4.116   8.379  0.5981  0.4313 -0.3162
 3944TIP3    H236028   5.758   4.068   8.265 -0.5867 -0.2696  0.8499
 3945TIP3   OH236029   7.275   2.782   7.927  0.0344  0.5873 -0.2554
 3945TIP3    H136030   7.229   2.811   7.848  0.9523  2.2732 -0.2094
 3945TIP3    H236031   7.348   2.730   7.895 -1.0944 -1.0279 -0.3694
 3946TIP3   OH236032   3.893   0.200   8.507  0.2581 -0.4566 -0.1422
 3946TIP3    H136033   3.965   0.149   8.545 -1.2714 -2.0984  0.6972
 3946TIP3    H236034   3.936   0.263   8.449  2.4658 -0.2926  1.5413
 3947TIP3   OH236035   5.232   0.856   6.889  0.2637 -0.2584 -0.0346
 3947TIP3    H136036   5.169   0.786   6.910  0.0512 -0.7652 -2.0765
 3947TIP3    H236037   5.318   0.815   6.899  0.1674 -0.5169 -0.2498
 3948TIP3   OH236038   3.115   2.235   8.490  0.1235 -0.2308 -0.5413
 3948TIP3    H136039   3.092   2.271   8.576 -1.1833 -2.7420  0.2656
 3948TIP3    H236040   3.125   2.141   8.505 -0.0748 -0.7490 -3.1243
 3949TIP3   OH236041   0.236   4.003   7.276 -0.7179 -0.0155  0.3983
 3949TIP3    H136042   0.179   4.024   7.202  2.5153 -2.1241 -3.0374
 3949TIP3    H236043   0.243   4.085   7.325 -2.8007  1.6189 -1.8088
 3950TIP3   OH236044   6.602   0.906   6.686 -0.0727 -0.0247  0.4076
 3950TIP3    H136045   6.685   0.871   6.719  0.5337  0.2747 -0.7652
 3950TIP3    H236046   6.550   0.828   6.666  0.6745 -0.2611 -0.6954
 3951TIP3   OH236047   1.902   6.250   7.611  0.1449 -0.6423 -0.3231
 3951TIP3    H136048   1.858   6.290   7.686 -0.4998  1.0627 -1.5408
 3951TIP3    H236049   1.832   6.204   7.564 -0.2386  1.1860 -1.6849
 3952TIP3   OH236050   5.932   0.298   7.880  0.0212 -0.0828  0.1887
 3952TIP3    H136051   5.846   0.337   7.866 -0.2713 -0.9639 -0.5292
 3952TIP3    H236052   5.937   0.226   7.817  1.9277  0.9546 -0.9275
 3953TIP3   OH236053   5.816   3.307   9.388 -0.2182 -0.7435  0.1937
 3953TIP3    H136054   5.887   3.371   9.393 -1.4813  0.6555  0.8547
 3953TIP3    H236055   5.860   3.224   9.371  1.4021  0.4090 -1.6458
 3954TIP3   OH236056   4.177   2.705   8.143  0.2420  0.2799 -1.1856
 3954TIP3    H136057   4.189   2.784   8.090  1.2683  0.1514 -1.1704
 3954TIP3    H236058   4.165   2.635   8.080  0.2052  0.3179 -1.2211
 3955TIP3   OH236059   4.973   0.944   7.774 -0.2037 -0.6731  0.4363
 3955TIP3    H136060   4.988   0.988   7.690 -0.3316 -1.2544  0.0995
 3955TIP3    H236061   4.955   1.015   7.835  3.4897  0.1385  0.8340
 3956TIP3   OH236062   2.629   2.352   6.684 -0.4320 -0.2003 -0.0943
 3956TIP3    H136063   2.562   2.405   6.725  0.2638 -0.1845  1.0761
 3956TIP3    H236064   2.581   2.281   6.642 -1.2065  0.0643  0.3198
 3957TIP3   OH236065   4.550   0.042   7.726  0.2441 -0.4177  0.3071
 3957TIP3    H136066   4.494   0.036   7.803  0.6105  1.5072  0.7936
 3957TIP3    H236067   4.498   0.092   7.662 -0.2183 -2.3423 -0.8989
 3958TIP3   OH236068   7.584   4.974   7.468 -0.6585 -0.1656 -0.7961
 3958TIP3    H136069   7.608   4.888   7.504 -1.6504  0.2437  0.9492
 3958TIP3    H236070   7.591   4.963   7.374  0.1479 -1.8921 -0.5759
 3959TIP3   OH236071   1.437   4.776   7.396  0.1775  0.0313 -0.0738
 3959TIP3    H136072   1.526   4.804   7.418  0.3041  0.1778 -0.7279
 3959TIP3    H236073   1.449   4.714   7.324 -0.3180  1.0584 -1.0691
 3960TIP3   OH236074   2.622   2.591   9.290  0.6640  0.4263  0.4507
 3960TIP3    H136075   2.601   2.498   9.283  1.1892  0.2219  1.4265
 3960TIP3    H236076   2.573   2.622   9.366 -1.3234  1.5065 -1.1738
 3961TIP3   OH236077   6.331   7.107   7.807  0.0430 -0.8537 -0.2372
 3961TIP3    H136078   6.333   7.157   7.889  0.0875 -1.2693  0.0160
 3961TIP3    H236079   6.398   7.148   7.753 -0.8674  0.2654 -0.5653
 3962TIP3   OH236080   3.252   6.919   9.654 -0.2403 -0.0062 -0.3778
 3962TIP3    H136081   3.281   6.859   9.586 -0.3940  0.7757 -1.1414
 3962TIP3    H236082   3.247   6.865   9.733 -1.1455 -1.1942 -1.2106
 3963TIP3   OH236083   0.465   3.736   7.178 -0.8210  0.0448 -0.5852
 3963TIP3    H136084   0.489   3.807   7.238 -1.8615  0.0253 -0.1097
 3963TIP3    H236085   0.497   3.656   7.222  0.2319  0.1997 -1.0567
 3964TIP3   OH236086   3.704   2.775   8.493 -0.2446 -0.0755 -0.1359
 3964TIP3    H136087   3.652   2.783   8.413  1.6618 -0.2144 -1.4592
 3964TIP3    H236088   3.771   2.710   8.472  1.5186  1.3268  0.8694
 3965TIP3   OH236089   4.951   1.795   7.427  0.3141 -0.4559 -0.1524
 3965TIP3    H136090   4.905   1.837   7.500  0.9208 -0.7793  0.4288
 3965TIP3    H236091   4.933   1.851   7.352 -1.4238 -0.8275 -0.0600
 3966TIP3   OH236092   6.201   4.492   7.603 -0.2701 -0.3782 -0.7908
 3966TIP3    H136093   6.291   4.474   7.630 -0.0580  1.4115 -0.1353
 3966TIP3    H236094   6.163   4.406   7.587  1.8825 -1.1486 -2.2278
 3967TIP3   OH236095   1.763   2.331   8.409  0.5068 -0.6323 -0.2782
 3967TIP3    H136096   1.830   2.392   8.378 -0.5374 -0.0470 -1.5477
 3967TIP3    H236097   1.741   2.279   8.332 -0.3543 -0.9277  0.1481
 3968TIP3   OH236098   3.081   5.646   9.326  0.1733  1.0089 -0.6220
 3968TIP3    H136099   3.012   5.600   9.373  2.0216  0.2396  1.5383
 3968TIP3    H236100   3.101   5.722   9.380  0.5475  1.6116 -1.5773
 3969TIP3   OH236101   3.553   0.108   7.566  0.1965  0.3973  0.6801
 3969TIP3    H136102   3.557   0.167   7.641 -1.1375  0.9097  0.3799
 3969TIP3    H236103   3.555   0.166   7.490  2.8483 -0.1714  0.2205
 3970TIP3   OH236104   3.703   2.341   8.863  0.0205  0.6021  0.2675
 3970TIP3    H136105   3.690   2.322   8.956  0.9477 -1.0359  0.0979
 3970TIP3    H236106   3.792   2.374   8.857  0.6326 -1.0451 -0.2370
 3971TIP3   OH236107   2.673   4.968   8.057 -0.1820  0.1270 -0.4348
 3971TIP3    H136108   2.615   5.044   8.068  0.5632  0.8218 -1.1206
 3971TIP3    H236109   2.760   5.003   8.073  0.2515 -0.3878 -1.5581
 3972TIP3   OH236110   7.488   3.827   7.244  0.1771  0.0126  0.0903
 3972TIP3    H136111   7.521   3.903   7.291 -1.2334  0.6143  0.1429
 3972TIP3    H236112   7.513   3.842   7.152 -2.5109  1.9983 -0.4206
 3973TIP3   OH236113   4.935   7.008   8.462 -0.3237 -0.3927 -0.1339
 3973TIP3    H136114   4.987   7.078   8.423 -0.7082  0.2563  0.4992
 3973TIP3    H236115   4.849   7.015   8.421 -0.2342 -0.7891 -0.3998
 3974TIP3   OH236116   2.365   4.756   9.264 -0.2768  0.6019 -1.0920
 3974TIP3    H136117   2.405   4.815   9.201  0.4130  1.2338 -0.0912
 3974TIP3    H236118   2.272   4.777   9.261  0.1260  3.0057  0.4488
 3975TIP3   OH236119   0.551   2.851   7.844 -0.4178 -0.6537  0.0963
 3975TIP3    H136120   0.605   2.921   7.809 -0.6500 -0.3996  0.2444
 3975TIP3    H236121   0.610   2.776   7.852  0.3491  0.0805  1.8642
 3976TIP3   OH236122   6.544   6.600   7.909 -0.4275  0.3285  0.0255
 3976TIP3    H136123   6.639   6.610   7.917 -0.1878 -2.3028  1.2572
 3976TIP3    H236124   6.508   6.674   7.959  0.9983  0.2629  1.2235
 3977TIP3   OH236125   5.403   0.632   7.510  0.3056  0.4138  0.3158
 3977TIP3    H136126   5.327   0.654   7.563 -0.1973  0.0667 -0.2520
 3977TIP3    H236127   5.473   0.619   7.574 -0.3141 -0.0950  0.9097
 3978TIP3   OH236128   7.417   4.150   9.003 -0.5464 -0.0032  0.6505
 3978TIP3    H136129   7.347   4.207   9.035 -0.0380  1.0866 -0.0888
 3978TIP3    H236130   7.427   4.083   9.071 -0.0929  1.7142  2.3884
 3979TIP3   OH236131   1.885   4.099   8.932 -0.1764 -0.3813  0.3743
 3979TIP3    H136132   1.869   4.186   8.893  0.1971 -0.1246  0.7931
 3979TIP3    H236133   1.898   4.117   9.025  2.5339 -0.5797  0.0868
 3980TIP3   OH236134   6.595   7.205   7.325  0.1831 -0.2928 -0.1124
 3980TIP3    H136135   6.660   7.137   7.343  0.4349 -0.0489 -0.0944
 3980TIP3    H236136   6.512   7.157   7.315  0.3294 -0.5843  0.0632
 3981TIP3   OH236137   0.212   2.827   6.694 -0.9624 -0.1225  0.1488
 3981TIP3    H136138   0.273   2.753   6.687 -0.2148  0.6161 -2.7415
 3981TIP3    H236139   0.133   2.798   6.648 -1.8724 -0.1466  1.6442
 3982TIP3   OH236140   5.877   2.138   8.643 -0.1041  0.2606  0.5005
 3982TIP3    H136141   5.912   2.049   8.630 -1.8277 -0.4702  0.5391
 3982TIP3    H236142   5.897   2.159   8.734  0.5899  0.0405  0.4016
 3983TIP3   OH236143   0.699   6.564   6.765  0.7376 -0.3795 -0.1729
 3983TIP3    H136144   0.714   6.643   6.817  0.7977  1.0960 -2.2883
 3983TIP3    H236145   0.604   6.562   6.752  0.8247 -0.0959 -0.9069
 3984TIP3   OH236146   3.261   3.807   9.119  0.5016 -0.2470 -0.0046
 3984TIP3    H136147   3.186   3.784   9.175  0.3256  0.5938  0.1186
 3984TIP3    H236148   3.229   3.795   9.030  0.1324  0.3336  0.0425
 3985TIP3   OH236149   7.250   5.299   9.566 -0.3660  0.1194  0.7248
 3985TIP3    H136150   7.337   5.260   9.574 -0.9438 -1.3261  0.3263
 3985TIP3    H236151   7.193   5.240   9.616 -1.0935  1.1543  1.1350
 3986TIP3   OH236152   2.263   4.491   8.468  0.0431 -0.2219  0.4976
 3986TIP3    H136153   2.335   4.430   8.486 -0.0952 -0.8773 -0.9966
 3986TIP3    H236154   2.227   4.512   8.554  0.5744 -1.6691  1.1076
 3987TIP3   OH236155   2.850   2.603   6.932  0.3187  0.7700  0.9177
 3987TIP3    H136156   2.922   2.568   6.878 -1.6407  0.3114 -1.6036
 3987TIP3    H236157   2.797   2.526   6.953 -1.0812  1.4602  0.0297
 3988TIP3   OH236158   2.562   0.349   7.039 -0.1846  0.1459  0.0078
 3988TIP3    H136159   2.472   0.363   7.009 -0.3935 -1.3975 -0.1727
 3988TIP3    H236160   2.587   0.433   7.078 -1.6575  0.6461 -0.0374
 3989TIP3   OH236161   5.011   4.412   7.617 -0.2665  0.5842  0.0875
 3989TIP3    H136162   5.104   4.388   7.623 -0.1319  0.6298 -1.4872
 3989TIP3    H236163   4.999   4.477   7.687  0.8367  0.4157  0.4517
 3990TIP3   OH236164   5.933   2.407   9.257 -0.3963 -0.2329 -0.1369
 3990TIP3    H136165   5.950   2.318   9.228 -1.0287 -0.5106  0.3289
 3990TIP3    H236166   5.902   2.453   9.179  0.6651 -0.2037 -0.5650
 3991TIP3   OH236167   5.014   6.000   8.028 -0.1731 -0.2980  0.6442
 3991TIP3    H136168   4.952   5.991   7.956  0.9537  0.6149 -0.4973
 3991TIP3    H236169   4.993   5.928   8.087 -1.8519 -0.4174 -0.0269
 3992TIP3   OH236170   3.935   3.308   8.646  0.9795  0.0260  0.6177
 3992TIP3    H136171   3.846   3.273   8.643  0.8531  0.2780 -2.9981
 3992TIP3    H236172   3.987   3.239   8.687 -0.4021 -1.4298  0.0265
 3993TIP3   OH236173   3.732   0.973   7.564  0.8804 -0.3043  0.0351
 3993TIP3    H136174   3.766   1.060   7.586  0.2982 -0.6310  2.5312
 3993TIP3    H236175   3.651   0.990   7.516  0.8063  0.5582  0.4426
 3994TIP3   OH236176   4.784   1.933   8.475 -0.0422  0.0217 -0.4830
 3994TIP3    H136177   4.689   1.923   8.465 -0.2428 -1.1293  1.8748
 3994TIP3    H236178   4.821   1.889   8.398 -1.3885  0.3292 -1.3502
 3995TIP3   OH236179   4.848   0.621   7.193 -0.3873 -0.5994  0.0175
 3995TIP3    H136180   4.903   0.667   7.256 -0.3277 -0.6584  0.0085
 3995TIP3    H236181   4.886   0.533   7.187 -0.6878 -0.7460  0.2681
 3996TIP3   OH236182   7.071   4.956   8.298  0.3798  0.0121 -0.1474
 3996TIP3    H136183   6.982   4.974   8.328  0.2531 -0.5056 -0.2088
 3996TIP3    H236184   7.117   4.924   8.376  0.4122 -0.0679 -0.1992
 3997TIP3   OH236185   6.518   4.495   7.944 -0.1156 -0.1599  0.4346
 3997TIP3    H136186   6.612   4.509   7.928  0.1890 -1.2128  1.2248
 3997TIP3    H236187   6.477   4.577   7.915  1.0641  0.3991  0.2711
 3998TIP3   OH236188   7.144   7.040   7.936  0.4065  0.2304  0.2536
 3998TIP3    H136189   7.121   7.081   8.019  0.3559 -2.1887  1.5240
 3998TIP3    H236190   7.088   6.962   7.931  2.4895 -1.3122 -0.5523
 3999TIP3   OH236191   3.873   4.702   8.668 -0.5678  0.2525  0.8265
 3999TIP3    H136192   3.782   4.676   8.652 -0.6513  0.8748  0.2883
 3999TIP3    H236193   3.913   4.624   8.708 -1.4760  0.1604  1.5909
 4000TIP3   OH236194   3.092   1.284   8.028  0.0411  0.1076  0.0704
 4000TIP3    H136195   3.141   1.340   8.088  1.3713  0.3476 -1.1983
 4000TIP3    H236196   3.105   1.195   8.061  1.1809  0.1884 -0.1407
 4001TIP3   OH236197   6.327   5.498   7.707  0.2050 -0.8115 -0.3936
 4001TIP3    H136198   6.332   5.495   7.612 -2.3463 -0.5602 -0.6051
 4001TIP3    H236199   6.234   5.514   7.726  0.8597  0.5927  2.1066
 4002TIP3   OH236200   2.178   3.427   8.860  0.8199  0.2871  0.7244
 4002TIP3    H136201   2.212   3.398   8.775  1.3353  1.3994  0.5397
 4002TIP3    H236202   2.203   3.357   8.920  0.7710 -0.3404  0.0323
 4003TIP3   OH236203   3.284   6.517   8.118 -0.0670  0.3492 -0.3681
 4003TIP3    H136204   3.342   6.506   8.043  1.2622 -0.8665  0.7843
 4003TIP3    H236205   3.205   6.467   8.095  0.7333 -0.8723 -0.5736
 4004TIP3   OH236206   5.772   3.780   8.514 -0.1205  1.0204 -0.3487
 4004TIP3    H136207   5.721   3.861   8.518 -0.1670  1.0244 -0.8967
 4004TIP3    H236208   5.863   3.809   8.513 -0.0136  0.9631  2.1769
 4005TIP3   OH236209   2.446   3.133   7.910 -0.3166  0.8194  0.2536
 4005TIP3    H136210   2.374   3.196   7.909  0.6056  1.9130  0.7062
 4005TIP3    H236211   2.431   3.082   7.990 -1.9489 -0.6589 -0.9019
 4006TIP3   OH236212   5.084   3.547   9.018 -0.2506 -0.4740  0.5978
 4006TIP3    H136213   5.033   3.481   8.971  1.0472 -0.7673 -0.4672
 4006TIP3    H236214   5.018   3.599   9.065 -1.8027  0.5927 -2.4839
 4007TIP3   OH236215   1.321   0.390   9.002  0.2792  0.4746  0.0253
 4007TIP3    H136216   1.234   0.428   9.015  0.8620  1.3569  1.6707
 4007TIP3    H236217   1.362   0.445   8.935 -0.2249  0.3979 -0.3494
 4008TIP3   OH236218   6.307   7.223   8.407  0.4427  0.0276 -0.0097
 4008TIP3    H136219   6.264   7.291   8.355  1.2227  0.4914 -0.0625
 4008TIP3    H236220   6.401   7.239   8.395  0.6321 -0.4412  0.7806
 4009TIP3   OH236221   2.715   3.760   7.860  0.0174  0.1464 -0.5699
 4009TIP3    H136222   2.679   3.696   7.798  1.3298 -2.3823  1.0969
 4009TIP3    H236223   2.651   3.765   7.930  0.5562 -0.4737 -0.0194
 4010TIP3   OH236224   1.038   4.632   8.769  0.2754  0.8616  0.1344
 4010TIP3    H136225   0.962   4.603   8.719  1.3632  2.4116 -2.6610
 4010TIP3    H236226   1.027   4.727   8.775  2.3700  1.2505 -1.1684
 4011TIP3   OH236227   1.612   4.062   8.690  0.1774  0.0314 -0.0598
 4011TIP3    H136228   1.706   4.062   8.672  0.2247 -0.5390  0.1683
 4011TIP3    H236229   1.586   4.154   8.684  1.2219  0.5445  2.2905
 4012TIP3   OH236230   6.970   0.563   7.871  0.1252  0.2923 -0.7762
 4012TIP3    H136231   6.882   0.577   7.837  0.1531  1.1818 -0.5269
 4012TIP3    H236232   6.999   0.651   7.897  1.1000  0.0181 -0.9029
 4013TIP3   OH236233   4.881   7.363   7.132 -0.6646  0.1578  0.4900
 4013TIP3    H136234   4.923   7.293   7.083 -0.3532 -0.0259  1.0100
 4013TIP3    H236235   4.794   7.371   7.093 -1.5158 -1.9651  1.7504
 4014TIP3   OH236236   5.551   5.885   7.574  0.3624 -0.5302 -0.3847
 4014TIP3    H136237   5.509   5.870   7.658  0.6625 -2.2166 -0.4961
 4014TIP3    H236238   5.544   5.980   7.560 -0.6622 -0.3665  1.0035
 4015TIP3   OH236239   1.994   1.690   8.270  0.3757 -0.5786 -0.0382
 4015TIP3    H136240   1.977   1.625   8.339  2.0433 -1.6394 -0.5715
 4015TIP3    H236241   2.016   1.638   8.193  2.3474  0.6010 -0.3293
 4016TIP3   OH236242   4.196   4.561   7.910 -0.0335 -0.0692  0.0039
 4016TIP3    H136243   4.174   4.562   8.004 -0.4604  2.0346 -0.0600
 4016TIP3    H236244   4.290   4.547   7.908  0.3366  1.8604  0.9197
 4017TIP3   OH236245   1.716   3.285   7.522  0.1397 -0.0601 -0.3129
 4017TIP3    H136246   1.660   3.308   7.448 -1.4425 -2.1383  0.1405
 4017TIP3    H236247   1.668   3.314   7.599  0.7813  0.1762  0.0102
 4018TIP3   OH236248   0.985   0.364   7.088 -0.3184  0.4710  0.1202
 4018TIP3    H136249   0.994   0.366   6.993  0.8167  1.1478  0.2354
 4018TIP3    H236250   0.928   0.438   7.108 -0.3273  0.4970  0.0012
 4019TIP3   OH236251   2.655   4.400   7.879  0.5316 -0.6177  0.0181
 4019TIP3    H136252   2.719   4.450   7.829 -0.2251  0.2256 -0.1274
 4019TIP3    H236253   2.582   4.460   7.892  0.0803 -1.3136  0.8369
 4020TIP3   OH236254   0.209   5.383   6.920  0.0567  0.9265 -0.3462
 4020TIP3    H136255   0.261   5.455   6.954  1.4885 -0.9710  1.7714
 4020TIP3    H236256   0.260   5.347   6.847 -0.5274  1.8307 -1.2228
 4021TIP3   OH236257   4.895   3.245   7.201  0.2501  0.0629  0.3768
 4021TIP3    H136258   4.933   3.220   7.285  1.0952  1.8521  0.5606
 4021TIP3    H236259   4.936   3.328   7.179 -2.1378  1.1367 -0.3755
 4022TIP3   OH236260   7.567   0.747   8.567  0.4224 -0.6155 -0.3925
 4022TIP3    H136261   7.617   0.719   8.490 -0.2486 -1.3629 -0.5587
 4022TIP3    H236262   7.569   0.672   8.626  0.2647 -0.3239 -0.0108
 4023TIP3   OH236263   1.103   5.452   9.182  0.1373  0.5904  0.4483
 4023TIP3    H136264   1.129   5.542   9.162  0.1220  0.4473 -0.2606
 4023TIP3    H236265   1.019   5.441   9.138  0.6579 -0.1068 -0.3987
 4024TIP3   OH236266   5.697   3.593   8.284 -0.8352 -0.0782 -0.2161
 4024TIP3    H136267   5.609   3.562   8.307 -1.0601  1.2700  0.9072
 4024TIP3    H236268   5.728   3.637   8.363  0.7153 -0.2081 -0.7268
 4025TIP3   OH236269   3.629   2.594   9.320 -0.0527 -0.0330 -0.0206
 4025TIP3    H136270   3.566   2.602   9.392  1.2146 -0.0101  1.1166
 4025TIP3    H236271   3.649   2.684   9.296 -2.1066  0.0131 -1.9563
 4026TIP3   OH236272   6.163   5.846   7.313 -0.0067 -0.5678  0.0502
 4026TIP3    H136273   6.100   5.905   7.356  1.1559  0.5428  0.2911
 4026TIP3    H236274   6.114   5.765   7.298 -1.5108  0.2951  0.1503
 4027TIP3   OH236275   4.539   0.387   8.321  0.0658 -0.1674  0.0421
 4027TIP3    H136276   4.595   0.340   8.383  1.6416  1.0946 -0.3729
 4027TIP3    H236277   4.563   0.479   8.332 -0.9218  0.2597 -1.1757
 4028TIP3   OH236278   3.946   3.403   7.960 -0.0915  0.5479 -0.0927
 4028TIP3    H136279   3.947   3.397   7.865 -0.2117  1.8750 -0.2000
 4028TIP3    H236280   3.893   3.481   7.978  0.9969  1.0661  1.0116
 4029TIP3   OH236281   2.959   7.392   8.599  0.2422  0.6920  0.5311
 4029TIP3    H136282   2.875   7.382   8.643 -0.4072  1.6904 -0.4301
 4029TIP3    H236283   2.998   7.470   8.639  0.3726  0.6685  0.4533
 4030TIP3   OH236284   7.468   0.387   8.584 -0.7026 -0.6973  0.4064
 4030TIP3    H136285   7.434   0.357   8.500 -0.1062 -2.6998  0.8220
 4030TIP3    H236286   7.557   0.416   8.564 -0.9211 -0.1760  0.1765
 4031TIP3   OH236287   5.226   5.476   8.200 -0.3991 -0.1830  0.7112
 4031TIP3    H136288   5.205   5.544   8.136  0.3464 -0.4961  0.1178
 4031TIP3    H236289   5.164   5.405   8.181  1.9764 -1.7342 -2.0300
 4032TIP3   OH236290   4.405   6.185   7.814 -0.1484  0.2971 -0.0939
 4032TIP3    H136291   4.413   6.097   7.776 -1.1785 -0.6276  1.6759
 4032TIP3    H236292   4.379   6.169   7.905 -0.3177  2.4527  0.2836
 4033TIP3   OH236293   1.147   5.114   9.017 -0.4015 -0.2654  0.0529
 4033TIP3    H136294   1.060   5.124   9.055 -0.1805  0.0842  0.4847
 4033TIP3    H236295   1.132   5.106   8.923 -0.7944  1.8411 -0.1111
 4034TIP3   OH236296   5.339   0.959   8.557 -0.2204  0.1578 -0.5429
 4034TIP3    H136297   5.346   0.877   8.508 -0.1333  0.4077 -0.9508
 4034TIP3    H236298   5.245   0.975   8.566 -0.2448  0.7808 -1.7622
 4035TIP3   OH236299   1.569   6.223   8.717 -0.8114  0.1443 -0.4375
 4035TIP3    H136300   1.539   6.163   8.786 -1.1400  0.5030 -0.2588
 4035TIP3    H236301   1.553   6.310   8.754  0.5814  0.3528 -0.2934
 4036TIP3   OH236302   5.215   3.454   7.931 -0.6553  0.0491  0.5532
 4036TIP3    H136303   5.279   3.495   7.872  1.1933 -3.3766 -0.0950
 4036TIP3    H236304   5.143   3.428   7.874 -0.6114  0.0756  0.4852
 4037TIP3   OH236305   4.608   3.075   8.875 -0.1246  0.1587 -0.1627
 4037TIP3    H136306   4.595   3.166   8.900 -1.6265  0.1681 -0.9080
 4037TIP3    H236307   4.570   3.068   8.788 -0.5528 -1.3083  0.1132
 4038TIP3   OH236308   6.996   0.128   7.081 -0.0101 -0.0184  0.0534
 4038TIP3    H136309   6.982   0.200   7.020 -1.4576 -1.2584 -1.1587
 4038TIP3    H236310   6.943   0.150   7.158  1.3335  1.2471  0.6775
 4039TIP3   OH236311   0.949   0.105   7.175 -0.0348  0.3458  0.3436
 4039TIP3    H136312   0.964   0.197   7.155  0.6728  0.0828 -0.3858
 4039TIP3    H236313   1.035   0.064   7.169 -0.5184 -0.5857 -0.6056
 4040TIP3   OH236314   3.633   6.097   9.078 -0.3885 -0.3511  0.4554
 4040TIP3    H136315   3.635   6.189   9.053  1.0387 -0.4326  0.1767
 4040TIP3    H236316   3.572   6.093   9.151 -1.8373  0.5052 -0.6644
 4041TIP3   OH236317   4.505   3.836   9.087 -0.7406  0.2122  0.3770
 4041TIP3    H136318   4.487   3.832   8.993  1.1676 -0.6431  0.0147
 4041TIP3    H236319   4.576   3.899   9.095  0.6775 -1.3967  0.9569
 4042TIP3   OH236320   5.466   1.367   9.146  0.5436 -0.1425  0.0183
 4042TIP3    H136321   5.553   1.404   9.159  0.2626  0.2961  0.7661
 4042TIP3    H236322   5.419   1.434   9.096  0.3806  0.0153  0.3758
 4043TIP3   OH236323   1.985   3.977   8.041 -0.1481  0.7064 -0.4797
 4043TIP3    H136324   2.037   4.033   7.983 -0.1560  2.7136  1.3001
 4043TIP3    H236325   2.037   3.897   8.051  1.5294  1.7321 -0.5362
 4044TIP3   OH236326   1.205   4.124   7.236  0.1807  0.3991 -0.3226
 4044TIP3    H136327   1.140   4.073   7.284  1.6862 -0.4177  0.9384
 4044TIP3    H236328   1.238   4.187   7.300  0.4826  0.9563 -1.0083
 4045TIP3   OH236329   2.017   3.278   9.225  0.0773  0.0527  0.0733
 4045TIP3    H136330   2.003   3.371   9.240  1.7174  0.1937  1.0016
 4045TIP3    H236331   2.111   3.266   9.238 -0.0301 -1.6556 -0.5033
 4046TIP3   OH236332   2.690   1.531   7.898 -0.4791 -0.0203  0.2102
 4046TIP3    H136333   2.765   1.507   7.844  0.6362 -0.9254  2.0532
 4046TIP3    H236334   2.725   1.535   7.987 -2.7897 -1.4454  1.2785
 4047TIP3   OH236335   2.678   0.636   7.963  0.0121 -0.2661 -0.0597
 4047TIP3    H136336   2.693   0.557   8.014  1.0527 -0.1256 -0.1226
 4047TIP3    H236337   2.677   0.707   8.028 -4.0763 -0.5606  0.4236
 4048TIP3   OH236338   3.518   4.440   7.952 -0.0658  0.4210 -0.7365
 4048TIP3    H136339   3.506   4.346   7.967  1.5073  0.1661 -0.9168
 4048TIP3    H236340   3.529   4.477   8.040 -1.6538  0.6054 -0.5942
 4049TIP3   OH236341   0.839   4.815   8.715 -0.3395  0.0351 -0.1411
 4049TIP3    H136342   0.870   4.899   8.682  1.0948  0.0474  1.1740
 4049TIP3    H236343   0.754   4.803   8.672  0.4896  1.0156 -2.1946
 4050TIP3   OH236344   2.081   1.975   6.545 -0.5739 -0.1605  0.5414
 4050TIP3    H136345   2.119   2.062   6.555 -1.3350  0.6880 -2.7758
 4050TIP3    H236346   1.988   1.991   6.525 -0.8251 -1.7401  0.2996
 4051TIP3   OH236347   0.646   0.835   7.672  0.5024  0.2681 -0.6000
 4051TIP3    H136348   0.713   0.852   7.606 -0.8304  0.0108 -2.0727
 4051TIP3    H236349   0.587   0.772   7.632 -0.3358  0.0664  0.8628
 4052TIP3   OH236350   1.876   4.813   8.874  0.3177  0.1378  0.4582
 4052TIP3    H136351   1.854   4.886   8.932  2.4929  0.2054  1.2967
 4052TIP3    H236352   1.832   4.834   8.792  0.5242  2.1788  0.8017
 4053TIP3   OH236353   0.027   4.818   6.975 -0.0201  0.1117 -0.7744
 4053TIP3    H136354  -0.033   4.786   6.907 -0.8556 -2.8029  1.1249
 4053TIP3    H236355   0.108   4.839   6.928 -0.6962 -1.3770 -2.7417
 4054TIP3   OH236356   6.785   3.790   8.303 -0.1443 -0.0558  0.3238
 4054TIP3    H136357   6.794   3.882   8.280 -0.4274  0.1130  0.8918
 4054TIP3    H236358   6.732   3.752   8.233 -1.8450  0.6624  1.1846
 4055TIP3   OH236359   2.431   0.475   8.959  0.6297  0.2620 -0.6340
 4055TIP3    H136360   2.461   0.500   9.046 -1.2671 -0.0817  0.1661
 4055TIP3    H236361   2.388   0.554   8.925  1.9955  0.6279 -1.5983
 4056TIP3   OH236362   5.364   0.360   8.280  0.2480  0.0092  0.0217
 4056TIP3    H136363   5.426   0.295   8.247  2.1045  2.0301 -0.6491
 4056TIP3    H236364   5.335   0.325   8.364  1.4629 -1.4983 -0.1502
 4057TIP3   OH236365   2.224   5.397   7.880 -0.4982  0.7116  0.1565
 4057TIP3    H136366   2.183   5.341   7.945  0.2633 -2.3442 -1.7923
 4057TIP3    H236367   2.318   5.382   7.890 -0.2442  1.8019 -0.3418
 4058TIP3   OH236368   5.131   5.619   7.086  0.3963 -0.3242  0.1522
 4058TIP3    H136369   5.051   5.568   7.077  0.2788 -0.1876  0.4092
 4058TIP3    H236370   5.140   5.665   7.002 -0.7838  1.0721  0.7545
 4059TIP3   OH236371   5.749   5.239   9.349 -0.5932 -0.3094 -0.3997
 4059TIP3    H136372   5.695   5.309   9.385  1.3936  0.8868  0.4212
 4059TIP3    H236373   5.807   5.214   9.422  0.6907 -0.7377 -1.5261
 4060TIP3   OH236374   0.177   4.629   7.152 -0.0205  0.0273 -0.0952
 4060TIP3    H136375   0.170   4.587   7.066 -0.5179  1.1710 -0.6387
 4060TIP3    H236376   0.196   4.721   7.132 -1.1718  0.5269  0.9706
 4061TIP3   OH236377   1.726   0.875   8.165  0.4435 -0.3046 -0.0621
 4061TIP3    H136378   1.765   0.931   8.231  0.4138  1.1937 -1.2724
 4061TIP3    H236379   1.632   0.894   8.170  0.2780 -1.1684  0.3373
 4062TIP3   OH236380   6.066   0.903   8.694 -0.0779  0.1655 -0.7194
 4062TIP3    H136381   6.148   0.951   8.699 -0.4292  0.9712 -2.2091
 4062TIP3    H236382   6.073   0.850   8.614 -0.9976  0.2463 -0.8629
 4063TIP3   OH236383   4.710   5.749   6.924  0.2401  0.1630  0.5726
 4063TIP3    H136384   4.626   5.706   6.942 -0.7067  0.6611 -2.0843
 4063TIP3    H236385   4.771   5.677   6.912 -0.7053 -0.4169 -1.1145
 4064TIP3   OH236386   1.654   3.012   9.254  0.4639 -0.2152 -0.1932
 4064TIP3    H136387   1.667   3.106   9.245  1.2473  0.0393  2.6753
 4064TIP3    H236388   1.740   2.978   9.277 -0.2914 -1.2192  1.3245
 4065TIP3   OH236389   7.391   6.384   9.117 -0.1108  0.0503  0.1365
 4065TIP3    H136390   7.423   6.474   9.126  2.8205 -0.7294 -1.2908
 4065TIP3    H236391   7.398   6.365   9.023  1.9764 -2.4601  0.6810
 4066TIP3   OH236392   5.591   2.107   8.700  0.6986  0.3282  0.2103
 4066TIP3    H136393   5.561   2.194   8.725 -0.2616 -0.5441  2.2997
 4066TIP3    H236394   5.681   2.120   8.670  0.7888  1.9526  1.0797
 4067TIP3   OH236395   6.207   0.456   6.621  0.1444  0.6878  0.2810
 4067TIP3    H136396   6.124   0.436   6.577  1.5288 -1.0428 -1.7533
 4067TIP3    H236397   6.229   0.376   6.669  0.6642  1.1241  0.7913
 4068TIP3   OH236398   2.563   3.824   8.094  0.3572 -0.0137 -0.1179
 4068TIP3    H136399   2.530   3.810   8.183 -0.1795  0.8973 -0.1579
 4068TIP3    H236400   2.623   3.897   8.102  0.7154 -0.2699 -0.4252
 4069TIP3   OH236401   3.676   6.962   8.192  0.2180  0.6820 -0.2676
 4069TIP3    H136402   3.670   6.872   8.161 -0.2581 -0.1116  1.9342
 4069TIP3    H236403   3.634   7.014   8.124 -0.4680 -0.8811 -1.0866
 4070TIP3   OH236404   5.547   2.447   9.046  0.1421 -0.0573  0.1980
 4070TIP3    H136405   5.581   2.536   9.038 -0.4805  0.0639 -1.3915
 4070TIP3    H236406   5.453   2.458   9.054 -0.0193 -0.5958 -0.8441
 4071TIP3   OH236407   4.845   5.945   7.838  0.5730 -0.0066  0.2299
 4071TIP3    H136408   4.869   5.883   7.770  1.8417 -0.2080  0.8317
 4071TIP3    H236409   4.755   5.922   7.861 -0.3906  0.9222 -2.2760
 4072TIP3   OH236410   2.700   6.403   7.187 -0.0978 -0.0541 -0.9929
 4072TIP3    H136411   2.690   6.488   7.144 -3.1444 -0.2458 -0.8529
 4072TIP3    H236412   2.771   6.360   7.139  1.1736  2.3065 -1.3994
 4073TIP3   OH236413   7.230   7.339   7.562 -0.3704 -0.2820 -0.0139
 4073TIP3    H136414   7.270   7.273   7.618 -1.5670 -0.3387  0.7948
 4073TIP3    H236415   7.173   7.390   7.620 -0.5758  0.5472 -0.9041
 4074TIP3   OH236416   3.122   7.229   7.396  0.1058 -0.0138 -0.1652
 4074TIP3    H136417   3.123   7.324   7.389  0.5647  0.1132  1.2077
 4074TIP3    H236418   3.210   7.207   7.428 -0.5146 -0.7221  1.1464
 4075TIP3   OH236419   5.401   4.709   9.403 -0.0171 -0.2126 -0.5448
 4075TIP3    H136420   5.466   4.645   9.432 -0.3962  0.0911  1.0588
 4075TIP3    H236421   5.453   4.776   9.358  0.8864  0.3211  1.2047
 4076TIP3   OH236422   7.251   0.857   9.210  0.0951  0.1188  0.2010
 4076TIP3    H136423   7.283   0.896   9.291  0.0982  1.4919 -0.4277
 4076TIP3    H236424   7.191   0.923   9.174 -0.4466 -0.7674 -0.5550
 4077TIP3   OH236425   5.386   2.170   9.071  0.6852 -0.5093  0.1890
 4077TIP3    H136426   5.357   2.254   9.035  0.8517 -0.5429 -0.0251
 4077TIP3    H236427   5.320   2.107   9.041  0.9711 -0.5855 -0.2971
 4078TIP3   OH236428   1.803   0.056   7.603  0.0152  0.6049  0.1743
 4078TIP3    H136429   1.856   0.049   7.682  0.4397 -0.0425 -0.1531
 4078TIP3    H236430   1.747  -0.022   7.604 -0.2195  0.7699  0.0155
 4079TIP3   OH236431   0.632   7.490   8.155 -0.5034 -0.5837  0.3908
 4079TIP3    H136432   0.568   7.494   8.226 -0.4774 -0.5498  0.4123
 4079TIP3    H236433   0.593   7.432   8.090 -0.3544 -0.9320  0.6081
 4080TIP3   OH236434   3.736   7.513   7.687  1.1807  0.4759  0.2458
 4080TIP3    H136435   3.657   7.566   7.694  1.5790  1.0882  0.1861
 4080TIP3    H236436   3.805   7.575   7.665  1.6951 -0.0408  0.3657
 4081TIP3   OH236437   5.009   0.122   7.148 -0.1553  0.5066 -0.3779
 4081TIP3    H136438   5.074   0.155   7.086 -1.1177  0.1798 -1.6029
 4081TIP3    H236439   4.928   0.119   7.098 -1.2062  1.2131  1.2019
 4082TIP3   OH236440   5.196   0.588   8.237  0.0903 -0.0559 -0.4971
 4082TIP3    H136441   5.148   0.507   8.257 -1.5904  0.7937 -0.9142
 4082TIP3    H236442   5.181   0.603   8.144  0.8352  0.4764 -0.5471
 4083TIP3   OH236443   4.060   4.140   7.366 -0.0746 -0.4678 -0.5017
 4083TIP3    H136444   4.030   4.059   7.407 -0.3650 -0.8531 -1.4301
 4083TIP3    H236445   3.979   4.182   7.335  0.1078 -0.0359 -0.3885
 4084TIP3   OH236446   0.469   6.920   9.032  0.4417 -0.3452 -0.2845
 4084TIP3    H136447   0.502   6.840   9.074  0.2536 -0.6330 -0.6837
 4084TIP3    H236448   0.544   6.978   9.029  0.7185 -0.7088 -0.4759
 4085TIP3   OH236449   0.962   6.817   8.340  0.0722 -0.3567 -0.1577
 4085TIP3    H136450   0.882   6.869   8.328 -0.5646 -1.3568 -0.3903
 4085TIP3    H236451   0.947   6.738   8.287  0.6186 -1.1993  0.9064
 4086TIP3   OH236452   3.483   6.813   6.890 -0.1519  0.1412 -0.2874
 4086TIP3    H136453   3.441   6.804   6.805  0.0522  0.3027 -0.4055
 4086TIP3    H236454   3.569   6.772   6.878  0.6024  1.7782 -0.6900
 4087TIP3   OH236455   2.941   5.929   8.000 -0.3719 -0.3250  0.3926
 4087TIP3    H136456   2.981   5.860   8.054  1.5793  0.4012 -0.0192
 4087TIP3    H236457   2.950   5.897   7.910  3.2151  1.5285 -0.1052
 4088TIP3   OH236458   5.789   2.340   8.978 -0.2813 -0.1564  0.5973
 4088TIP3    H136459   5.695   2.344   8.998  0.0897  1.4915  2.2863
 4088TIP3    H236460   5.812   2.431   8.957  0.7225 -0.7539 -1.1008
 4089TIP3   OH236461   4.534   7.253   8.732  0.6024 -0.3791 -0.2630
 4089TIP3    H136462   4.485   7.330   8.703  1.7981  1.3689  2.0081
 4089TIP3    H236463   4.475   7.208   8.793  1.3327  1.1503  1.6680
 4090TIP3   OH236464   5.235   2.068   7.403 -0.2595 -0.3853  0.7370
 4090TIP3    H136465   5.217   2.154   7.365 -1.2907 -0.2244  1.5495
 4090TIP3    H236466   5.249   2.011   7.327  2.1376  0.7927  0.1847
 4091TIP3   OH236467   4.248   3.964   8.560  0.2917  0.2986  0.3494
 4091TIP3    H136468   4.290   4.022   8.623 -0.4361  0.5066  0.6593
 4091TIP3    H236469   4.214   4.022   8.492  0.9007  0.0921 -0.1363
 4092TIP3   OH236470   4.279   4.093   7.231  0.0404 -0.1423  0.3612
 4092TIP3    H136471   4.211   4.130   7.288  1.7008  2.3288  0.8848
 4092TIP3    H236472   4.251   4.116   7.143 -0.6188 -0.6015  0.4436
 4093TIP3   OH236473   2.184   4.575   8.714  0.0113 -0.0071  0.4365
 4093TIP3    H136474   2.115   4.601   8.774  0.1916  1.2172  0.1231
 4093TIP3    H236475   2.258   4.631   8.737  0.5474 -0.5379  0.0331
 4094TIP3   OH236476   4.541   5.757   8.258  0.2534 -0.5555  0.1506
 4094TIP3    H136477   4.556   5.780   8.350 -1.4814 -1.6512  0.7631
 4094TIP3    H236478   4.462   5.805   8.234  1.3996  0.7351 -1.2158
 4095TIP3   OH236479   6.082   0.183   7.079 -0.0446  0.0791  0.1356
 4095TIP3    H136480   5.997   0.158   7.042  0.4845  0.1968 -1.2139
 4095TIP3    H236481   6.082   0.279   7.075 -0.0736  0.1065  0.6873
 4096TIP3   OH236482   4.027   3.633   7.677  0.3067  0.3815  0.0110
 4096TIP3    H136483   4.071   3.616   7.594 -2.8028  0.6415 -1.8222
 4096TIP3    H236484   3.957   3.567   7.681 -0.8831  1.6609  1.4334
 4097TIP3   OH236485   1.699   4.491   9.179 -0.2494 -0.4618 -0.2840
 4097TIP3    H136486   1.682   4.559   9.245  2.2940 -1.2343  1.3185
 4097TIP3    H236487   1.694   4.537   9.096  2.0956  1.9798  0.7750
 4098TIP3   OH236488   4.636   2.195   7.017  0.1197 -0.1622 -0.3264
 4098TIP3    H136489   4.596   2.257   6.955  1.7350 -1.3304 -2.6843
 4098TIP3    H236490   4.562   2.156   7.063 -0.9779  3.5005  1.3971
 4099TIP3   OH236491   2.624   4.078   8.183 -0.2495  0.0402 -0.3684
 4099TIP3    H136492   2.613   4.076   8.278 -1.0055  1.3282 -0.4077
 4099TIP3    H236493   2.714   4.110   8.171  0.4112 -1.6074 -0.1074
 4100TIP3   OH236494   4.628   1.196   9.413 -0.1956 -0.3417 -0.1611
 4100TIP3    H136495   4.620   1.164   9.503 -0.3828  1.5766  0.5653
 4100TIP3    H236496   4.549   1.248   9.399 -0.7216 -1.4968 -1.8778
 4101TIP3   OH236497   5.884   3.960   9.578 -0.0717 -0.2881  0.3903
 4101TIP3    H136498   5.939   3.952   9.656 -2.9797  0.0248  2.6065
 4101TIP3    H236499   5.842   4.045   9.586 -1.6991 -0.9444 -0.6406
 4102TIP3   OH236500   1.087   3.484   7.879 -0.6785  0.2504  0.1199
 4102TIP3    H136501   1.108   3.525   7.963 -0.2067  1.4690 -0.5698
 4102TIP3    H236502   1.096   3.554   7.815 -4.3728  0.3020 -0.5937
 4103TIP3   OH236503   4.667   2.946   8.042 -0.2414  0.4962 -0.0599
 4103TIP3    H136504   4.691   2.932   7.950  1.8858 -1.5684  0.7012
 4103TIP3    H236505   4.641   2.859   8.073  1.4293  0.6364  1.8823
 4104TIP3   OH236506   3.827   1.040   9.115  0.3190  0.0310  0.2059
 4104TIP3    H136507   3.901   1.024   9.056 -0.2887 -0.0669 -0.5557
 4104TIP3    H236508   3.832   0.970   9.180 -0.6743 -1.6930 -1.4563
 4105TIP3   OH236509   0.969   7.533   7.665 -0.5399  0.2656  0.2206
 4105TIP3    H136510   0.942   7.449   7.702  1.3285  0.4752  2.2480
 4105TIP3    H236511   0.892   7.564   7.617 -1.4529 -2.3217 -0.1486
 4106TIP3   OH236512   5.976   5.449   7.731  0.4288  0.4040  0.2519
 4106TIP3    H136513   5.962   5.423   7.640  1.3737  1.0365 -0.0901
 4106TIP3    H236514   5.897   5.419   7.777  0.4203 -0.9197 -0.5532
 4107TIP3   OH236515   3.788   7.539   7.093 -0.4631  0.0110  0.0230
 4107TIP3    H136516   3.711   7.569   7.045 -0.4559  0.2272  0.1432
 4107TIP3    H236517   3.813   7.458   7.050 -0.4858  0.1781 -0.3126
 4108TIP3   OH236518   3.984   3.116   7.605  0.3313 -0.1281 -0.5035
 4108TIP3    H136519   4.073   3.148   7.593  0.3763  0.2924  0.7962
 4108TIP3    H236520   3.967   3.126   7.699 -1.1841  0.0748 -0.7715
 4109TIP3   OH236521   2.863   0.532   6.542  0.0597  0.0496 -0.2736
 4109TIP3    H136522   2.918   0.518   6.465 -1.4371 -1.8398 -1.0857
 4109TIP3    H236523   2.862   0.447   6.586 -2.5564 -0.1485 -0.5806
 4110TIP3   OH236524   6.204   0.872   7.502 -0.1282 -0.3478 -0.2731
 4110TIP3    H136525   6.128   0.879   7.443  0.6156 -1.3918 -1.4038
 4110TIP3    H236526   6.224   0.778   7.503 -1.4946 -0.7794  3.4755
 4111TIP3   OH236527   7.321   4.090   8.319 -0.2748  0.3485  0.5813
 4111TIP3    H136528   7.228   4.068   8.311 -0.0046 -0.5393 -0.4386
 4111TIP3    H236529   7.363   4.036   8.252  1.0001  0.6025  1.1626
 4112TIP3   OH236530   6.980   5.981   8.419  0.0164  0.3008 -0.0564
 4112TIP3    H136531   6.953   5.891   8.397 -0.2744  0.3644  0.0435
 4112TIP3    H236532   7.076   5.977   8.420  0.0117 -0.3884  1.4660
 4113TIP3   OH236533   3.672   1.975   8.500  0.2306  0.4994  0.0356
 4113TIP3    H136534   3.711   1.969   8.588 -0.7913  3.0209  0.7569
 4113TIP3    H236535   3.581   1.948   8.512 -0.2447  1.9973  0.0833
 4114TIP3   OH236536   2.411   6.908   9.279  0.5063 -0.7790 -0.2300
 4114TIP3    H136537   2.435   6.826   9.321  1.0778 -0.6106 -0.2195
 4114TIP3    H236538   2.371   6.960   9.349 -0.0814 -1.1384 -0.2950
 4115TIP3   OH236539   5.362   2.312   7.968 -0.0719 -0.1913  0.1784
 4115TIP3    H136540   5.281   2.326   8.015  0.0409  1.2468 -0.0350
 4115TIP3    H236541   5.335   2.277   7.883 -0.2997 -2.2356  1.0380
 4116TIP3   OH236542   3.441   7.363   8.013 -0.1632  0.1563  0.6462
 4116TIP3    H136543   3.436   7.451   8.051 -1.4541  0.4616 -0.1748
 4116TIP3    H236544   3.426   7.376   7.920  4.0592 -0.4421 -0.3457
 4117TIP3   OH236545   0.054   3.933   8.624  0.2949  0.2384  0.1735
 4117TIP3    H136546   0.029   4.025   8.628 -2.1559 -0.3801  0.4592
 4117TIP3    H236547   0.150   3.935   8.621  0.3120  2.8324 -1.2087
 4118TIP3   OH236548   3.781   5.489   8.167 -0.0972  0.1131 -0.1703
 4118TIP3    H136549   3.735   5.430   8.227 -0.1882  0.1157 -0.2373
 4118TIP3    H236550   3.771   5.576   8.207 -2.1300  0.4933 -1.3215
 4119TIP3   OH236551   0.855   1.634   9.210  0.7504  0.5914  0.1734
 4119TIP3    H136552   0.932   1.636   9.154  0.8823 -0.3643  0.3035
 4119TIP3    H236553   0.782   1.652   9.150  0.8995 -0.3165 -0.3032
 4120TIP3   OH236554   1.465   3.625   8.535  0.4468  0.6097  0.1616
 4120TIP3    H136555   1.484   3.607   8.627 -1.3065 -2.4368  0.0486
 4120TIP3    H236556   1.392   3.688   8.538 -1.0839 -1.0956  1.0056
 4121TIP3   OH236557   4.949   4.943   9.120 -0.4387 -0.1172  0.1467
 4121TIP3    H136558   4.880   4.990   9.168 -0.1075  0.0889  0.4288
 4121TIP3    H236559   5.009   4.913   9.188 -0.2952 -0.3715 -0.0909
 4122TIP3   OH236560   5.592   0.001   6.955  0.8381  0.6541  0.3950
 4122TIP3    H136561   5.571  -0.093   6.958  3.2165  0.0474 -0.0014
 4122TIP3    H236562   5.530   0.037   6.891 -0.2226 -0.5807  0.6694
 4123TIP3   OH236563   7.261   4.896   7.250  0.2339  0.2224  0.1977
 4123TIP3    H136564   7.293   4.811   7.280  2.8788 -0.4916 -3.8151
 4123TIP3    H236565   7.171   4.880   7.222 -0.0625 -0.6111  1.5391
 4124TIP3   OH236566   6.409   6.431   8.111 -0.3919 -0.0375  0.6976
 4124TIP3    H136567   6.460   6.502   8.151  0.0282 -0.4085  0.8279
 4124TIP3    H236568   6.348   6.476   8.052  1.6436  0.3382 -1.2619
 4125TIP3   OH236569   0.856   3.508   9.662 -0.6716 -0.3435 -0.8940
 4125TIP3    H136570   0.881   3.420   9.634  0.6260  0.0602 -1.0814
 4125TIP3    H236571   0.903   3.522   9.744 -0.3827  0.3913 -1.1747
 4126TIP3   OH236572   0.099   2.929   7.073  0.2451 -0.5955 -0.0598
 4126TIP3    H136573   0.128   2.842   7.048 -0.1265 -0.5562 -0.6508
 4126TIP3    H236574   0.098   2.979   6.991  0.2937 -0.0845  0.2440
 4127TIP3   OH236575   0.246   3.494   8.259  0.0346 -0.1362 -0.1152
 4127TIP3    H136576   0.241   3.400   8.277  2.0162 -0.3146 -0.3163
 4127TIP3    H236577   0.308   3.501   8.187  1.3285  1.4521  1.0773
 4128TIP3   OH236578   0.074   2.480   7.102 -0.8209 -0.0204  0.3138
 4128TIP3    H136579   0.051   2.397   7.060  2.0396 -0.5195 -0.4543
 4128TIP3    H236580   0.086   2.458   7.195  1.1086 -0.8026 -0.0786
 4129TIP3   OH236581   4.097   0.282   8.766  0.0339  0.4655  0.1918
 4129TIP3    H136582   4.113   0.315   8.678 -0.1892  0.0866  0.0097
 4129TIP3    H236583   4.174   0.309   8.816 -0.4823  1.9407  0.2432
 4130TIP3   OH236584   1.392   6.941   7.346 -0.1220 -0.1668  0.3510
 4130TIP3    H136585   1.417   6.979   7.261 -0.8151 -0.4132  0.0227
 4130TIP3    H236586   1.307   6.899   7.329  0.0639 -0.8282  0.9994
 4131TIP3   OH236587   4.046   4.286   9.158 -0.0891  0.1364 -0.0267
 4131TIP3    H136588   3.993   4.257   9.084 -1.3810  2.7414 -0.2230
 4131TIP3    H236589   4.124   4.324   9.119  1.4724 -2.5913  0.2192
 4132TIP3   OH236590   7.374   5.148   8.145 -0.7065 -0.4922  0.7695
 4132TIP3    H136591   7.302   5.171   8.204 -0.4029  0.6870  0.7156
 4132TIP3    H236592   7.331   5.117   8.065 -1.2021  0.8831  0.4678
 4133TIP3   OH236593   2.934   4.456   8.624  0.6390 -0.3655  0.0259
 4133TIP3    H136594   3.020   4.436   8.587  0.5950  0.2181 -0.4061
 4133TIP3    H236595   2.872   4.414   8.564  0.6385 -1.6491  0.8893
 4134TIP3   OH236596   3.118   0.984   8.853  0.2417 -0.7286  0.2571
 4134TIP3    H136597   3.206   1.000   8.821 -0.1728  1.4995  0.0671
 4134TIP3    H236598   3.120   1.009   8.946 -0.1096 -0.9570  0.3314
 4135TIP3   OH236599   1.721   7.393   8.942  0.6341  0.1355  0.3863
 4135TIP3    H136600   1.627   7.410   8.952  0.4719 -1.2466  1.3715
 4135TIP3    H236601   1.755   7.473   8.900 -1.3143 -0.1599 -2.0023
 4136TIP3   OH236602   4.199   2.466   9.181  0.3789 -0.4700 -0.3942
 4136TIP3    H136603   4.261   2.530   9.148 -0.3581 -0.0860 -1.0836
 4136TIP3    H236604   4.211   2.390   9.125  0.5515 -0.5690 -0.2248
 4137TIP3   OH236605   2.117   5.541   8.340 -0.0355  0.0289 -0.2863
 4137TIP3    H136606   2.147   5.587   8.262  1.3182 -1.5855 -0.7873
 4137TIP3    H236607   2.026   5.569   8.351  0.0670  1.0874 -1.8236
 4138TIP3   OH236608   3.232   4.659   9.596 -0.1249 -0.0197  0.3409
 4138TIP3    H136609   3.201   4.733   9.649  1.5579  0.6597  0.4481
 4138TIP3    H236610   3.154   4.630   9.548 -1.0031  1.3231  0.8780
 4139TIP3   OH236611   4.563   3.646   6.733  0.6646 -0.8484  0.0919
 4139TIP3    H136612   4.627   3.627   6.665  1.4984 -3.1797  1.4101
 4139TIP3    H236613   4.480   3.659   6.686  1.8350  1.1470 -1.5535
 4140TIP3   OH236614   6.476   2.521   8.645  0.1281 -0.1452  0.3997
 4140TIP3    H136615   6.404   2.581   8.625  0.9147  0.2586 -1.4293
 4140TIP3    H236616   6.540   2.575   8.691  0.8092  0.4532 -1.1899
 4141TIP3   OH236617   4.279   3.132   8.596 -0.2278 -0.5028  0.0585
 4141TIP3    H136618   4.220   3.116   8.522 -0.6637 -0.8934  0.4823
 4141TIP3    H236619   4.230   3.102   8.672  0.1139  0.1483  0.5377
 4142TIP3   OH236620   4.336   0.205   7.572 -0.6468 -0.6756  0.1324
 4142TIP3    H136621   4.302   0.293   7.553  0.3427 -0.5442 -1.2381
 4142TIP3    H236622   4.349   0.166   7.485  1.2636 -1.2413  0.6216
 4143TIP3   OH236623   3.952   2.556   9.232  0.5780 -0.4575 -0.5060
 4143TIP3    H136624   4.046   2.535   9.229  0.7056  0.0771 -0.2007
 4143TIP3    H236625   3.938   2.591   9.319  0.4296  1.0407 -1.1045
 4144TIP3   OH236626   1.010   4.741   8.345  0.8227 -0.4461 -0.1016
 4144TIP3    H136627   1.052   4.660   8.318  0.5221 -1.1639  1.4950
 4144TIP3    H236628   0.917   4.719   8.352  0.7556 -0.0124  0.4678
 4145TIP3   OH236629   3.595   0.618   8.800 -0.1335 -0.3391 -0.5014
 4145TIP3    H136630   3.618   0.680   8.869  0.4533 -0.2118 -0.8061
 4145TIP3    H236631   3.675   0.607   8.749  0.2231 -2.4630  0.4022
 4146TIP3   OH236632   4.912   1.503   8.458 -0.2297  0.3179 -0.7754
 4146TIP3    H136633   4.859   1.427   8.435 -0.5141  0.6895 -1.3809
 4146TIP3    H236634   4.972   1.514   8.384 -1.9355  2.2230 -2.0076
 4147TIP3   OH236635   3.758   2.432   8.565  0.0018  0.9344  0.0317
 4147TIP3    H136636   3.664   2.419   8.580 -0.0437  1.8644  0.6893
 4147TIP3    H236637   3.801   2.388   8.638  0.0708  0.5906 -0.2165
 4148TIP3   OH236638   4.378   5.141   7.850 -0.0760  0.0499 -0.3016
 4148TIP3    H136639   4.326   5.062   7.832  0.0487  0.5598 -3.4856
 4148TIP3    H236640   4.313   5.208   7.873 -0.4182 -0.3080 -0.2231
 4149TIP3   OH236641   4.702   4.839   7.679  0.4134  0.3403 -0.1639
 4149TIP3    H136642   4.635   4.864   7.742 -1.0085  0.3534 -1.6366
 4149TIP3    H236643   4.678   4.883   7.598  1.5804 -0.5407 -1.0367
 4150TIP3   OH236644   7.608   0.202   8.740  0.0130 -0.2748  0.4398
 4150TIP3    H136645   7.521   0.172   8.766  0.5484 -0.0794  2.6042
 4150TIP3    H236646   7.592   0.266   8.671 -1.5454 -0.2953  0.7595
 4151TIP3   OH236647   5.906   7.130   8.313  0.3370  0.2349 -0.0457
 4151TIP3    H136648   5.951   7.156   8.393 -3.5050 -0.5244  2.6327
 4151TIP3    H236649   5.842   7.200   8.298 -0.2647 -0.5725 -1.4069
 4152TIP3   OH236650   1.688   6.003   9.181  0.0522 -0.0023 -0.2294
 4152TIP3    H136651   1.600   6.039   9.189 -0.9685 -2.2610 -0.4235
 4152TIP3    H236652   1.679   5.912   9.210  1.7001 -1.0922 -2.7389
 4153TIP3   OH236653   4.799   4.510   7.420  0.0209  0.1866 -0.0301
 4153TIP3    H136654   4.713   4.479   7.448 -0.0517  1.5544  1.3761
 4153TIP3    H236655   4.862   4.455   7.467 -0.0582 -0.5107 -0.7125
 4154TIP3   OH236656   7.177   2.809   6.567 -0.2124  0.5263 -0.4816
 4154TIP3    H136657   7.259   2.806   6.616 -0.7773  0.4099  0.4675
 4154TIP3    H236658   7.153   2.717   6.554 -0.6099  0.5713 -0.0565
 4155TIP3   OH236659   7.111   5.944   7.633 -0.0969  0.6411  0.3012
 4155TIP3    H136660   7.132   5.925   7.725  2.6046 -0.4178 -0.4495
 4155TIP3    H236661   7.098   5.858   7.594  0.0651  1.0173 -0.5936
 4156TIP3   OH236662   4.956   0.960   9.129 -0.0047  0.3261  0.2449
 4156TIP3    H136663   4.928   1.010   9.052  0.6489 -0.6037 -0.6148
 4156TIP3    H236664   4.981   0.875   9.094  1.3345  0.2493  1.3442
 4157TIP3   OH236665   7.424   2.703   7.489 -0.2699  0.5109  0.1628
 4157TIP3    H136666   7.512   2.698   7.451 -0.2721 -1.5693  0.2952
 4157TIP3    H236667   7.367   2.724   7.416  0.2257  0.8943 -0.1177
 4158TIP3   OH236668   3.044   5.624   8.994  0.3234  0.6568  0.2375
 4158TIP3    H136669   2.958   5.594   9.022  1.1817 -1.5620  0.6742
 4158TIP3    H236670   3.034   5.718   8.981 -1.7494  0.7006  1.7924
 4159TIP3   OH236671   5.591   4.715   8.727 -0.1147 -0.2572  0.2072
 4159TIP3    H136672   5.572   4.629   8.765  0.8936 -0.2560  0.7462
 4159TIP3    H236673   5.677   4.705   8.686 -0.4350  0.2255 -0.5953
 4160TIP3   OH236674   1.609   3.896   9.080 -0.3810 -0.5379 -0.3003
 4160TIP3    H136675   1.629   3.965   9.017 -0.0958  0.8262  1.2315
 4160TIP3    H236676   1.518   3.909   9.103 -0.3097 -0.6336  0.0459
 4161TIP3   OH236677   2.325   4.930   8.017  0.3740  0.1563  0.1105
 4161TIP3    H136678   2.376   4.923   7.936 -0.7501  0.3993 -0.6359
 4161TIP3    H236679   2.358   4.858   8.071  1.5281  0.3272 -0.3282
 4162TIP3   OH236680   3.290   1.593   8.027 -0.0439  0.2156 -0.4855
 4162TIP3    H136681   3.349   1.579   8.101  0.8554  0.2732 -1.1844
 4162TIP3    H236682   3.336   1.557   7.952 -0.9879  0.0782 -1.0168
 4163TIP3   OH236683   0.522   6.660   7.813  0.0318  0.1021  0.2478
 4163TIP3    H136684   0.440   6.611   7.803  0.3955 -0.8735  1.7370
 4163TIP3    H236685   0.535   6.666   7.907  2.4096 -1.0552  0.0740
 4164TIP3   OH236686   6.233   3.854   7.474  0.5026  1.0631  0.1266
 4164TIP3    H136687   6.218   3.870   7.567  1.9823  1.1324  0.3821
 4164TIP3    H236688   6.235   3.758   7.466 -0.5850  1.0424 -0.0200
 4165TIP3   OH236689   0.276   1.186   9.015  0.6195  0.5576  0.2648
 4165TIP3    H136690   0.184   1.172   9.036  0.5898 -0.6297 -0.5896
 4165TIP3    H236691   0.323   1.117   9.062  1.0102  0.7735  0.1998
 4166TIP3   OH236692   3.011   7.043   9.387  0.3669 -0.3392 -0.7638
 4166TIP3    H136693   3.045   7.116   9.438 -0.5922 -0.5062  0.1394
 4166TIP3    H236694   2.951   7.084   9.324 -1.6672 -0.4550  0.9926
 4167TIP3   OH236695   6.039   7.284   7.142 -0.4157  0.2335 -0.2227
 4167TIP3    H136696   5.950   7.318   7.136 -0.3329  0.4584 -0.1591
 4167TIP3    H236697   6.070   7.282   7.051 -1.5239 -2.6272 -0.6695
 4168TIP3   OH236698   4.838   4.689   7.012  0.2520  0.2515 -0.0851
 4168TIP3    H136699   4.774   4.760   7.001  1.3945  1.6781  1.7909
 4168TIP3    H236700   4.895   4.696   6.936 -0.6874  0.1822 -0.8133
 4169TIP3   OH236701   7.110   0.781   7.886  0.1289 -0.4210 -0.1589
 4169TIP3    H136702   7.158   0.864   7.885  0.0482 -0.3405  1.2086
 4169TIP3    H236703   7.166   0.720   7.838  1.7010 -0.3669  1.5204
 4170TIP3   OH236704   2.603   2.067   9.213  0.3000 -0.8347  0.8120
 4170TIP3    H136705   2.565   2.068   9.125 -1.6688  0.6638  1.5819
 4170TIP3    H236706   2.648   2.151   9.221 -0.4593 -0.4849  1.5698
 4171TIP3   OH236707   0.160   4.549   7.879  0.1299  0.1180 -0.2848
 4171TIP3    H136708   0.095   4.619   7.883 -0.5534 -0.4286 -1.1983
 4171TIP3    H236709   0.243   4.592   7.898 -0.3521  1.0674 -0.2630
 4172TIP3   OH236710   4.631   2.777   6.977 -0.0314 -0.2036 -0.1322
 4172TIP3    H136711   4.633   2.873   6.978  0.5818 -0.1898 -1.2393
 4172TIP3    H236712   4.719   2.751   6.950  0.7754 -1.1927  2.9466
 4173TIP3   OH236713   3.329   0.991   7.532  0.3314 -0.4197 -0.2074
 4173TIP3    H136714   3.317   1.062   7.595 -0.2103 -0.2669 -0.4810
 4173TIP3    H236715   3.244   0.981   7.490  0.4586 -1.1009 -0.3121
 4174TIP3   OH236716   6.121   5.186   6.881 -0.3786  0.0924 -0.6921
 4174TIP3    H136717   6.126   5.107   6.828 -1.3936 -0.3607 -0.1432
 4174TIP3    H236718   6.212   5.207   6.902 -0.1552 -2.2034  0.9936
 4175TIP3   OH236719   1.887   6.496   6.472  0.0186 -0.4240 -1.0930
 4175TIP3    H136720   1.951   6.440   6.428 -0.4309 -2.0479  0.2583
 4175TIP3    H236721   1.932   6.526   6.551 -0.6799 -1.0970 -0.4339
 4176TIP3   OH236722   1.445   2.488   7.527  0.1491 -0.1676 -0.3370
 4176TIP3    H136723   1.421   2.555   7.591  0.9326  1.3542 -1.5471
 4176TIP3    H236724   1.504   2.533   7.467  0.2363 -1.8114 -1.5564
 4177TIP3   OH236725   4.044   7.278   7.438 -0.7063  0.5390 -0.5591
 4177TIP3    H136726   3.982   7.219   7.397  1.1690 -1.4882 -0.6866
 4177TIP3    H236727   4.054   7.350   7.376  0.7583 -1.5770 -2.9818
 4178TIP3   OH236728   3.340   2.597   8.667 -0.1535 -0.0850  0.5775
 4178TIP3    H136729   3.360   2.617   8.575  1.5521 -0.4172  0.8398
 4178TIP3    H236730   3.389   2.517   8.685 -0.0654  0.2500  1.9193
 4179TIP3   OH236731   7.081   2.168   8.820 -0.2324  0.3274  0.1833
 4179TIP3    H136732   7.106   2.253   8.784 -2.2780  0.6682 -0.5548
 4179TIP3    H236733   7.133   2.159   8.899  0.7067  1.8373 -0.2302
 4180TIP3   OH236734   6.171   0.793   8.056  0.0332 -0.1910 -0.0225
 4180TIP3    H136735   6.135   0.708   8.029  2.6878 -1.8888  1.3503
 4180TIP3    H236736   6.224   0.821   7.981  0.6381 -0.6960  0.2076
 4181TIP3   OH236737   0.434   4.571   8.676  0.1080 -0.2287  0.8055
 4181TIP3    H136738   0.492   4.637   8.639 -0.3857  0.3993  1.1399
 4181TIP3    H236739   0.383   4.538   8.601  0.2362 -0.1115  0.6686
 4182TIP3   OH236740   3.937   6.175   8.976  0.1066  0.4083 -0.1889
 4182TIP3    H136741   3.897   6.120   9.045  1.3859 -0.9870 -0.4981
 4182TIP3    H236742   3.869   6.183   8.910  0.2672 -2.0577 -0.7779
 4183TIP3   OH236743   2.383   7.223   8.526 -0.6569  0.0957 -0.0405
 4183TIP3    H136744   2.402   7.188   8.613 -0.8998 -1.5871 -0.6330
 4183TIP3    H236745   2.289   7.212   8.516 -0.6493  0.4164 -0.4650
 4184TIP3   OH236746   7.112   5.654   7.504  0.1797  0.1564  0.5475
 4184TIP3    H136747   7.201   5.643   7.536  0.3888  0.1672 -0.0141
 4184TIP3    H236748   7.092   5.571   7.461 -0.1729  0.0657  0.8802
 4185TIP3   OH236749   3.288   7.509   8.251  0.2931  0.4923 -0.5529
 4185TIP3    H136750   3.298   7.478   8.341 -0.2825 -0.2783 -0.7368
 4185TIP3    H236751   3.277   7.604   8.258  0.4662  0.4587  0.1665
 4186TIP3   OH236752   3.319   2.028   7.972  0.2667  0.2401 -0.0992
 4186TIP3    H136753   3.376   1.967   8.019 -0.5461  0.2688  0.9571
 4186TIP3    H236754   3.354   2.030   7.883 -1.1951 -3.7564 -0.9286
 4187TIP3   OH236755   3.666   7.067   8.707  0.2339  0.1837 -0.0429
 4187TIP3    H136756   3.616   7.088   8.628  2.2683  1.4927 -1.0368
 4187TIP3    H236757   3.620   7.113   8.777 -0.8910 -0.0005 -0.6283
 4188TIP3   OH236758   6.094   0.451   7.044 -0.2049 -0.6438 -0.5693
 4188TIP3    H136759   6.183   0.468   7.074  0.4571 -1.5930 -1.8758
 4188TIP3    H236760   6.085   0.504   6.965 -0.9609 -0.2406 -0.2229
 4189TIP3   OH236761   5.774   0.339   7.528 -0.7953 -0.1748  0.3981
 4189TIP3    H136762   5.811   0.262   7.572 -1.5662 -0.0868  1.2229
 4189TIP3    H236763   5.851   0.390   7.502 -0.1638 -2.0756 -1.8515
 4190TIP3   OH236764   7.165   1.508   8.182 -0.7362 -0.2520  0.2651
 4190TIP3    H136765   7.149   1.570   8.112  0.7453  1.7045  1.5613
 4190TIP3    H236766   7.078   1.491   8.219 -1.1773  1.2473 -0.0052
 4191TIP3   OH236767   5.352   3.980   9.686 -0.1783  0.4091 -0.0780
 4191TIP3    H136768   5.293   3.984   9.611  0.4171 -0.2454 -0.5995
 4191TIP3    H236769   5.381   3.889   9.689 -0.6269  0.2931  1.3020
 4192TIP3   OH236770   1.251   4.085   8.646  0.7698 -0.3388 -0.4370
 4192TIP3    H136771   1.187   4.142   8.687  1.6607  0.6929 -0.4372
 4192TIP3    H236772   1.303   4.051   8.719  1.1307 -0.0231 -0.5405
 4193TIP3   OH236773   5.061   2.931   8.278  0.2892  0.0861  0.0644
 4193TIP3    H136774   5.099   2.998   8.222  1.4606 -0.6638 -0.0763
 4193TIP3    H236775   5.054   2.972   8.364 -1.7784  1.3380 -0.6240
 4194TIP3   OH236776   3.983   5.163   8.847 -0.5702 -0.4734 -0.3854
 4194TIP3    H136777   4.001   5.247   8.805  1.7151 -0.0876  1.1810
 4194TIP3    H236778   3.967   5.103   8.775 -0.9496  1.0092 -1.5914
 4195TIP3   OH236779   2.475   0.305   7.778  0.3060  0.4505 -0.2016
 4195TIP3    H136780   2.502   0.361   7.705 -0.0050 -0.1636 -0.7976
 4195TIP3    H236781   2.456   0.367   7.850 -0.9180  1.1857 -1.1193
 4196TIP3   OH236782   6.827   2.310   7.575 -0.2087  0.0274 -0.4590
 4196TIP3    H136783   6.788   2.227   7.603 -1.2671  1.0373  1.2523
 4196TIP3    H236784   6.921   2.293   7.575 -0.4606 -1.8107 -2.4721
 4197TIP3   OH236785   7.050   6.554   7.118  0.1635 -0.0170 -0.4310
 4197TIP3    H136786   6.970   6.508   7.094  0.4138 -1.0144  0.6174
 4197TIP3    H236787   7.112   6.533   7.048 -0.0012 -0.5523 -0.4198
 4198TIP3   OH236788   0.606   4.393   8.758 -0.3461  0.0415  0.0555
 4198TIP3    H136789   0.600   4.379   8.853  1.7703  1.0437  0.4079
 4198TIP3    H236790   0.529   4.447   8.737 -1.6134 -1.3567  0.9106
 4199TIP3   OH236791   2.178   4.198   8.052 -0.5252 -0.5927  0.4620
 4199TIP3    H136792   2.195   4.137   8.123 -0.7970  0.2610  1.2823
 4199TIP3    H236793   2.265   4.229   8.026 -0.4990  0.4527  1.6710
 4200TIP3   OH236794   0.570   3.078   8.932 -0.2582 -0.8213 -0.1814
 4200TIP3    H136795   0.574   2.983   8.945 -2.2238 -0.9039  0.2611
 4200TIP3    H236796   0.476   3.097   8.925  0.1443  0.7943 -2.7471
 4201TIP3   OH236797   6.658   5.097   8.144  0.0258  0.3356  0.1025
 4201TIP3    H136798   6.590   5.164   8.142 -0.3628  0.0076  1.2692
 4201TIP3    H236799   6.722   5.129   8.208  0.4328  0.1534 -0.2118
 4202TIP3   OH236800   5.835   3.236   7.263 -0.9940  0.1517  0.6521
 4202TIP3    H136801   5.784   3.305   7.221  0.8314  2.6051  2.1870
 4202TIP3    H236802   5.924   3.250   7.232 -0.8971 -3.3041 -1.0649
 4203TIP3   OH236803   5.256   5.207   9.241  0.6017 -0.5445 -0.2214
 4203TIP3    H136804   5.295   5.274   9.185  0.6034 -0.9346 -0.7028
 4203TIP3    H236805   5.329   5.150   9.265  0.5365 -0.5923 -0.1347
 4204TIP3   OH236806   7.126   4.774   6.400 -0.3572 -0.0323  0.1173
 4204TIP3    H136807   7.182   4.697   6.399 -2.3766 -1.6032  0.3804
 4204TIP3    H236808   7.107   4.791   6.307 -1.3310 -1.0051  0.1162
 4205TIP3   OH236809   6.173   3.474   8.621  0.0411  0.4634  0.0332
 4205TIP3    H136810   6.127   3.411   8.677  0.3198  0.1887 -0.0404
 4205TIP3    H236811   6.163   3.557   8.666 -0.9733  0.5123 -0.2423
 4206TIP3   OH236812   0.008   3.647   8.281  0.0592  0.5112 -0.0734
 4206TIP3    H136813   0.089   3.597   8.277 -0.7273 -0.8656  0.6760
 4206TIP3    H236814   0.020   3.706   8.356  0.1891  0.0101  0.2998
 4207TIP3   OH236815   2.069   3.035   7.397 -0.1938  0.0826 -0.0471
 4207TIP3    H136816   2.119   3.034   7.479  0.5780 -0.5992 -0.5078
 4207TIP3    H236817   2.105   2.962   7.347 -1.5174 -0.2965 -0.4840
 4208TIP3   OH236818   5.895   4.566   8.010 -0.7759 -0.1953 -0.4817
 4208TIP3    H136819   5.940   4.483   7.992 -1.2642 -0.0640 -2.6010
 4208TIP3    H236820   5.855   4.589   7.927 -1.0650  1.9346  0.2005
 4209TIP3   OH236821   5.204   1.407   7.205 -0.3920  0.3078 -0.1251
 4209TIP3    H136822   5.181   1.500   7.207  1.8538  0.9144 -0.3251
 4209TIP3    H236823   5.135   1.365   7.257 -2.5515  1.7780 -1.6028
 4210TIP3   OH236824   5.289   1.562   9.035  0.3873  0.4563  0.5327
 4210TIP3    H136825   5.263   1.599   9.119 -1.8550  4.6067 -1.6960
 4210TIP3    H236826   5.210   1.519   9.003  0.4996  0.9655 -0.4367
 4211TIP3   OH236827   6.797   7.316   7.148  0.1934  0.3145  0.3613
 4211TIP3    H136828   6.731   7.279   7.207  0.0807 -0.6818 -0.3601
 4211TIP3    H236829   6.796   7.258   7.071  2.7255 -0.4576  0.8125
 4212TIP3   OH236830   4.712   1.630   7.431 -0.3073 -0.3484  0.4384
 4212TIP3    H136831   4.704   1.536   7.416 -0.6532 -0.6171  2.1754
 4212TIP3    H236832   4.779   1.658   7.369 -0.2188 -1.7208 -0.1280
 4213TIP3   OH236833   6.078   6.659   7.036 -0.6727  0.1154 -0.3122
 4213TIP3    H136834   6.101   6.584   6.982  0.4684  0.4670 -0.3466
 4213TIP3    H236835   6.031   6.718   6.977  0.0440  0.2324 -0.7760
 4214TIP3   OH236836   3.171   1.872   7.787 -0.0868  0.3266  0.0519
 4214TIP3    H136837   3.245   1.860   7.846  0.0841 -1.2029 -0.4293
 4214TIP3    H236838   3.159   1.967   7.782  0.1991  0.5167  2.1293
 4215TIP3   OH236839   6.483   1.168   7.984  0.4584  0.6729 -0.2911
 4215TIP3    H136840   6.410   1.107   7.973  1.7258 -0.6719 -1.7496
 4215TIP3    H236841   6.477   1.227   7.909  0.0066  1.5485  0.4136
 4216TIP3   OH236842   0.671   5.092   8.919 -0.1249  0.0041  0.3339
 4216TIP3    H136843   0.709   5.021   8.971 -0.1522 -0.0363  0.2986
 4216TIP3    H236844   0.654   5.053   8.833  1.8849  0.5975 -0.3938
 4217TIP3   OH236845   3.983   0.525   7.560  0.3229  0.1348 -0.0908
 4217TIP3    H136846   3.914   0.514   7.626  2.0032 -0.9264  1.5860
 4217TIP3    H236847   4.009   0.617   7.567  0.1941  0.1342  0.4023
 4218TIP3   OH236848   1.991   1.122   7.420  0.1906  0.3689 -0.4246
 4218TIP3    H136849   2.029   1.038   7.393  0.4375  0.3213  0.0601
 4218TIP3    H236850   1.900   1.118   7.390 -1.7840 -2.6359  4.5844
 4219TIP3   OH236851   0.782   2.146   6.640 -0.2459  0.2496 -0.2389
 4219TIP3    H136852   0.739   2.174   6.560 -2.3476  1.0434  1.0895
 4219TIP3    H236853   0.869   2.186   6.636 -1.0575  2.0177 -1.1789
 4220TIP3   OH236854   5.679   2.017   7.270  0.3161 -0.3521 -0.0167
 4220TIP3    H136855   5.626   2.026   7.350 -0.3196 -1.2681 -0.3156
 4220TIP3    H236856   5.633   1.950   7.218 -0.0358  1.1797 -1.7669
 4221TIP3   OH236857   4.803   2.700   7.551 -1.0856  0.1896  0.2794
 4221TIP3    H136858   4.882   2.739   7.513 -1.1921  0.7655  0.6284
 4221TIP3    H236859   4.832   2.669   7.637 -0.9800 -0.5962 -0.0333
 4222TIP3   OH236860   3.774   0.028   9.034  0.2496 -0.7885 -0.3836
 4222TIP3    H136861   3.742  -0.024   8.960 -0.7299 -0.6498 -0.0712
 4222TIP3    H236862   3.865   0.047   9.012  0.0076 -0.8391 -1.5061
 4223TIP3   OH236863   7.121   1.829   8.508  0.1167 -0.0337 -0.2924
 4223TIP3    H136864   7.214   1.809   8.520  0.4306  1.0194 -0.8537
 4223TIP3    H236865   7.077   1.744   8.518  1.0715 -0.4457  0.5533
 4224TIP3   OH236866   3.257   6.103   8.170 -0.1753  0.0780 -0.3002
 4224TIP3    H136867   3.200   6.037   8.209 -0.7759 -0.3662 -1.8433
 4224TIP3    H236868   3.275   6.164   8.241 -1.1814 -0.7052  0.6683
 4225TIP3   OH236869   1.141   4.065   8.374  0.4891  0.5598  0.3578
 4225TIP3    H136870   1.107   4.056   8.285  0.6953  1.1523  0.2119
 4225TIP3    H236871   1.065   4.050   8.430  0.7042 -1.5894  0.1659
 4226TIP3   OH236872   7.545   6.615   8.383 -0.3526  0.1194 -0.5372
 4226TIP3    H136873   7.585   6.543   8.432 -1.7495 -0.5678 -0.3455
 4226TIP3    H236874   7.514   6.676   8.450  0.3291  0.6284 -0.6803
 4227TIP3   OH236875   2.857   7.041   8.445  0.4852 -0.1132 -0.1492
 4227TIP3    H136876   2.777   7.023   8.495  1.7247 -2.1156  1.2709
 4227TIP3    H236877   2.847   7.131   8.416 -1.4887  0.2968  1.5284
 4228TIP3   OH236878   3.603   5.712   9.083  0.3440 -0.2920  0.6403
 4228TIP3    H136879   3.609   5.624   9.122  2.3851 -0.4475  0.0937
 4228TIP3    H236880   3.682   5.757   9.114  0.8250  0.3499 -1.3963
 4229TIP3   OH236881   4.728   1.408   7.680 -0.0235 -0.0678 -0.5332
 4229TIP3    H136882   4.651   1.459   7.705 -0.4008 -1.0740  0.4837
 4229TIP3    H236883   4.692   1.336   7.628  0.2817 -0.2930 -0.4312
 4230TIP3   OH236884   5.566   6.189   8.895 -0.2486  0.2584 -0.1955
 4230TIP3    H136885   5.593   6.255   8.832  3.6090  0.2559  1.1723
 4230TIP3    H236886   5.569   6.106   8.847  1.2623  0.4169 -0.4197
 4231TIP3   OH236887   1.488   2.360   7.161 -0.8612 -0.1512 -0.2161
 4231TIP3    H136888   1.562   2.418   7.144  1.0287 -2.1063  0.7514
 4231TIP3    H236889   1.443   2.352   7.077 -0.2129  1.3777 -0.7370
 4232TIP3   OH236890   7.477   3.264   8.998  0.5700 -0.1268 -0.3479
 4232TIP3    H136891   7.407   3.328   9.009  0.5024 -0.1457 -0.6568
 4232TIP3    H236892   7.558   3.315   9.007  0.5191  0.1162 -1.2034
 4233TIP3   OH236893   0.964   5.813   8.192 -0.1429 -0.3085 -0.1906
 4233TIP3    H136894   1.027   5.886   8.191  1.0863 -1.3378 -0.0412
 4233TIP3    H236895   0.977   5.769   8.108 -0.8743 -0.3655 -0.2777
 4234TIP3   OH236896   3.683   2.435   7.730 -0.0763  0.2627  0.0543
 4234TIP3    H136897   3.649   2.519   7.761 -1.1325 -0.5955  1.3501
 4234TIP3    H236898   3.767   2.425   7.775 -0.7466 -0.1313  1.2553
 4235TIP3   OH236899   0.219   5.722   7.137  0.5986 -0.0765 -0.0183
 4235TIP3    H136900   0.262   5.688   7.058 -0.0488 -0.8455 -0.0557
 4235TIP3    H236901   0.220   5.648   7.198  2.6106  0.9973  1.3617
 4236TIP3   OH236902   6.901   4.476   6.594 -0.2250  0.3597 -0.2679
 4236TIP3    H136903   6.836   4.431   6.540  0.0139  0.8986 -1.0202
 4236TIP3    H236904   6.853   4.546   6.636 -0.7067 -0.8435  1.2852
 4237TIP3   OH236905   4.985   2.107   7.065  0.2935  0.2469 -0.1380
 4237TIP3    H136906   4.947   2.043   7.125 -0.7240  1.8071  0.9645
 4237TIP3    H236907   4.954   2.080   6.979  0.7091 -1.2961  0.1530
 4238TIP3   OH236908   0.770   7.516   9.184 -1.0070  0.0301  0.0154
 4238TIP3    H136909   0.769   7.426   9.218  1.9772  0.0630  0.5280
 4238TIP3    H236910   0.734   7.509   9.096  0.7701 -2.0809 -0.6628
 4239TIP3   OH236911   6.400   1.703   8.996  0.1449 -0.3448 -0.1318
 4239TIP3    H136912   6.416   1.681   9.088  0.1540 -1.8408 -0.4696
 4239TIP3    H236913   6.470   1.765   8.974 -1.1603  1.8596  1.4566
 4240TIP3   OH236914   2.417   3.233   8.338 -0.3210 -0.3028 -0.2662
 4240TIP3    H136915   2.379   3.145   8.334 -1.5126  0.1866 -3.7163
 4240TIP3    H236916   2.342   3.292   8.330  0.5936  0.9767  0.2519
 4241TIP3   OH236917   3.192   0.834   8.000  0.0221  0.1456  0.1035
 4241TIP3    H136918   3.211   0.753   7.954 -0.8548 -0.9920  1.6292
 4241TIP3    H236919   3.169   0.896   7.931  1.6218 -0.6034 -1.1609
 4242TIP3   OH236920   4.541   4.918   7.872  0.1773 -0.6080  0.1096
 4242TIP3    H136921   4.485   4.842   7.891  0.0671 -0.1513  1.7406
 4242TIP3    H236922   4.480   4.986   7.842  0.0509 -0.6089  0.3627
 4243TIP3   OH236923   6.686   2.691   7.491  0.2001 -0.0604 -0.2042
 4243TIP3    H136924   6.682   2.638   7.411  3.4985 -1.7302  0.5697
 4243TIP3    H236925   6.650   2.776   7.465 -1.9612 -1.5110 -2.4927
 4244TIP3   OH236926   1.308   1.118   9.197  0.0403  0.1135 -0.4976
 4244TIP3    H136927   1.278   1.089   9.283 -0.1338 -0.0535 -0.6130
 4244TIP3    H236928   1.396   1.151   9.212  0.0867 -0.1023 -0.2893
 4245TIP3   OH236929   5.426   5.171   8.869 -0.2145 -0.1413  0.6413
 4245TIP3    H136930   5.413   5.180   8.964  2.0957 -0.6713  1.0795
 4245TIP3    H236931   5.472   5.087   8.860  2.1564  1.1897 -0.6141
 4246TIP3   OH236932   3.758   5.752   8.248 -0.1462  0.3180  0.2633
 4246TIP3    H136933   3.771   5.804   8.327 -2.4800 -1.2638  1.8120
 4246TIP3    H236934   3.767   5.815   8.176  0.9173  2.0288  1.8019
 4247TIP3   OH236935   0.929   1.648   8.568  0.4164 -0.1673 -0.0127
 4247TIP3    H136936   0.857   1.585   8.567 -0.5493  0.9232  0.0318
 4247TIP3    H236937   0.979   1.625   8.647 -0.4241 -0.3183  0.4846
 4248TIP3   OH236938   6.369   4.938   7.703 -0.2276 -0.0374  0.5371
 4248TIP3    H136939   6.280   4.970   7.684 -0.1566 -0.0209  0.2332
 4248TIP3    H236940   6.398   4.992   7.777 -0.0341  0.7549 -0.1029
 4249TIP3   OH236941   7.550   1.967   8.175  0.0597  0.0319 -0.2760
 4249TIP3    H136942   7.515   2.019   8.102 -1.1005 -1.2136 -0.6525
 4249TIP3    H236943   7.487   1.979   8.246  0.2925 -0.1032 -0.0438
 4250TIP3   OH236944   4.477   2.990   7.666  0.0969 -0.4202  0.3941
 4250TIP3    H136945   4.448   3.078   7.690 -1.5069 -0.8707  0.2840
 4250TIP3    H236946   4.521   3.001   7.582 -2.7835 -0.0351 -1.2238
 4251TIP3   OH236947   2.003   7.364   9.343  0.0548  0.0055  0.1398
 4251TIP3    H136948   2.068   7.433   9.328  0.6216 -0.4318  0.5361
 4251TIP3    H236949   1.923   7.398   9.303  0.1342  1.2002  0.9307
 4252TIP3   OH236950   3.405   3.519   7.848  0.3024  0.5351 -0.1658
 4252TIP3    H136951   3.357   3.502   7.767 -0.6397  2.8500 -0.1686
 4252TIP3    H236952   3.342   3.565   7.904  1.9591  2.1821  0.4677
 4253TIP3   OH236953   0.557   6.384   8.657  0.0563 -0.1712  0.1098
 4253TIP3    H136954   0.503   6.352   8.729 -0.4664 -0.6398 -0.4851
 4253TIP3    H236955   0.513   6.465   8.628 -1.3489 -1.4343 -1.4911
 4254TIP3   OH236956   5.193   4.005   8.995 -0.0675  0.1798  0.0164
 4254TIP3    H136957   5.163   4.071   8.933  0.9865  0.6030 -0.0590
 4254TIP3    H236958   5.283   3.987   8.970 -0.2348 -1.0527  0.2449
 4255TIP3   OH236959   2.114   0.397   9.421 -0.7371 -0.3666  0.1274
 4255TIP3    H136960   2.190   0.359   9.465 -0.9229 -0.7697  0.1083
 4255TIP3    H236961   2.077   0.325   9.370 -1.4053 -0.3121  0.5083
 4256TIP3   OH236962   2.601   7.531   9.019 -0.2494 -0.3774 -0.3459
 4256TIP3    H136963   2.623   7.573   9.102 -1.4062  0.4731 -0.4423
 4256TIP3    H236964   2.684   7.494   8.988  0.4499  0.3633  0.5806
 4257TIP3   OH236965   2.214   6.867   7.997 -0.0859 -0.1130 -0.0394
 4257TIP3    H136966   2.209   6.799   7.930  0.0987  0.1718 -0.3420
 4257TIP3    H236967   2.197   6.820   8.079  0.3453 -0.5831 -0.2094
 4258TIP3   OH236968   6.724   3.342   8.678  0.3812 -0.1020 -0.1043
 4258TIP3    H136969   6.651   3.331   8.616  0.5515  0.5654 -0.4317
 4258TIP3    H236970   6.710   3.274   8.743 -1.8585  1.4103  1.1425
 4259TIP3   OH236971   4.147   1.174   8.874  0.0278 -0.4276 -0.3099
 4259TIP3    H136972   4.174   1.211   8.958 -0.5513  0.3850 -0.4742
 4259TIP3    H236973   4.055   1.199   8.865  0.2041 -0.1133 -1.3882
 4260TIP3   OH236974   3.683   6.597   8.796 -0.0031 -0.4024  0.3199
 4260TIP3    H136975   3.761   6.626   8.750  0.1883 -1.0332  0.2392
 4260TIP3    H236976   3.610   6.630   8.743  0.2128 -0.4835 -0.0323
 4261TIP3   OH236977   5.186   0.867   8.228 -0.2074 -0.1034  0.4034
 4261TIP3    H136978   5.199   0.792   8.286  0.0797 -0.4728 -0.1402
 4261TIP3    H236979   5.204   0.834   8.140 -0.9106  0.3884  0.0653
 4262TIP3   OH236980   5.178   0.075   7.392 -0.0089 -0.0903  0.0153
 4262TIP3    H136981   5.151   0.122   7.312  0.6669 -1.8170 -1.2819
 4262TIP3    H236982   5.140   0.127   7.463  0.7258  2.4475 -1.3036
 4263TIP3   OH236983   7.131   4.219   7.943  0.0168  0.4469  0.4211
 4263TIP3    H136984   7.119   4.315   7.945  1.0949  0.6209 -0.7101
 4263TIP3    H236985   7.198   4.204   7.877 -0.0653 -1.1060  0.6520
 4264TIP3   OH236986   4.998   0.393   7.252 -0.4774  0.5438 -0.0502
 4264TIP3    H136987   4.945   0.322   7.216 -2.2855  1.7670  0.0875
 4264TIP3    H236988   5.067   0.406   7.188 -0.7258 -0.6244 -0.5907
 4265TIP3   OH236989   7.298   3.879   8.639 -0.2330  0.7436  0.1860
 4265TIP3    H136990   7.343   3.963   8.655 -0.2547  0.4109  2.3663
 4265TIP3    H236991   7.369   3.817   8.625  0.0750  0.3735  2.8296
 4266TIP3   OH236992   2.200   5.077   7.343  0.0757  0.0460  0.2145
 4266TIP3    H136993   2.150   5.081   7.262  0.3527  1.2183  0.0783
 4266TIP3    H236994   2.202   4.984   7.366  0.5692 -0.3925 -1.4797
 4267TIP3   OH236995   1.651   6.764   8.320  0.5311  0.5469  0.6997
 4267TIP3    H136996   1.614   6.699   8.380 -0.3553  1.9588  1.7423
 4267TIP3    H236997   1.591   6.838   8.326 -0.5332  0.1943 -3.1885
 4268TIP3   OH236998   2.996   3.935   7.247 -0.4000 -0.0856 -0.5465
 4268TIP3    H136999   2.925   3.971   7.192  1.1504  0.6389 -2.1750
 4268TIP3    H237000   3.073   3.937   7.190  1.1658  0.0845  1.4928
 4269TIP3   OH237001   2.665   6.415   9.368  0.5255  0.3960  0.5986
 4269TIP3    H137002   2.725   6.454   9.432  0.9502 -1.2218  1.2576
 4269TIP3    H237003   2.723   6.375   9.303  0.1337  0.0704  0.4490
 4270TIP3   OH237004   7.180   0.363   8.451  0.6785  0.5402  0.5531
 4270TIP3    H137005   7.205   0.411   8.372 -1.2868  1.9419  0.7140
 4270TIP3    H237006   7.174   0.271   8.423  1.4722  0.8031 -0.5289
 4271TIP3   OH237007   3.062   2.889   6.827 -0.5445  1.0730  0.4618
 4271TIP3    H137008   3.042   2.914   6.917 -0.6841  3.8398 -0.2387
 4271TIP3    H237009   3.024   2.959   6.774 -1.6380 -1.1470 -1.8835
 4272TIP3   OH237010   1.524   1.652   9.481  0.1536 -0.2138  0.4621
 4272TIP3    H137011   1.561   1.693   9.559 -0.9315  0.2547  0.7434
 4272TIP3    H237012   1.496   1.724   9.426  1.9585 -0.4943 -0.9483
 4273TIP3   OH237013   4.163   3.524   8.586  0.5036  0.7951 -0.3012
 4273TIP3    H137014   4.105   3.451   8.605 -0.4176  1.6980  0.5066
 4273TIP3    H237015   4.241   3.484   8.548 -1.0173 -0.3924 -2.3520
 4274TIP3   OH237016   3.998   7.173   9.164  0.4132  0.2545 -0.0736
 4274TIP3    H137017   3.957   7.098   9.207 -0.7571  2.1830  2.4391
 4274TIP3    H237018   4.091   7.163   9.182  0.6267 -1.8136 -1.9310
 4275TIP3   OH237019   1.047   0.810   7.257  0.0096  0.1145  0.4207
 4275TIP3    H137020   1.085   0.758   7.186 -0.7029  0.3929 -0.1830
 4275TIP3    H237021   1.027   0.895   7.217 -1.6426 -0.1649  0.5718
 4276TIP3   OH237022   0.522   2.280   8.271  0.1509  0.0609 -0.4613
 4276TIP3    H137023   0.503   2.356   8.217  0.3954  0.0769 -0.5269
 4276TIP3    H237024   0.533   2.315   8.359 -3.6811 -0.3247  0.3515
 4277TIP3   OH237025   2.497   6.136   8.317  0.0601  0.1587  0.3326
 4277TIP3    H137026   2.513   6.060   8.373  0.5061 -0.0350 -0.0493
 4277TIP3    H237027   2.416   6.174   8.351  1.0825  0.9083  2.0496
 4278TIP3   OH237028   0.432   2.184   9.146 -0.3792  0.5256  0.1647
 4278TIP3    H137029   0.432   2.095   9.109  0.1908  0.3936  0.4644
 4278TIP3    H237030   0.381   2.176   9.227 -2.1556  0.9498 -0.8741
 4279TIP3   OH237031   5.312   5.565   8.468 -0.4762  0.3595  0.1905
 4279TIP3    H137032   5.267   5.550   8.385 -0.4723  2.7328 -0.2827
 4279TIP3    H237033   5.249   5.537   8.535 -1.0037 -0.2638 -0.5469
 4280TIP3   OH237034   5.995   1.709   8.212  0.4091 -0.1722 -0.4358
 4280TIP3    H137035   6.042   1.789   8.236 -1.5867  1.7005 -2.4033
 4280TIP3    H237036   6.021   1.691   8.122  0.7774 -1.7683 -0.0514
 4281TIP3   OH237037   1.863   7.060   6.945  0.7103 -0.2776  0.2741
 4281TIP3    H137038   1.958   7.045   6.952  1.1704  1.9837 -0.0778
 4281TIP3    H237039   1.837   7.015   6.865  1.8461  0.4158 -0.5192
 4282TIP3   OH237040   4.232   4.772   9.405  0.3945 -0.1752  0.5734
 4282TIP3    H137041   4.223   4.864   9.378  0.5441 -0.6526 -1.1975
 4282TIP3    H237042   4.326   4.760   9.419  0.3947 -0.1205  0.6216
 4283TIP3   OH237043   6.894   5.570   8.970 -0.2882  0.1398  0.1042
 4283TIP3    H137044   6.868   5.607   9.054  1.1651  0.5662  0.3928
 4283TIP3    H237045   6.950   5.636   8.931  0.9065 -1.0036 -0.1762
 4284TIP3   OH237046   5.075   6.450   9.147  0.5608 -0.1480 -0.2599
 4284TIP3    H137047   5.056   6.406   9.064  1.9142  1.7488 -1.6680
 4284TIP3    H237048   5.111   6.535   9.121 -1.6600  1.7635  2.2782
 4285TIP3   OH237049   6.090   3.221   9.026 -0.1346 -0.1252 -0.5744
 4285TIP3    H137050   6.181   3.197   9.047 -0.1452 -0.6207 -1.0922
 4285TIP3    H237051   6.040   3.141   9.042 -0.2436 -0.3246 -1.8083
 4286TIP3   OH237052   3.704   1.226   7.648  0.1928  0.1164  0.3213
 4286TIP3    H137053   3.778   1.286   7.639  0.4352 -0.2542 -0.2063
 4286TIP3    H237054   3.701   1.206   7.742  2.2536 -1.7052  0.0838
 4287TIP3   OH237055   5.514   6.725   9.299 -0.0730 -0.3364 -0.0621
 4287TIP3    H137056   5.489   6.730   9.207  1.2688 -2.2818 -0.6035
 4287TIP3    H237057   5.540   6.634   9.312  1.1835  0.2317  1.8664
 4288TIP3   OH237058   1.518   4.658   8.741 -0.1141  0.1197  0.0296
 4288TIP3    H137059   1.567   4.708   8.676  0.3657  0.9137  0.9766
 4288TIP3    H237060   1.432   4.643   8.700  0.7602 -0.9510 -1.4871
 4289TIP3   OH237061   3.137   0.470   7.342 -1.0238 -0.9356 -0.1992
 4289TIP3    H137062   3.152   0.413   7.418  1.5858  0.4547  0.4753
 4289TIP3    H237063   3.156   0.558   7.376  1.0995 -0.3489 -2.6029
 4290TIP3   OH237064   5.421   6.079   9.440 -0.4380  0.3723 -0.2292
 4290TIP3    H137065   5.478   6.010   9.476 -0.5196 -1.0841 -2.6597
 4290TIP3    H237066   5.445   6.084   9.348 -1.9132  2.1770 -0.5714
 4291TIP3   OH237067   3.129   6.312   8.894 -0.0501 -0.1870 -0.1197
 4291TIP3    H137068   3.151   6.222   8.870 -0.1894 -0.2273 -0.0984
 4291TIP3    H237069   3.073   6.342   8.822  1.1633  0.3712 -0.8672
 4292TIP3   OH237070   1.253   0.829   7.427 -0.3576  0.2019  0.0705
 4292TIP3    H137071   1.306   0.751   7.410  0.3430  0.3580  1.3945
 4292TIP3    H237072   1.174   0.817   7.374 -0.2671 -1.4121  0.2644
 4293TIP3   OH237073   6.382   5.376   9.108  0.8521  0.0814  0.1418
 4293TIP3    H137074   6.470   5.384   9.073  0.3290 -1.4117 -1.6854
 4293TIP3    H237075   6.328   5.430   9.051  0.1350 -1.5802 -0.8252
 4294TIP3   OH237076   2.902   1.777   9.194 -0.1235 -0.1056  0.9773
 4294TIP3    H137077   2.861   1.769   9.107  0.8047  0.9010  0.4206
 4294TIP3    H237078   2.837   1.742   9.254 -1.6020  0.9607  0.0671
 4295TIP3   OH237079   1.377   3.102   7.239 -0.7212  0.5687  0.4589
 4295TIP3    H137080   1.350   3.100   7.331 -0.0288  1.8683  0.7245
 4295TIP3    H237081   1.348   3.188   7.208 -1.3967 -0.0712 -0.6851
 4296TIP3   OH237082   3.630   4.582   9.270  0.7608  0.0759  0.2495
 4296TIP3    H137083   3.702   4.528   9.300 -0.3572  0.1368  3.3808
 4296TIP3    H237084   3.660   4.672   9.283  0.6894  0.1355  0.0191
 4297TIP3   OH237085   4.609   6.356   9.008 -0.1900 -0.5936 -0.8730
 4297TIP3    H137086   4.559   6.349   9.089 -1.1440 -2.3896 -1.5693
 4297TIP3    H237087   4.660   6.276   9.004  1.3259  0.3516 -1.1289
 4298TIP3   OH237088   6.495   3.836   8.021  0.0874 -0.7275 -0.2018
 4298TIP3    H137089   6.567   3.785   7.984  0.8280 -0.6635  1.0763
 4298TIP3    H237090   6.462   3.889   7.948  1.1769 -0.9390 -0.8634
 4299TIP3   OH237091   2.547   6.438   7.727 -0.4506  0.2654 -0.1484
 4299TIP3    H137092   2.454   6.418   7.740 -0.9344  1.6182 -1.2658
 4299TIP3    H237093   2.573   6.483   7.807 -1.3751  1.8577 -0.7087
 4300TIP3   OH237094   2.649   5.247   8.163 -0.1490 -0.9613  0.0541
 4300TIP3    H137095   2.727   5.217   8.211 -0.6214 -1.0614  0.7717
 4300TIP3    H237096   2.660   5.342   8.157  0.1694 -1.0061 -0.1018
 4301TIP3   OH237097   0.594   3.859   7.766 -0.1378  0.4597  0.1116
 4301TIP3    H137098   0.532   3.826   7.701 -0.0437  1.2345 -0.3763
 4301TIP3    H237099   0.582   3.954   7.766  0.3170  0.5283  0.7694
 4302TIP3   OH237100   7.605   6.008   8.108  0.2407 -0.0154  0.4476
 4302TIP3    H137101   7.632   5.916   8.119  0.4128  0.0953  0.9528
 4302TIP3    H237102   7.606   6.044   8.196  1.6211  0.8810  0.1015
 4303TIP3   OH237103   4.963   5.053   6.574 -0.1508 -0.2674  0.5649
 4303TIP3    H137104   5.007   4.972   6.545 -1.4216 -0.4729 -0.9285
 4303TIP3    H237105   4.903   5.024   6.642 -2.0280 -1.0193 -1.2788
 4304TIP3   OH237106   1.429   3.773   7.385  0.3401  0.5943  0.0920
 4304TIP3    H137107   1.521   3.756   7.407  0.3862 -0.4031 -0.7942
 4304TIP3    H237108   1.430   3.791   7.291 -0.5485 -0.9171 -0.2328
 4305TIP3   OH237109   6.149   0.161   8.564  0.7672  0.2207 -0.3216
 4305TIP3    H137110   6.089   0.236   8.570 -2.5156 -2.2812  1.9156
 4305TIP3    H237111   6.141   0.131   8.474 -1.4876 -0.0120 -0.1174
 4306TIP3   OH237112   2.138   2.413   7.326 -0.2768  0.1489 -0.6307
 4306TIP3    H137113   2.166   2.331   7.286  1.0401 -0.6552  1.7252
 4306TIP3    H237114   2.207   2.476   7.303 -1.0294  0.5255 -2.0055
 4307TIP3   OH237115   5.508   3.409   6.716  0.5347 -0.8843  0.3602
 4307TIP3    H137116   5.413   3.410   6.731  0.4353 -2.2702 -0.0613
 4307TIP3    H237117   5.521   3.341   6.650  1.8885 -1.0434  0.7649
 4308TIP3   OH237118   1.958   1.437   7.013 -0.1345  0.2204 -0.4411
 4308TIP3    H137119   1.913   1.521   7.022 -0.1075  0.2796 -0.8435
 4308TIP3    H237120   1.992   1.437   6.923 -1.3748 -0.8162 -0.9470
 4309TIP3   OH237121   6.815   4.138   6.849  0.3444  0.2652 -0.1735
 4309TIP3    H137122   6.815   4.231   6.869  1.8489  0.0134  1.3032
 4309TIP3    H237123   6.886   4.127   6.785 -1.1828  0.3674 -1.9689
 4310TIP3   OH237124   0.285   5.822   8.228  0.0572 -0.1991  0.1074
 4310TIP3    H137125   0.222   5.780   8.169 -0.7860  0.2855  0.6422
 4310TIP3    H237126   0.266   5.784   8.314 -0.0719  0.5554  0.4210
 4311TIP3   OH237127   1.564   4.291   6.983 -0.3646  0.1822 -0.4671
 4311TIP3    H137128   1.624   4.231   6.938  0.0654  1.6936 -2.0391
 4311TIP3    H237129   1.537   4.353   6.915 -1.5074  1.2250  0.8708
 4312TIP3   OH237130   7.015   2.871   7.457 -0.4968 -0.0971 -0.0252
 4312TIP3    H137131   7.057   2.950   7.425  0.1391 -0.3456  0.1770
 4312TIP3    H237132   6.977   2.895   7.541  0.5823 -0.2564  0.5288
 4313TIP3   OH237133   5.511   1.543   7.786 -0.2781  0.4039  0.4935
 4313TIP3    H137134   5.548   1.498   7.710 -0.7793  0.1383  0.4017
 4313TIP3    H237135   5.423   1.506   7.796 -0.1774  0.3561  1.2736
 4314TIP3   OH237136   0.262   1.916   7.553  0.0103  0.0342 -0.5724
 4314TIP3    H137137   0.224   1.876   7.632  1.3914  1.9322  1.1478
 4314TIP3    H237138   0.232   2.007   7.555  1.6880  0.6296 -1.1165
 4315TIP3   OH237139   4.665   5.908   7.490  0.8090 -0.1642 -0.1215
 4315TIP3    H137140   4.675   6.002   7.509 -2.0100 -0.2377  2.4350
 4315TIP3    H237141   4.727   5.865   7.548  1.8596  0.0510 -1.0488
 4316TIP3   OH237142   0.403   5.611   6.937  0.3206 -0.2732  0.2871
 4316TIP3    H137143   0.333   5.653   6.887  0.8436 -1.1002 -1.2304
 4316TIP3    H237144   0.472   5.677   6.943 -1.0834  1.0722  3.0943
 4317TIP3   OH237145   3.324   4.661   9.016  0.2461  0.0489  0.5435
 4317TIP3    H137146   3.354   4.688   9.103 -1.2449 -1.0099  1.4426
 4317TIP3    H237147   3.241   4.616   9.033 -0.7679  0.9973 -1.5845
 4318TIP3   OH237148   4.202   6.557   8.043 -0.0021  0.1922 -0.4436
 4318TIP3    H137149   4.243   6.518   7.965  1.9243  0.1231  0.5431
 4318TIP3    H237150   4.176   6.644   8.015  2.4690  0.9279 -0.7079
 4319TIP3   OH237151   4.425   5.908   7.823  0.1683  0.4374 -0.0085
 4319TIP3    H137152   4.445   5.832   7.768 -0.9010  0.3875 -0.3620
 4319TIP3    H237153   4.494   5.909   7.889 -0.0345 -1.1188  0.2755
 4320TIP3   OH237154   6.165   2.540   6.947 -0.6047  0.1469  0.1549
 4320TIP3    H137155   6.097   2.547   6.881 -1.1034  0.3186  0.6782
 4320TIP3    H237156   6.247   2.532   6.897 -1.1255 -1.4446 -0.4883
 4321TIP3   OH237157   5.804   6.789   8.867  0.2256 -0.3589  0.5708
 4321TIP3    H137158   5.866   6.717   8.857 -0.7682 -0.9693 -2.0521
 4321TIP3    H237159   5.720   6.753   8.839 -0.8235  1.1527  1.6052
 4322TIP3   OH237160   7.291   0.444   9.279  0.2657  0.0133 -0.0532
 4322TIP3    H137161   7.254   0.356   9.288 -2.0786  0.7743 -1.5217
 4322TIP3    H237162   7.350   0.437   9.204 -1.7066  0.1806 -1.6773
 4323TIP3   OH237163   0.050   5.879   8.540 -0.3665 -0.2237 -0.5547
 4323TIP3    H137164  -0.002   5.800   8.556 -1.4964  0.7145  0.6360
 4323TIP3    H237165   0.138   5.847   8.520 -0.8275 -1.7754 -0.1971
 4324TIP3   OH237166   3.168   0.368   7.102 -0.0689 -0.4175 -0.3280
 4324TIP3    H137167   3.183   0.399   7.192  1.9407 -0.0461 -0.7331
 4324TIP3    H237168   3.252   0.330   7.076 -0.1552  0.7090 -2.4992
 4325TIP3   OH237169   7.564   0.474   9.177 -0.0465 -0.0373 -0.4169
 4325TIP3    H137170   7.525   0.562   9.180 -0.7353 -0.2846  3.0038
 4325TIP3    H237171   7.658   0.489   9.173 -0.0383  1.0277  2.0285
 4326TIP3   OH237172   5.521   7.601   8.793 -0.4715  0.1896 -0.0257
 4326TIP3    H137173   5.612   7.577   8.773 -0.5223  1.1196 -1.4770
 4326TIP3    H237174   5.470   7.567   8.719 -0.9482  1.9065 -0.5305
 4327TIP3   OH237175   0.481   4.345   6.741  0.2491  0.6490 -0.3023
 4327TIP3    H137176   0.393   4.338   6.704 -0.4561  0.8978  1.2616
 4327TIP3    H237177   0.529   4.272   6.702 -0.8489  0.0980 -0.6566
 4328TIP3   OH237178   0.881   4.888   9.352 -0.1915 -0.2489 -0.3856
 4328TIP3    H137179   0.897   4.876   9.446  0.6436  0.4893 -0.4201
 4328TIP3    H237180   0.943   4.955   9.326 -1.3537  0.5421 -1.1993
 4329TIP3   OH237181   1.050   7.320   7.433 -0.5920 -0.1901  0.0778
 4329TIP3    H137182   1.096   7.400   7.410  0.1177  0.3891  3.0955
 4329TIP3    H237183   1.118   7.259   7.460 -1.1111 -1.9395 -2.2775
 4330TIP3   OH237184   0.817   1.976   7.322 -0.0068  0.2040  0.1190
 4330TIP3    H137185   0.819   1.987   7.417  3.7298 -2.2767  0.5593
 4330TIP3    H237186   0.837   1.883   7.308  2.9418  1.0749 -2.9714
 4331TIP3   OH237187   0.754   6.749   7.022 -0.1624 -0.0107  0.3521
 4331TIP3    H137188   0.849   6.750   7.037  0.0126 -0.1729 -0.6908
 4331TIP3    H237189   0.716   6.753   7.110  0.7861  3.1345  0.7316
 4332TIP3   OH237190   4.445   3.764   8.418  0.0875  0.1903 -0.1259
 4332TIP3    H137191   4.390   3.752   8.340 -2.1430  1.3777  1.1775
 4332TIP3    H237192   4.455   3.858   8.427  1.2118  0.0356  0.4947
 4333TIP3   OH237193   3.902   1.272   8.853 -0.2697 -0.1154  0.0239
 4333TIP3    H137194   3.871   1.305   8.938  0.7550 -1.4581  0.9663
 4333TIP3    H237195   3.905   1.349   8.797  1.5125  1.3491  1.9638
 4334TIP3   OH237196   5.556   2.511   7.030 -0.0786 -0.2784 -0.1928
 4334TIP3    H137197   5.623   2.574   7.058 -1.2113  0.7941  0.1856
 4334TIP3    H237198   5.520   2.549   6.950 -0.7856 -0.4376  0.0443
 4335TIP3   OH237199   7.669   5.790   6.625  0.3474  0.0781  0.1696
 4335TIP3    H137200   7.664   5.885   6.619  0.2062  0.0744  0.2156
 4335TIP3    H237201   7.746   5.766   6.573 -0.0280  0.1592 -0.4318
 4336TIP3   OH237202   2.919   4.076   7.506  0.5162 -0.7758  0.1849
 4336TIP3    H137203   2.856   4.007   7.525  0.6011 -0.9021  0.0160
 4336TIP3    H237204   2.936   4.067   7.412  0.4428 -0.4537  0.1430
 4337TIP3   OH237205   4.677   5.654   9.933  0.3012 -0.0045 -0.2994
 4337TIP3    H137206   4.633   5.718   9.989 -0.9418 -1.4702  0.4712
 4337TIP3    H237207   4.691   5.700   9.851  0.9703  1.7816  0.7554
 4338TIP3   OH237208   4.581   1.907   9.202 -0.1873  0.4923 -0.4595
 4338TIP3    H137209   4.531   1.827   9.189  0.0450  0.2697 -0.0103
 4338TIP3    H237210   4.653   1.882   9.260  1.9144  0.2251 -2.9799
 4339TIP3   OH237211   2.476   7.344   6.935  0.2963  0.0786  0.0483
 4339TIP3    H137212   2.495   7.304   6.850 -1.6999  0.7729 -0.7758
 4339TIP3    H237213   2.409   7.287   6.974  0.7581  0.1032  0.9007
 4340TIP3   OH237214   7.466   1.898   7.771 -0.2562 -0.4448  0.2407
 4340TIP3    H137215   7.430   1.855   7.849 -3.0752  4.4382  2.0529
 4340TIP3    H237216   7.513   1.974   7.805 -0.9264  1.4557 -2.7086
 4341TIP3   OH237217   3.954   7.383   9.350 -0.0342 -0.5995  0.4070
 4341TIP3    H137218   3.985   7.353   9.265  2.2277  3.1258 -0.2873
 4341TIP3    H237219   4.017   7.346   9.412 -0.8933 -2.2002  0.3736
 4342TIP3   OH237220   7.578   6.313   7.720  0.5092  0.1568  0.6072
 4342TIP3    H137221   7.497   6.263   7.710  0.5610  0.0668  0.6367
 4342TIP3    H237222   7.564   6.393   7.669  1.0030 -0.5498 -0.6794
 4343TIP3   OH237223   0.052   0.907   8.749 -0.1963 -0.2842 -1.1656
 4343TIP3    H137224   0.112   0.838   8.777  0.3314 -0.3114 -2.2894
 4343TIP3    H237225  -0.014   0.861   8.696  0.5754  0.1202 -2.5513
 4344TIP3   OH237226   0.049   5.381   8.051  0.0113  0.1388 -0.2204
 4344TIP3    H137227  -0.001   5.428   7.984  2.2275  0.8426 -1.4850
 4344TIP3    H237228  -0.012   5.372   8.124 -1.2044  3.1903 -0.7057
 4345TIP3   OH237229   0.676   2.338   7.145  0.4258 -0.4937  0.1474
 4345TIP3    H137230   0.638   2.353   7.059  0.5609 -0.0784  0.1548
 4345TIP3    H237231   0.675   2.243   7.157 -0.7362 -0.4794  0.2090
 4346TIP3   OH237232   5.958   4.210   7.766 -0.4020  0.1501  0.7624
 4346TIP3    H137233   5.873   4.222   7.809 -0.3334 -1.2240  1.3407
 4346TIP3    H237234   5.940   4.224   7.673 -1.0950  0.6538  0.9610
 4347TIP3   OH237235   2.120   6.768   8.866  0.7455  0.1971 -0.4697
 4347TIP3    H137236   2.043   6.751   8.811  2.4056 -2.5514 -2.1866
 4347TIP3    H237237   2.141   6.860   8.848 -1.2338  0.5914 -1.0868
 4348TIP3   OH237238   3.433   1.808   8.750 -0.3411 -0.7185  0.8120
 4348TIP3    H137239   3.503   1.767   8.799  0.6567 -1.7529 -1.3557
 4348TIP3    H237240   3.352   1.776   8.790  0.2618  1.5801  4.2515
 4349TIP3   OH237241   3.569   6.091   8.247 -0.1993 -0.1195  0.2794
 4349TIP3    H137242   3.520   6.171   8.267  0.0823 -0.4409  2.5143
 4349TIP3    H237243   3.651   6.122   8.209 -0.8041  0.5466 -0.5324
 4350TIP3   OH237244   7.482   3.011   7.527  0.2972  0.4891  0.3217
 4350TIP3    H137245   7.406   2.956   7.507 -0.8422  1.5470  1.5419
 4350TIP3    H237246   7.525   3.024   7.443 -0.3070 -0.9472 -0.2407
 4351TIP3   OH237247   2.030   7.303   8.750 -0.2041  0.3679  0.2170
 4351TIP3    H137248   2.061   7.369   8.812 -0.9128  0.4510  0.4927
 4351TIP3    H237249   1.935   7.315   8.748 -0.1024  1.2802 -1.9303
 4352TIP3   OH237250   3.196   1.330   7.672  0.0074 -0.1162  0.1234
 4352TIP3    H137251   3.131   1.396   7.695 -0.0186 -0.2533  0.4545
 4352TIP3    H237252   3.268   1.379   7.634 -0.4467  0.0014 -0.6069
 4353TIP3   OH237253   2.687   1.131   7.926 -0.2987  0.1778 -0.6678
 4353TIP3    H137254   2.655   1.184   7.998 -0.3763  3.6956 -3.0149
 4353TIP3    H237255   2.615   1.129   7.863  0.3797 -1.2398 -1.4662
 4354TIP3   OH237256   4.877   1.873   7.159 -0.8659 -0.3464  0.5382
 4354TIP3    H137257   4.828   1.906   7.083  0.0617 -1.2667 -0.4911
 4354TIP3    H237258   4.887   1.779   7.141  3.1821  0.1126 -0.4455
 4355TIP3   OH237259   2.678   2.227   7.504  0.1205 -0.8291 -0.3219
 4355TIP3    H137260   2.722   2.270   7.577 -1.5555 -0.6748  0.6293
 4355TIP3    H237261   2.587   2.217   7.532 -0.4906 -1.0995 -2.2365
 4356TIP3   OH237262   7.380   1.273   8.131 -0.3162  0.1779 -0.3355
 4356TIP3    H137263   7.334   1.355   8.147 -0.0153  0.0393  1.4625
 4356TIP3    H237264   7.327   1.207   8.175 -0.1183 -0.4866 -1.0635
 4357TIP3   OH237265   2.293   2.820   7.798 -0.2260 -0.6250 -0.0827
 4357TIP3    H137266   2.216   2.767   7.778  0.1947 -1.1868 -0.2501
 4357TIP3    H237267   2.303   2.813   7.893 -0.0846 -0.9703 -0.1229
 4358TIP3   OH237268   2.858   0.430   8.630 -0.2720 -0.2561  0.1989
 4358TIP3    H137269   2.773   0.410   8.671 -0.1511  1.4290  1.3422
 4358TIP3    H237270   2.845   0.516   8.590  0.6057 -0.4604 -0.5514
 4359TIP3   OH237271   6.606   2.155   7.068  0.2741 -1.0537  0.1286
 4359TIP3    H137272   6.596   2.088   7.001 -1.5069 -1.1033  0.3882
 4359TIP3    H237273   6.668   2.118   7.131  2.6758 -0.6474 -1.8771
 4360TIP3   OH237274   7.495   7.555   8.558 -0.0760 -0.6656  0.0440
 4360TIP3    H137275   7.463   7.468   8.581 -2.9560  0.4607  0.7311
 4360TIP3    H237276   7.476   7.563   8.464  2.3559 -1.5371 -0.6065
 4361TIP3   OH237277   0.717   4.377   9.297 -0.2758 -0.3470  0.0963
 4361TIP3    H137278   0.622   4.372   9.286 -0.1256 -1.1618 -0.9682
 4361TIP3    H237279   0.736   4.321   9.372 -0.7098  0.5323  0.8893
 4362TIP3   OH237280   5.131   0.233   8.783  0.1264 -0.3037 -0.4630
 4362TIP3    H137281   5.192   0.174   8.826  1.6849 -0.8136 -3.1676
 4362TIP3    H237282   5.135   0.314   8.834  2.6442 -0.5283 -0.1837
 4363TIP3   OH237283   2.435   5.921   8.486 -0.1663  0.2456  0.0273
 4363TIP3    H137284   2.347   5.898   8.459 -0.3269  1.5555 -0.6438
 4363TIP3    H237285   2.472   5.839   8.520 -0.9809 -0.7792 -1.4212
 4364TIP3   OH237286   6.098   3.944   9.361  0.3358 -0.6083  0.0592
 4364TIP3    H137287   6.172   3.961   9.421 -0.2291  0.4211  0.4971
 4364TIP3    H237288   6.022   3.935   9.419 -0.0067 -0.9162 -0.4339
 4365TIP3   OH237289   0.645   0.742   8.258  0.3771  0.7390  0.7678
 4365TIP3    H137290   0.589   0.720   8.332 -1.4055 -0.1313 -0.7603
 4365TIP3    H237291   0.678   0.829   8.277 -0.7730  0.8992  2.1632
 4366TIP3   OH237292   0.214   6.393   8.284  0.2858 -0.2451 -0.3732
 4366TIP3    H137293   0.121   6.398   8.306  0.6251  1.3247  0.9147
 4366TIP3    H237294   0.255   6.358   8.363  0.9752  0.8490 -0.2271
 4367TIP3   OH237295   6.782   7.025   8.712  0.0890  0.1129 -0.3223
 4367TIP3    H137296   6.794   6.962   8.641 -0.9588  0.9811 -1.2973
 4367TIP3    H237297   6.762   6.970   8.789  0.8365 -0.8133 -0.7688
 4368TIP3   OH237298   0.518   5.987   7.437 -0.1084 -0.2304 -0.1672
 4368TIP3    H137299   0.610   5.974   7.461 -0.5254  1.2439  2.5239
 4368TIP3    H237300   0.510   5.942   7.353  3.0872 -0.3328 -0.5669
 4369TIP3   OH237301   1.486   4.892   9.202 -0.1408  0.2059  0.0572
 4369TIP3    H137302   1.495   4.987   9.211  2.3195  0.1315 -0.7184
 4369TIP3    H237303   1.492   4.877   9.108  2.0406 -0.8460  0.3098
 4370TIP3   OH237304   6.841   2.325   8.415  0.3216  0.5090  0.6376
 4370TIP3    H137305   6.887   2.385   8.357  2.0096 -0.4712  0.9004
 4370TIP3    H237306   6.758   2.308   8.371  1.7340 -0.6046 -1.8340
 4371TIP3   OH237307   4.079   7.632   6.542  0.3044 -0.2122 -0.3845
 4371TIP3    H137308   3.987   7.636   6.569 -0.3934  0.6108 -2.5923
 4371TIP3    H237309   4.116   7.715   6.570 -0.2349  0.3686 -1.3385
 4372TIP3   OH237310   0.130   4.723   8.374  0.6791  0.0507 -0.0805
 4372TIP3    H137311   0.150   4.775   8.296 -0.9370 -0.1882 -0.6817
 4372TIP3    H237312   0.149   4.782   8.447  0.6547  0.8368 -0.6983
 4373TIP3   OH237313   4.173   0.530   8.335 -0.0591  0.6143 -0.0148
 4373TIP3    H137314   4.131   0.487   8.260  2.1957  0.7302 -1.4388
 4373TIP3    H237315   4.117   0.605   8.355 -2.3279 -1.0926  0.4359
 4374TIP3   OH237316   7.533   3.059   8.827  0.4137 -0.5626 -0.2957
 4374TIP3    H137317   7.605   3.006   8.860  0.8694  0.1678 -0.0959
 4374TIP3    H237318   7.521   3.127   8.893 -0.4151 -0.6386 -0.3605
 4375TIP3   OH237319   2.461   6.611   9.337  0.2516  0.3406 -0.3514
 4375TIP3    H137320   2.376   6.568   9.332 -0.1149  1.0939 -0.9216
 4375TIP3    H237321   2.520   6.546   9.375 -0.4172 -0.4310 -0.6204
 4376TIP3   OH237322   3.417   0.769   8.148 -0.1078 -0.9375  0.1328
 4376TIP3    H137323   3.336   0.743   8.103 -0.8210  0.9510  0.2306
 4376TIP3    H237324   3.486   0.751   8.084 -0.9459  0.2878 -1.2118
 4377TIP3   OH237325   5.940   1.017   8.920 -0.1228  0.4207 -0.2200
 4377TIP3    H137326   5.970   1.008   8.830  1.2303  0.7058  0.1768
 4377TIP3    H237327   5.992   0.954   8.969  0.1465  1.2367  0.5667
 4378TIP3   OH237328   4.734   2.092   7.971  0.5462  0.1158 -0.3173
 4378TIP3    H137329   4.638   2.095   7.968  0.5646  0.0472 -1.5499
 4378TIP3    H237330   4.755   2.099   8.064 -0.5876  1.9604 -0.1405
 4379TIP3   OH237331   5.673   0.407   7.897 -0.2818 -0.0222  0.1610
 4379TIP3    H137332   5.663   0.448   7.983 -1.0640  0.2074 -0.0338
 4379TIP3    H237333   5.665   0.314   7.914 -0.9509  0.0511  0.2737
 4380TIP3   OH237334   6.602   4.093   8.866  0.1926  0.1017 -0.7211
 4380TIP3    H137335   6.664   4.159   8.897  0.2378  0.2511 -1.1223
 4380TIP3    H237336   6.650   4.010   8.875 -0.1229  0.0227  0.4707
 4381TIP3   OH237337   1.592   2.289   9.228 -0.5548  0.1152 -0.0255
 4381TIP3    H137338   1.573   2.382   9.221 -4.0823 -0.1592  2.9328
 4381TIP3    H237339   1.671   2.285   9.282 -0.4144  1.3858 -0.1100
 4382TIP3   OH237340   7.094   5.751   8.879 -0.2876 -0.3533 -0.3361
 4382TIP3    H137341   7.172   5.721   8.834  0.9134  0.7103  0.9292
 4382TIP3    H237342   7.123   5.828   8.928 -1.9107 -0.4543  0.8720
 4383TIP3   OH237343   7.579   7.481   6.683 -0.3611  0.2335 -0.2645
 4383TIP3    H137344   7.515   7.440   6.625  0.7839 -1.3570 -0.4875
 4383TIP3    H237345   7.621   7.408   6.728  0.7075  1.2765  0.5044
 4384TIP3   OH237346   0.176   3.242   7.780 -0.3748 -0.0490  0.2153
 4384TIP3    H137347   0.116   3.295   7.728 -2.3922 -2.2180  0.1740
 4384TIP3    H237348   0.251   3.227   7.723 -0.3495  1.6187 -0.2265
 4385TIP3   OH237349   5.533   7.224   8.295 -0.5687  0.2534  0.2882
 4385TIP3    H137350   5.485   7.306   8.284  1.2525  1.2978 -0.0755
 4385TIP3    H237351   5.576   7.231   8.380 -0.4585 -0.3661  0.2949
 4386TIP3   OH237352   4.448   1.404   8.515 -0.6716 -0.3656  0.0467
 4386TIP3    H137353   4.515   1.465   8.545 -0.3321 -0.6092 -0.2093
 4386TIP3    H237354   4.472   1.320   8.555 -1.9933 -0.0383  1.6574
 4387TIP3   OH237355   0.069   0.678   7.880 -0.1013 -0.0781 -0.1093
 4387TIP3    H137356  -0.009   0.682   7.826 -1.9754 -0.9455  2.3551
 4387TIP3    H237357   0.108   0.593   7.859 -1.7307 -1.1541  0.9958
 4388TIP3   OH237358   2.452   4.946   7.589  0.1761  0.6896 -0.2761
 4388TIP3    H137359   2.432   4.860   7.551 -1.4482  0.5125  0.8759
 4388TIP3    H237360   2.504   4.926   7.667 -1.3843  0.6230  0.7743
 4389TIP3   OH237361   3.729   7.363   7.446 -0.0443 -0.5761  0.0850
 4389TIP3    H137362   3.787   7.364   7.522 -0.1701  1.4494  0.2158
 4389TIP3    H237363   3.699   7.454   7.438 -0.0700 -0.7429 -2.3518
 4390TIP3   OH237364   5.719   1.217   8.118  0.3285 -0.6171  0.3798
 4390TIP3    H137365   5.726   1.297   8.170 -0.2167 -2.4579  3.5480
 4390TIP3    H237366   5.626   1.211   8.096  0.3822 -0.3599  0.0772
 4391TIP3   OH237367   2.494   1.342   8.457  0.4373  0.2649 -0.0399
 4391TIP3    H137368   2.544   1.420   8.434  0.8187  0.2933  0.8451
 4391TIP3    H237369   2.558   1.283   8.498 -0.5174  1.0444  2.8475
 4392TIP3   OH237370   5.539   3.458   7.437 -0.1660 -0.1951  0.3853
 4392TIP3    H137371   5.570   3.411   7.360 -0.4479 -0.2175  0.2846
 4392TIP3    H237372   5.545   3.394   7.508  0.0096 -0.2009  0.3657
 4393TIP3   OH237373   1.080   4.472   8.267  0.0654  0.3873  0.1814
 4393TIP3    H137374   1.001   4.441   8.223 -1.3549  3.0529  0.6278
 4393TIP3    H237375   1.150   4.416   8.233 -1.8092 -1.3355 -1.0907
 4394TIP3   OH237376   0.864   3.541   8.081 -0.1428  0.0459  0.0604
 4394TIP3    H137377   0.889   3.449   8.088 -1.9571 -0.5161 -0.3852
 4394TIP3    H237378   0.811   3.545   8.001  0.3243  1.5829 -0.2045
 4395TIP3   OH237379   3.688   5.642   8.600  0.1846 -0.3281 -0.4903
 4395TIP3    H137380   3.598   5.674   8.605  0.6268  1.4573 -2.5377
 4395TIP3    H237381   3.732   5.683   8.675 -0.2050  0.6036 -0.7613
 4396TIP3   OH237382   7.277   1.003   7.881 -0.2436  0.1017  0.3406
 4396TIP3    H137383   7.230   1.028   7.961 -0.0900 -1.1598  0.8495
 4396TIP3    H237384   7.309   1.086   7.845  1.3447  0.5851  2.6228
 4397TIP3   OH237385   5.254   2.784   8.866 -0.6167 -0.0104  0.4031
 4397TIP3    H137386   5.348   2.780   8.882 -0.6594 -0.8621  0.5082
 4397TIP3    H237387   5.247   2.814   8.775 -0.1757 -1.4557 -0.1465
 4398TIP3   OH237388   4.862   4.746   9.363 -0.3422  0.0644 -0.2110
 4398TIP3    H137389   4.852   4.656   9.392  1.3457 -0.0104  0.2795
 4398TIP3    H237390   4.828   4.747   9.274  0.7913 -1.3815 -0.6880
 4399TIP3   OH237391   5.168   0.289   9.234  0.0848  0.2141 -0.0032
 4399TIP3    H137392   5.136   0.205   9.269 -0.6540  1.1502  1.6576
 4399TIP3    H237393   5.089   0.332   9.201  0.2157  0.9174  0.5919
 4400TIP3   OH237394   0.399   1.256   8.774 -0.8398  0.0518  0.0349
 4400TIP3    H137395   0.333   1.246   8.843  0.1549  0.0202  1.0158
 4400TIP3    H237396   0.358   1.218   8.696 -1.4405 -1.3052  0.9663
 4401TIP3   OH237397   7.487   5.427   8.172  0.1133  0.5881  0.7427
 4401TIP3    H137398   7.432   5.350   8.158  2.0689 -0.4056 -2.6760
 4401TIP3    H237399   7.445   5.496   8.119  0.0653  0.9579  1.2611
 4402TIP3   OH237400   1.082   3.344   7.348  0.1002 -0.1789  0.2170
 4402TIP3    H137401   1.170   3.365   7.379  0.3831  0.2291 -0.8273
 4402TIP3    H237402   1.083   3.368   7.255 -0.9076 -0.7953  0.0336
 4403TIP3   OH237403   1.514   2.851   8.138  0.2101  0.0434  0.6559
 4403TIP3    H137404   1.453   2.837   8.211 -2.2587  0.1399 -1.2724
 4403TIP3    H237405   1.525   2.764   8.100  1.5482 -0.0172  1.1180
 4404TIP3   OH237406   4.047   0.281   9.481 -0.5876  0.5756 -0.1737
 4404TIP3    H137407   4.083   0.348   9.423  0.8119  0.6268  0.6888
 4404TIP3    H237408   3.955   0.304   9.491  0.0321  2.9302  0.7904
 4405TIP3   OH237409   6.125   7.215   6.884 -0.2720 -0.2646  0.4456
 4405TIP3    H137410   6.212   7.224   6.922  1.2785 -0.8209 -2.6578
 4405TIP3    H237411   6.135   7.241   6.793 -2.9258 -2.1686 -0.5400
 4406TIP3   OH237412   1.845   5.234   8.059 -0.2155  0.0004 -0.0778
 4406TIP3    H137413   1.918   5.189   8.016  1.8672 -0.3967  3.4396
 4406TIP3    H237414   1.784   5.163   8.082  0.3666 -0.3116  0.5720
 4407TIP3   OH237415   2.352   2.236   8.481  0.3004 -0.0186 -0.6291
 4407TIP3    H137416   2.323   2.260   8.393 -1.5190  1.4480  0.3151
 4407TIP3    H237417   2.371   2.142   8.475 -0.9143 -0.1953 -2.2927
 4408TIP3   OH237418   1.193   2.798   9.511  0.6914 -0.3910  0.6476
 4408TIP3    H137419   1.152   2.752   9.437  1.7869 -0.8955  0.3338
 4408TIP3    H237420   1.275   2.832   9.475  0.3774  0.9693  1.1466
 4409TIP3   OH237421   2.970   0.659   7.505 -0.0407 -0.4263 -0.2807
 4409TIP3    H137422   2.920   0.638   7.584 -0.3471  1.1392 -0.0290
 4409TIP3    H237423   3.061   0.649   7.531 -0.1073  0.8320  0.5436
 4410TIP3   OH237424   1.894   7.317   6.719 -0.0633 -0.3512  0.4688
 4410TIP3    H137425   1.959   7.319   6.789  0.7686  0.4635 -0.3077
 4410TIP3    H237426   1.829   7.383   6.745  1.2525  1.3773 -0.4397
 4411TIP3   OH237427   0.882   5.239   8.332 -0.3295  0.1284 -0.2414
 4411TIP3    H137428   0.923   5.272   8.252 -2.2091  0.2018 -1.2511
 4411TIP3    H237429   0.793   5.275   8.328 -0.6664 -0.4558  1.5391
 4412TIP3   OH237430   6.324   3.166   7.923 -0.2005 -0.1584  0.3167
 4412TIP3    H137431   6.367   3.251   7.908  0.0360 -0.2240  0.6186
 4412TIP3    H237432   6.258   3.185   7.989 -0.8934  0.0212 -0.4177
 4413TIP3   OH237433   1.726   0.330   8.841  0.2474  0.2259  0.1676
 4413TIP3    H137434   1.638   0.292   8.846  0.1497  0.4979  0.5881
 4413TIP3    H237435   1.761   0.300   8.757  0.5390 -1.5965  0.8944
 4414TIP3   OH237436   2.751   2.603   7.484 -0.5920  0.6765 -0.4102
 4414TIP3    H137437   2.790   2.658   7.553  0.7506  0.9035 -1.2958
 4414TIP3    H237438   2.674   2.564   7.525 -0.1960  1.3037  1.0178
 4415TIP3   OH237439   0.620   7.161   7.792 -0.4212  0.0684 -0.2575
 4415TIP3    H137440   0.596   7.135   7.703  2.1745  1.4120 -1.4610
 4415TIP3    H237441   0.714   7.143   7.798 -0.8442 -1.8469  2.9677
 4416TIP3   OH237442   0.178   7.311   8.916 -0.2995 -0.4192 -0.1173
 4416TIP3    H137443   0.163   7.350   8.830 -1.8564  0.2177  0.3975
 4416TIP3    H237444   0.091   7.280   8.944  0.4990 -2.2891  0.4520
 4417TIP3   OH237445   6.052   3.847   8.605  0.1315  0.3580 -0.4801
 4417TIP3    H137446   6.078   3.925   8.653 -3.2946  2.5818 -1.7773
 4417TIP3    H237447   6.002   3.795   8.668 -1.0647  1.3312 -0.5925
 4418TIP3   OH237448   2.689   3.675   7.404 -0.2526  0.5594  0.4713
 4418TIP3    H137449   2.678   3.694   7.311  2.3139  0.7835  0.1438
 4418TIP3    H237450   2.711   3.759   7.443 -0.8919  0.3896  1.2217
 4419TIP3   OH237451   5.397   7.649   7.156 -0.0984 -0.7670  0.0330
 4419TIP3    H137452   5.449   7.675   7.080  0.7274 -1.2729  0.4173
 4419TIP3    H237453   5.347   7.573   7.125 -1.0959  0.0938 -0.5209
 4420TIP3   OH237454   1.891   5.756   9.378  0.0046 -0.5463  0.0600
 4420TIP3    H137455   1.906   5.850   9.372  0.6979 -0.3457  3.1342
 4420TIP3    H237456   1.796   5.748   9.390  0.2070  0.1020  2.7148
 4421TIP3   OH237457   2.278   1.406   9.537  0.2193 -0.7932  0.4269
 4421TIP3    H137458   2.278   1.461   9.459  1.0803 -0.7916  0.4207
 4421TIP3    H237459   2.202   1.435   9.587 -0.7643 -1.2898 -0.7543
 4422TIP3   OH237460   5.062   6.225   7.702 -0.0007  0.4012  0.3256
 4422TIP3    H137461   5.131   6.201   7.764 -0.2451 -0.9403  0.0877
 4422TIP3    H237462   5.057   6.152   7.641 -1.8483  0.3452  0.5035
 4423TIP3   OH237463   4.728   4.529   9.441  0.0343  0.0135 -0.3061
 4423TIP3    H137464   4.645   4.576   9.449  0.7970  1.2216  0.8524
 4423TIP3    H237465   4.702   4.438   9.425 -1.4864  0.5494 -1.0928
 4424TIP3   OH237466   2.272   1.023   8.413  0.1002 -0.6114 -0.0849
 4424TIP3    H137467   2.211   1.002   8.342 -0.2774 -1.0862  0.3664
 4424TIP3    H237468   2.224   1.001   8.493  0.9421 -1.1962  0.2739
 4425TIP3   OH237469   7.361   4.886   7.589  0.3891  0.0309  0.1612
 4425TIP3    H137470   7.306   4.821   7.547  0.6684 -1.3154  1.7555
 4425TIP3    H237471   7.427   4.909   7.523  0.0567 -1.0148 -0.5532
 4426TIP3   OH237472   4.257   7.629   7.406  0.0890 -0.2284  0.3547
 4426TIP3    H137473   4.164   7.616   7.390  0.1392  0.8779 -1.0256
 4426TIP3    H237474   4.282   7.701   7.348  1.9130 -0.8503  0.2944
 4427TIP3   OH237475   0.215   0.091   8.994 -0.2268 -0.1179  0.7945
 4427TIP3    H137476   0.247   0.009   9.031  0.7848 -0.4283 -0.6392
 4427TIP3    H237477   0.293   0.147   8.990 -0.6713  0.5062  0.7435
 4428TIP3   OH237478   6.508   3.109   7.283  0.5048  0.2200 -0.3496
 4428TIP3    H137479   6.587   3.057   7.268 -0.7422 -1.4998 -1.2761
 4428TIP3    H237480   6.540   3.199   7.291  2.5210 -0.3935 -0.9132
 4429TIP3   OH237481   4.220   6.444   8.391 -0.6513 -0.2934  0.5587
 4429TIP3    H137482   4.235   6.457   8.484  0.8960  0.4104  0.2308
 4429TIP3    H237483   4.251   6.355   8.374 -2.6000 -1.1118  1.0200
 4430TIP3   OH237484   2.610   2.065   8.127 -0.7474  0.0392 -0.3614
 4430TIP3    H137485   2.684   2.087   8.071 -0.1807 -0.6234  0.1123
 4430TIP3    H237486   2.533   2.097   8.079 -0.2833 -0.5277 -1.5134
 4431TIP3   OH237487   1.799   4.549   8.071 -0.8144  0.1630 -0.1012
 4431TIP3    H137488   1.826   4.599   7.994  0.3943 -0.2283  0.0482
 4431TIP3    H237489   1.846   4.466   8.063  2.4618  1.4546  2.9360
 4432TIP3   OH237490   3.207   7.115   7.783  0.6971  0.2132 -0.3191
 4432TIP3    H137491   3.253   7.096   7.701 -0.7586 -1.8014 -0.7412
 4432TIP3    H237492   3.218   7.209   7.795  2.0772  0.3387 -2.1181
 4433TIP3   OH237493   4.185   0.193   6.581  0.2650 -0.6088 -0.1465
 4433TIP3    H137494   4.273   0.197   6.619  0.0878  2.3291  0.1902
 4433TIP3    H237495   4.157   0.285   6.577 -2.7525 -1.4586 -0.3532
 4434TIP3   OH237496   2.176   6.771   9.135 -0.2204  0.4842 -0.2837
 4434TIP3    H137497   2.149   6.776   9.043  0.6494  0.2090 -0.5636
 4434TIP3    H237498   2.272   6.775   9.132 -0.1374 -0.5736  0.5454
 4435TIP3   OH237499   0.480   3.715   8.388  0.1769 -0.3450 -0.4737
 4435TIP3    H137500   0.495   3.621   8.400 -1.0749 -0.5147 -0.1256
 4435TIP3    H237501   0.433   3.721   8.305 -0.7185 -0.1405  0.0334
 4436TIP3   OH237502   1.256   5.338   8.638 -0.3858  0.5558  0.1035
 4436TIP3    H137503   1.299   5.266   8.591 -0.5771  0.7503 -0.3817
 4436TIP3    H237504   1.295   5.337   8.725 -0.9558 -0.6521  0.3707
 4437TIP3   OH237505   1.826   5.707   7.803 -0.2724  0.1777 -0.1737
 4437TIP3    H137506   1.749   5.761   7.788 -1.2184 -1.3273 -1.0666
 4437TIP3    H237507   1.793   5.628   7.846  0.5323 -1.0133 -1.6084
 4438TIP3   OH237508   1.711   2.067   9.574  0.3532 -0.8623  0.2780
 4438TIP3    H137509   1.637   2.007   9.567 -2.5125  2.2384  1.5061
 4438TIP3    H237510   1.719   2.084   9.668  3.6116 -2.0479  0.3532
 4439TIP3   OH237511   5.357   0.700   7.253 -0.1353  0.4851  0.1688
 4439TIP3    H137512   5.430   0.717   7.193 -0.6393 -0.8673 -0.9011
 4439TIP3    H237513   5.397   0.696   7.340  0.8847  0.8941 -0.2647
 4440TIP3   OH237514   3.149   5.840   9.482 -0.3874  0.0006 -0.3692
 4440TIP3    H137515   3.175   5.926   9.449 -0.7734 -0.0638 -0.8432
 4440TIP3    H237516   3.080   5.858   9.545 -0.8896  0.0015 -0.9109
 4441TIP3   OH237517   0.330   4.659   9.133 -0.4256 -0.4241  0.0314
 4441TIP3    H137518   0.356   4.713   9.208  1.0772 -0.1327 -0.6623
 4441TIP3    H237519   0.318   4.721   9.061 -0.8855 -0.7918 -0.2155
 4442TIP3   OH237520   0.365   2.248   6.718 -0.1989  0.1845 -0.2268
 4442TIP3    H137521   0.281   2.254   6.672  0.9345 -0.4656 -2.5160
 4442TIP3    H237522   0.419   2.318   6.680  0.5815  0.0643  0.6133
 4443TIP3   OH237523   0.242   7.033   9.026  0.0880 -0.0456  0.1609
 4443TIP3    H137524   0.319   6.976   9.030  0.1074 -0.1405 -1.0801
 4443TIP3    H237525   0.275   7.119   9.054  0.1811 -0.4896  1.4959
 4444TIP3   OH237526   2.959   0.244   8.465 -0.4624  0.1910  0.1649
 4444TIP3    H137527   2.931   0.320   8.514 -1.2138  0.3972 -0.5624
 4444TIP3    H237528   2.999   0.186   8.530 -1.8071  0.2662  1.0873
 4445TIP3   OH237529   5.683   2.038   9.116  0.2383  0.7629 -0.1154
 4445TIP3    H137530   5.608   2.098   9.111 -0.1453  0.3553  0.6671
 4445TIP3    H237531   5.662   1.979   9.188  0.8909  0.0562 -0.4959
 4446TIP3   OH237532   1.003   5.571   8.344  0.0103  0.1927  0.2877
 4446TIP3    H137533   0.955   5.634   8.289  1.3380  0.1249 -1.0180
 4446TIP3    H237534   1.079   5.547   8.291  0.5573 -1.0308  1.5810
 4447TIP3   OH237535   2.366   4.730   8.214 -0.2900 -0.0931  0.3195
 4447TIP3    H137536   2.389   4.637   8.202  0.6639  0.0366  0.9447
 4447TIP3    H237537   2.293   4.729   8.276  0.4730 -0.3985  1.2384
 4448TIP3   OH237538   1.307   0.988   8.695  0.2225 -0.4113  0.4520
 4448TIP3    H137539   1.348   1.049   8.757  1.9677  1.0219 -1.9219
 4448TIP3    H237540   1.343   1.013   8.610 -3.6788 -0.8330 -1.5397
 4449TIP3   OH237541   2.580   7.153   8.014  0.0389 -0.2495 -0.2689
 4449TIP3    H137542   2.574   7.155   7.919 -0.9937  1.0583 -0.1925
 4449TIP3    H237543   2.671   7.179   8.032 -0.1072  0.7340 -0.8687
 4450TIP3   OH237544   6.351   7.036   7.343 -0.1588 -0.2280  0.3175
 4450TIP3    H137545   6.381   6.962   7.395 -0.9202 -1.0385 -0.3630
 4450TIP3    H237546   6.259   7.016   7.324 -0.1537  0.5074 -0.5373
 4451TIP3   OH237547   6.146   4.621   8.311  0.1699  0.2442  0.4045
 4451TIP3    H137548   6.144   4.545   8.253 -1.0910 -0.0375  0.7854
 4451TIP3    H237549   6.080   4.680   8.275  1.5965  1.4711 -0.2669
 4452TIP3   OH237550   6.636   5.066   9.242 -0.1916 -0.4473 -0.3010
 4452TIP3    H137551   6.545   5.040   9.256 -0.2155 -0.9009 -1.2101
 4452TIP3    H237552   6.687   5.001   9.291 -0.3123 -1.3106 -1.2627
 4453TIP3   OH237553   7.473   6.767   8.606 -0.3971 -0.4366  0.7659
 4453TIP3    H137554   7.510   6.855   8.619 -0.1296 -0.5415  0.7202
 4453TIP3    H237555   7.463   6.733   8.694 -1.9790  0.2381  0.8746
 4454TIP3   OH237556   1.148   3.883   6.996 -0.3453 -0.4577  0.2742
 4454TIP3    H137557   1.071   3.830   7.017  0.1034 -0.4062  2.1582
 4454TIP3    H237558   1.142   3.959   7.053  0.9994 -0.3471  0.2935
 4455TIP3   OH237559   0.028   6.710   9.062  0.2500  0.3218 -0.0396
 4455TIP3    H137560   0.081   6.661   9.000  0.7344  1.1098 -0.2585
 4455TIP3    H237561   0.087   6.728   9.136 -0.2983 -0.5456  0.6250
 4456TIP3   OH237562   3.105   1.135   6.916 -0.1935 -0.6703  0.7386
 4456TIP3    H137563   3.131   1.059   6.865 -1.2066 -1.1892  0.9618
 4456TIP3    H237564   3.153   1.208   6.877 -1.5611 -0.8839 -1.5156
 4457TIP3   OH237565   4.660   4.224   8.737  0.1266 -0.2020 -0.6586
 4457TIP3    H137566   4.741   4.175   8.724  0.9129 -0.1940  2.9844
 4457TIP3    H237567   4.689   4.307   8.777 -1.6001  0.0729  0.1100
 4458TIP3   OH237568   7.660   1.444   8.868  0.2919 -1.0502 -0.4571
 4458TIP3    H137569   7.640   1.353   8.844 -0.6142 -0.7848 -0.7234
 4458TIP3    H237570   7.591   1.469   8.929 -0.8761  0.2097 -2.1936
 4459TIP3   OH237571   0.984   5.193   7.389 -0.1644 -0.2781  0.5933
 4459TIP3    H137572   0.962   5.248   7.465 -1.8705  0.3320 -0.2774
 4459TIP3    H237573   1.032   5.251   7.330 -2.2949  0.5236 -0.4969
 4460TIP3   OH237574   2.499   6.735   8.814  0.4759  0.1540 -0.5662
 4460TIP3    H137575   2.439   6.803   8.784  0.7312  0.5437 -0.1967
 4460TIP3    H237576   2.456   6.653   8.789 -1.2742  0.3289  1.5927
 4461TIP3   OH237577   5.528   0.711   9.253  0.4719 -0.0782  0.4652
 4461TIP3    H137578   5.453   0.722   9.310  0.0183  0.8245 -0.2669
 4461TIP3    H237579   5.497   0.739   9.167  1.6317  0.2783  0.1416
 4462TIP3   OH237580   5.112   6.958   7.688  0.0792  0.1606 -0.1446
 4462TIP3    H137581   5.181   6.997   7.634 -0.4957  1.0008 -0.3147
 4462TIP3    H237582   5.117   7.006   7.771  0.2450 -0.3596  0.1455
 4463TIP3   OH237583   0.333   2.754   7.970  0.3243  0.5273  0.1498
 4463TIP3    H137584   0.406   2.782   7.914  0.3501 -0.3826 -0.2916
 4463TIP3    H237585   0.373   2.741   8.056  0.4074  1.3477  0.2407
 4464TIP3   OH237586   4.035   3.211   9.212  0.5976  0.2916  0.2409
 4464TIP3    H137587   3.999   3.192   9.125  0.4045  2.0714 -0.1149
 4464TIP3    H237588   3.974   3.171   9.273 -0.3564  0.7103 -0.4157
 4465TIP3   OH237589   5.107   4.631   9.425 -0.2442  0.1801  0.2742
 4465TIP3    H137590   5.086   4.711   9.376  0.2275 -1.4441 -2.8398
 4465TIP3    H237591   5.192   4.648   9.465 -0.0778  1.2083 -0.4835
 4466TIP3   OH237592   0.480   5.612   7.244  0.0651  0.0457  0.3914
 4466TIP3    H137593   0.468   5.704   7.223  1.0534 -0.0120 -0.4925
 4466TIP3    H237594   0.525   5.575   7.168  0.4090 -0.9860  1.0716
 4467TIP3   OH237595   1.050   3.079   8.454 -0.6333 -0.5643  0.3007
 4467TIP3    H137596   1.005   3.088   8.539 -1.9961  0.2496 -0.4689
 4467TIP3    H237597   1.060   3.169   8.423  0.1708 -0.8381 -0.2657
 4468TIP3   OH237598   4.518   6.653   8.905 -0.3851  0.0199 -0.2293
 4468TIP3    H137599   4.609   6.658   8.876 -1.0191  1.6773 -2.2002
 4468TIP3    H237600   4.512   6.569   8.952  1.9728 -0.4299 -0.6175
 4469TIP3   OH237601   6.996   6.693   8.254  0.7572 -0.5277  0.5033
 4469TIP3    H137602   7.039   6.660   8.175  0.0038 -0.8565  0.2173
 4469TIP3    H237603   7.059   6.680   8.324  1.1042 -1.0355  0.0968
 4470TIP3   OH237604   3.312   2.780   8.096 -0.0830 -0.7362  0.6790
 4470TIP3    H137605   3.301   2.842   8.024 -0.8770 -0.6822  0.8479
 4470TIP3    H237606   3.313   2.835   8.174  0.5191 -0.8228  0.7422
 4471TIP3   OH237607   5.553   6.492   7.584 -0.2941  0.2084 -0.2130
 4471TIP3    H137608   5.641   6.524   7.603 -0.0990 -0.2299 -0.3887
 4471TIP3    H237609   5.512   6.484   7.670 -0.0930  0.2007 -0.1165
 4472TIP3   OH237610   3.449   6.132   8.822 -0.2047  0.1333 -0.5081
 4472TIP3    H137611   3.361   6.118   8.786  0.5538 -2.6088 -1.4884
 4472TIP3    H237612   3.445   6.095   8.910 -0.1097  0.2871 -0.4394
 4473TIP3   OH237613   6.204   2.469   7.973 -0.1732  0.0792 -0.6812
 4473TIP3    H137614   6.127   2.419   8.000 -0.3625  0.0700 -1.2279
 4473TIP3    H237615   6.199   2.550   8.024 -0.4439 -0.0044 -0.5757
 4474TIP3   OH237616   6.651   2.627   8.370 -0.1875 -0.2286 -0.1290
 4474TIP3    H137617   6.700   2.598   8.447  0.3387 -0.4824 -0.5536
 4474TIP3    H237618   6.717   2.670   8.315 -0.8630  1.4388  0.3046
 4475TIP3   OH237619   4.526   6.304   9.272  0.3560 -0.4545 -0.0146
 4475TIP3    H137620   4.556   6.217   9.245 -0.9009 -0.8672 -0.1236
 4475TIP3    H237621   4.467   6.287   9.346  1.3011  0.4333  0.9708
 4476TIP3   OH237622   3.592   1.986   7.004 -0.7079  0.2459  0.5871
 4476TIP3    H137623   3.601   2.046   6.930  1.9522 -1.3662 -0.5329
 4476TIP3    H237624   3.652   2.020   7.070  0.7481 -1.0574 -0.0207
 4477TIP3   OH237625   2.947   3.332   8.786  0.1618  0.6135 -0.6296
 4477TIP3    H137626   2.953   3.280   8.706  0.2600  2.2040 -1.7066
 4477TIP3    H237627   3.037   3.346   8.813  0.0983 -1.7731  1.0780
 4478TIP3   OH237628   6.488   2.632   8.955 -0.0077 -0.1541 -0.0961
 4478TIP3    H137629   6.484   2.714   8.905  0.7990  0.7147  1.1861
 4478TIP3    H237630   6.554   2.580   8.910 -1.1327 -0.4842 -1.4257
 4479TIP3   OH237631   1.634   5.920   7.820  0.3217 -0.5303  0.6093
 4479TIP3    H137632   1.627   5.992   7.757 -1.6304 -0.5949  0.6943
 4479TIP3    H237633   1.689   5.955   7.890  3.7187 -0.9022 -1.6400
 4480TIP3   OH237634   6.447   0.776   7.011 -0.1329 -0.1430  0.4178
 4480TIP3    H137635   6.439   0.786   6.916  0.7833  1.3137  0.4586
 4480TIP3    H237636   6.379   0.834   7.047  0.0822 -0.0345  0.6516
 4481TIP3   OH237637   2.162   3.344   8.559 -0.9711 -0.2548  0.0834
 4481TIP3    H137638   2.183   3.260   8.599 -0.3079  0.4663  1.3203
 4481TIP3    H237639   2.076   3.331   8.519 -1.9942 -0.8700  2.3090
 4482TIP3   OH237640   2.684   1.490   8.682 -0.0839 -0.5764  0.5152
 4482TIP3    H137641   2.708   1.399   8.666 -4.4333 -2.3175  2.1277
 4482TIP3    H237642   2.668   1.527   8.595  0.3274 -1.8144 -0.1040
 4483TIP3   OH237643   5.306   4.752   7.767 -0.6495  0.5577 -0.5161
 4483TIP3    H137644   5.327   4.702   7.846  2.9784  1.9917 -0.3867
 4483TIP3    H237645   5.218   4.786   7.782 -0.9580 -1.0964  1.8516
 4484TIP3   OH237646   6.306   5.169   8.096  0.0342  0.3850 -0.0390
 4484TIP3    H137647   6.329   5.194   8.006 -0.0856  0.4016 -0.0658
 4484TIP3    H237648   6.262   5.085   8.087 -1.0252  0.9268 -0.1219
 4485TIP3   OH237649   4.115   4.062   9.306  0.1217  0.1796 -0.3680
 4485TIP3    H137650   4.052   4.004   9.265  0.5169 -1.4157  1.1634
 4485TIP3    H237651   4.089   4.150   9.277 -1.0294 -0.6541 -2.0324
 4486TIP3   OH237652   3.509   0.698   9.346  0.4009 -0.9332  0.1311
 4486TIP3    H137653   3.479   0.639   9.415  2.0816 -0.7327  1.0722
 4486TIP3    H237654   3.500   0.647   9.265 -0.4291 -1.6092  0.6357
 4487TIP3   OH237655   6.637   3.407   7.758  0.4932 -0.3197  0.0467
 4487TIP3    H137656   6.723   3.446   7.772  0.2860 -0.5714  2.4266
 4487TIP3    H237657   6.622   3.415   7.664  3.4271 -0.9472 -0.5625
 4488TIP3   OH237658   2.541   7.411   8.386  0.7347  0.5353 -0.1561
 4488TIP3    H137659   2.500   7.343   8.440  0.7011  2.3659  2.3429
 4488TIP3    H237660   2.625   7.373   8.359  0.7664 -0.5082  1.2527
 4489TIP3   OH237661   6.233   6.680   8.734 -0.4071 -0.3155 -0.0819
 4489TIP3    H137662   6.214   6.663   8.642 -0.8792  1.0971 -0.2630
 4489TIP3    H237663   6.149   6.664   8.778 -0.0747 -1.4203  0.1896
 4490TIP3   OH237664   0.320   3.341   8.031 -0.1795  0.0740  0.0189
 4490TIP3    H137665   0.266   3.311   7.957 -1.6067 -0.0872  1.0851
 4490TIP3    H237666   0.302   3.279   8.101  1.4883 -0.0195  0.4085
 4491TIP3   OH237667   3.738   6.987   7.021  0.6021  0.2730 -0.7005
 4491TIP3    H137668   3.831   7.009   7.016  0.5709  0.9616  1.2771
 4491TIP3    H237669   3.699   7.031   6.945  1.6685  1.1522 -0.7584
 4492TIP3   OH237670   2.397   1.648   7.722 -0.9677  0.4129 -0.3736
 4492TIP3    H137671   2.481   1.607   7.699  0.1139  2.7860 -1.0255
 4492TIP3    H237672   2.417   1.698   7.801 -2.0669  0.2184  0.0372
 4493TIP3   OH237673   4.058   3.861   7.825  0.1853  0.0671  1.1885
 4493TIP3    H137674   4.062   3.783   7.768 -0.7693  1.3735 -0.7834
 4493TIP3    H237675   4.148   3.893   7.827  0.5345 -0.8976  1.7794
 4494TIP3   OH237676   1.871   6.698   6.809 -0.9331 -0.0882  0.3513
 4494TIP3    H137677   1.834   6.771   6.759  1.3299  0.7239 -0.2632
 4494TIP3    H237678   1.927   6.652   6.747  0.9310  0.1646  1.7677
 4495TIP3   OH237679   0.089   2.571   9.275  0.0336 -0.3182 -0.3070
 4495TIP3    H137680   0.162   2.574   9.337  0.1720  0.1946 -0.4902
 4495TIP3    H237681   0.128   2.545   9.192  0.0457  0.1802 -0.4586
 4496TIP3   OH237682   4.544   7.525   7.185 -0.2681 -0.2854 -0.1437
 4496TIP3    H137683   4.628   7.531   7.231 -0.2774  0.7246 -0.2382
 4496TIP3    H237684   4.539   7.606   7.133 -1.7973  0.2116  0.7090
 4497TIP3   OH237685   5.583   3.599   9.254  0.0294  0.1473 -0.0669
 4497TIP3    H137686   5.603   3.547   9.332  0.4787 -0.9457 -0.8799
 4497TIP3    H237687   5.571   3.688   9.286  1.3449 -0.0778  1.0999
 4498TIP3   OH237688   2.172   5.174   6.668 -0.2654  0.3932 -0.1796
 4498TIP3    H137689   2.234   5.187   6.739  0.4875 -0.7559 -0.5972
 4498TIP3    H237690   2.226   5.149   6.593 -1.1567  0.1651 -0.7655
 4499TIP3   OH237691   3.330   1.925   8.452  0.2473 -0.6211 -0.1729
 4499TIP3    H137692   3.370   1.866   8.516 -0.4541  1.0232  1.8802
 4499TIP3    H237693   3.238   1.896   8.447  0.2298 -0.5583 -0.2156
 4500TIP3   OH237694   3.035   2.183   8.911  0.5240 -0.3030  0.0995
 4500TIP3    H137695   3.015   2.150   8.999  1.2919 -1.9111 -0.2929
 4500TIP3    H237696   2.952   2.220   8.880  0.2487  0.3245  1.5003
 4501TIP3   OH237697   2.220   2.518   8.939 -0.3504 -0.3171  0.1662
 4501TIP3    H137698   2.306   2.477   8.938 -0.3114 -0.3223 -2.2668
 4501TIP3    H237699   2.181   2.494   8.855 -2.2244  0.7395  0.6692
 4502TIP3   OH237700   1.284   5.622   7.161  0.0024  0.3883 -0.2552
 4502TIP3    H137701   1.335   5.688   7.113 -0.3153  0.8877  0.0815
 4502TIP3    H237702   1.332   5.541   7.148  0.8803  0.8493  0.0571
 4503TIP3   OH237703   5.976   4.304   8.045  0.1040 -0.0793 -0.3817
 4503TIP3    H137704   5.990   4.305   7.950 -0.0189  0.5016 -0.3974
 4503TIP3    H237705   6.057   4.341   8.081  0.7149 -1.5522 -0.1716
 4504TIP3   OH237706   6.617   5.490   7.507  0.6162  0.5940  0.2186
 4504TIP3    H137707   6.654   5.458   7.424  1.0361  0.9333  0.2683
 4504TIP3    H237708   6.524   5.470   7.502  1.0612 -1.8897  0.8353
 4505TIP3   OH237709   2.909   1.706   9.620  0.0631  0.5461 -0.0315
 4505TIP3    H137710   2.963   1.685   9.696  0.0742  0.8652  0.0489
 4505TIP3    H237711   2.833   1.648   9.629 -0.2725  1.0715  0.6027
 4506TIP3   OH237712   5.550   6.160   7.626 -0.0133 -0.2933  0.4510
 4506TIP3    H137713   5.644   6.180   7.631  0.1743 -1.4004  1.8433
 4506TIP3    H237714   5.510   6.219   7.690 -0.3689  0.5429 -0.5050
 4507TIP3   OH237715   3.600   4.810   7.895 -0.2061 -0.4137  0.1438
 4507TIP3    H137716   3.668   4.869   7.864 -1.3990  1.4486  0.8617
 4507TIP3    H237717   3.632   4.778   7.980  0.7933 -1.4811 -0.6060
 4508TIP3   OH237718   2.149   1.326   8.766 -0.4671 -0.2458  0.8123
 4508TIP3    H137719   2.131   1.420   8.763 -1.5868 -0.4470 -1.8201
 4508TIP3    H237720   2.062   1.285   8.772 -0.0817 -1.1208  0.6343
 4509TIP3   OH237721   2.848   0.067   8.746  0.1861 -0.4451  0.1170
 4509TIP3    H137722   2.841  -0.002   8.811  1.1106  0.3185  1.0606
 4509TIP3    H237723   2.758   0.096   8.732  0.0971  0.7104  2.5619
 4510TIP3   OH237724   3.140   4.521   6.935  0.1090  0.0993  0.2553
 4510TIP3    H137725   3.164   4.583   7.004 -0.3002  0.5834 -0.0346
 4510TIP3    H237726   3.178   4.557   6.855  0.7191 -0.5435  0.2379
 4511TIP3   OH237727   1.838   0.389   9.064 -0.4343 -0.4817 -0.0679
 4511TIP3    H137728   1.796   0.345   8.991 -1.4305  1.0553 -0.4675
 4511TIP3    H237729   1.800   0.477   9.065 -0.4444 -0.4359  2.2901
 4512TIP3   OH237730   1.922   6.643   7.493 -0.4233  0.1782 -0.3295
 4512TIP3    H137731   1.965   6.711   7.545 -2.5894  0.8900  0.6276
 4512TIP3    H237732   1.835   6.634   7.531 -0.9298 -1.6689 -1.7629
 4513TIP3   OH237733   4.624   2.825   8.704 -0.3071  0.1886  0.0339
 4513TIP3    H137734   4.613   2.895   8.640 -1.5820  0.0961  0.1330
 4513TIP3    H237735   4.685   2.861   8.769  0.5451  0.4880 -0.9127
 4514TIP3   OH237736   0.897   6.124   8.904  0.3593  0.1798 -0.4821
 4514TIP3    H137737   0.830   6.156   8.965  0.7714 -1.1960  0.7754
 4514TIP3    H237738   0.882   6.172   8.823 -1.5330  0.5987  0.0708
 4515TIP3   OH237739   0.020   6.500   8.626 -0.2488  0.2151 -0.9108
 4515TIP3    H137740   0.099   6.457   8.592 -0.7252 -0.2196 -1.4963
 4515TIP3    H237741  -0.025   6.431   8.675  0.8440  1.0435  1.3866
 4516TIP3   OH237742   6.247   6.702   8.470 -0.2226  0.3144 -0.0570
 4516TIP3    H137743   6.194   6.645   8.415 -0.4216  0.8715 -0.4589
 4516TIP3    H237744   6.229   6.790   8.437  1.4656  0.4770 -0.6661
 4517TIP3   OH237745   1.022   1.930   7.897  0.3480 -0.2668  0.1234
 4517TIP3    H137746   0.975   2.009   7.924  1.7191  0.2687  1.0968
 4517TIP3    H237747   1.044   1.886   7.979 -0.6187 -1.8282 -0.4159
 4518TIP3   OH237748   6.104   4.986   7.668  0.0203  0.2956 -0.1391
 4518TIP3    H137749   6.070   5.006   7.755 -1.6709 -2.5483 -0.0107
 4518TIP3    H237750   6.027   4.989   7.611  0.1990 -2.2347 -0.6406
 4519TIP3   OH237751   1.202   5.556   8.161 -0.0457  0.3697 -0.2342
 4519TIP3    H137752   1.267   5.561   8.231  0.5001 -0.8819 -0.6169
 4519TIP3    H237753   1.225   5.626   8.101  0.8232  0.0706 -0.2568
 4520TIP3   OH237754   1.617   5.086   7.068  0.2511  0.8374  0.0865
 4520TIP3    H137755   1.612   5.045   6.981  1.7704  0.6854  0.0342
 4520TIP3    H237756   1.693   5.045   7.109  0.3692  1.8921  0.9677
 4521TIP3   OH237757   7.444   1.208   7.367  0.6145 -0.3243 -0.0291
 4521TIP3    H137758   7.501   1.134   7.348 -0.0382 -0.8253 -0.0752
 4521TIP3    H237759   7.474   1.277   7.308  0.8494 -0.7435 -0.4063
 4522TIP3   OH237760   2.016   4.719   6.894  0.5031  0.5599  0.1679
 4522TIP3    H137761   1.971   4.802   6.875  0.5975  0.4579 -0.5015
 4522TIP3    H237762   2.044   4.686   6.809  2.0545  0.7272  0.5820
 4523TIP3   OH237763   3.405   7.342   8.430 -0.4488  0.8823  0.2745
 4523TIP3    H137764   3.358   7.271   8.473  0.8892 -0.2502 -0.0542
 4523TIP3    H237765   3.400   7.321   8.336  1.0422  0.4622  0.2505
 4524TIP3   OH237766   6.499   7.073   8.165  0.1363 -0.2804 -0.7077
 4524TIP3    H137767   6.578   7.035   8.126  0.3492 -0.5964  0.0071
 4524TIP3    H237768   6.502   7.045   8.256 -0.9575 -0.5318 -0.7387
 4525TIP3   OH237769   1.768   3.791   9.282 -0.0307 -0.0839 -0.6176
 4525TIP3    H137770   1.808   3.870   9.319 -0.4961  0.0633 -0.4223
 4525TIP3    H237771   1.713   3.822   9.211 -2.1562  0.0658  0.9956
 4526TIP3   OH237772   3.665   6.123   7.816 -0.0504  0.1395 -0.0836
 4526TIP3    H137773   3.714   6.105   7.736  0.1470  3.4705 -0.8477
 4526TIP3    H237774   3.573   6.126   7.788 -0.0999  0.1296  0.0754
 4527TIP3   OH237775   6.984   3.256   7.502  0.2008 -0.4793  0.1288
 4527TIP3    H137776   7.052   3.215   7.448 -0.2269  1.0167 -1.6389
 4527TIP3    H237777   7.014   3.243   7.592  0.9712 -3.0363 -0.4090
 4528TIP3   OH237778   5.380   7.494   8.559  0.4579  0.3496  0.3871
 4528TIP3    H137779   5.304   7.436   8.568 -0.9144  1.8961 -0.5652
 4528TIP3    H237780   5.413   7.477   8.470  0.4990  0.5078  0.3718
 4529TIP3   OH237781   3.022   2.160   7.498 -0.2749  0.2361  0.0644
 4529TIP3    H137782   3.095   2.172   7.437 -1.1529 -0.5645 -1.1702
 4529TIP3    H237783   2.976   2.244   7.498 -0.2201  0.2660 -0.3008
 4530TIP3   OH237784   5.579   2.710   8.145 -0.2844 -0.0031 -0.3346
 4530TIP3    H137785   5.611   2.723   8.234  0.5517 -0.7481 -0.5147
 4530TIP3    H237786   5.538   2.623   8.146  0.3890 -0.3360 -0.8500
 4531TIP3   OH237787   4.083   6.050   8.115  0.0824  0.5404  0.1106
 4531TIP3    H137788   3.996   6.013   8.098 -0.5550  1.0943  1.8786
 4531TIP3    H237789   4.067   6.143   8.131  0.8070  0.4490  1.5997
 4532TIP3   OH237790   5.262   2.480   7.145 -0.2326 -0.0566  0.3354
 4532TIP3    H137791   5.218   2.529   7.076  0.2810 -0.7077 -0.4788
 4532TIP3    H237792   5.355   2.481   7.119  0.3038  1.4020  2.0696
 4533TIP3   OH237793   1.131   6.138   9.050 -0.5435  0.0973 -0.2170
 4533TIP3    H137794   1.042   6.152   9.018 -0.8597  0.1952  0.6768
 4533TIP3    H237795   1.131   6.048   9.082 -0.3908  0.1714 -0.0037
 4534TIP3   OH237796   3.820   7.416   7.914  0.7601  0.2446 -0.0004
 4534TIP3    H137797   3.793   7.444   7.827 -3.7719  0.0891  1.0973
 4534TIP3    H237798   3.851   7.327   7.903  2.6993  1.0589 -1.6966
 4535TIP3   OH237799   5.323   4.622   9.783 -0.0040 -0.7823  0.0861
 4535TIP3    H137800   5.286   4.536   9.762 -0.2371 -0.7208  0.2438
 4535TIP3    H237801   5.378   4.606   9.859  0.3233 -0.8804 -0.1694
 4536TIP3   OH237802   1.965   7.164   8.033 -0.9180  0.6000 -0.8085
 4536TIP3    H137803   1.879   7.199   8.007 -1.0817 -0.9092 -2.5260
 4536TIP3    H237804   2.005   7.137   7.950  1.2476  1.2996 -0.0368
 4537TIP3   OH237805   3.574   1.505   9.437 -0.4770 -0.0512  0.0708
 4537TIP3    H137806   3.551   1.412   9.433 -1.0292  0.1023 -0.3411
 4537TIP3    H237807   3.670   1.506   9.428 -0.5210 -0.5439 -0.5232
 4538TIP3   OH237808   3.602   0.278   7.356 -0.5840 -0.8374  0.5036
 4538TIP3    H137809   3.613   0.233   7.272  1.5123  1.1304 -0.3886
 4538TIP3    H237810   3.685   0.323   7.370 -1.6602  0.6878  2.5598
 4539TIP3   OH237811   4.146   0.205   7.785 -0.0448  1.0979 -0.1550
 4539TIP3    H137812   4.054   0.206   7.758 -0.2865 -1.4919  0.2502
 4539TIP3    H237813   4.193   0.167   7.711  0.1088 -0.8530  0.8642
 4540TIP3   OH237814   3.173   4.967   7.346  0.6623  0.5022 -0.3903
 4540TIP3    H137815   3.231   4.931   7.279  1.1851  1.1534 -0.3000
 4540TIP3    H237816   3.183   4.908   7.421 -1.2359 -1.2502 -1.4141
 4541TIP3   OH237817   4.588   4.699   9.123  0.7043  0.0383 -0.0110
 4541TIP3    H137818   4.601   4.607   9.102  2.5121  0.0606  0.7864
 4541TIP3    H237819   4.583   4.743   9.039  0.8374 -0.6790 -0.3996
 4542TIP3   OH237820   4.636   3.521   9.087 -0.2514 -0.2405 -0.5864
 4542TIP3    H137821   4.655   3.497   9.178 -1.5694 -1.5955 -0.6185
 4542TIP3    H237822   4.717   3.559   9.055  0.7210 -1.1169  0.7182
 4543TIP3   OH237823   5.375   7.448   8.981 -0.6870  0.7651  0.2865
 4543TIP3    H137824   5.431   7.458   8.905 -2.1121 -0.0147 -0.9155
 4543TIP3    H237825   5.433   7.463   9.056  1.8844 -2.7677 -0.7211
 4544TIP3   OH237826   1.446   5.851   7.049  0.1478  0.2026  0.0483
 4544TIP3    H137827   1.517   5.808   7.098  0.2668 -0.0462 -0.3391
 4544TIP3    H237828   1.476   5.942   7.039  0.5384  0.0335 -0.3457
 4545TIP3   OH237829   2.044   0.107   8.816  0.7109  0.6973 -0.0218
 4545TIP3    H137830   1.982   0.145   8.753  0.6315  0.2223 -0.2356
 4545TIP3    H237831   2.068   0.180   8.873 -2.1831  0.3614  1.8590
 4546TIP3   OH237832   2.376   3.569   6.871 -0.0143  0.0443  0.1249
 4546TIP3    H137833   2.337   3.498   6.822 -1.3427 -0.6602  2.0892
 4546TIP3    H237834   2.450   3.529   6.917  0.6822  0.4948 -0.5798
 4547TIP3   OH237835   2.502   6.878   7.895  0.4572  0.5326 -0.2146
 4547TIP3    H137836   2.419   6.880   7.941  0.9340  1.7338  0.6403
 4547TIP3    H237837   2.566   6.907   7.960  1.2801  1.4194 -1.3802
 4548TIP3   OH237838   0.663   1.483   7.419 -0.0897 -0.5301 -0.3621
 4548TIP3    H137839   0.614   1.527   7.488  0.8131  0.4678 -0.3292
 4548TIP3    H237840   0.647   1.390   7.433 -2.5131 -0.2317 -0.7767
 4549TIP3   OH237841   6.630   0.034   7.475  0.3929  0.2322 -0.0240
 4549TIP3    H137842   6.623   0.129   7.465  1.8841  0.2934 -0.6907
 4549TIP3    H237843   6.568  -0.001   7.411  1.4201  0.7572 -1.3538
 4550TIP3   OH237844   6.589   1.886   7.961 -0.2445  0.3789 -0.1817
 4550TIP3    H137845   6.647   1.906   8.034  1.1191  0.9361 -1.3887
 4550TIP3    H237846   6.642   1.835   7.900 -1.9732 -1.9636  0.1400
 4551TIP3   OH237847   7.050   2.488   7.227 -0.1301 -0.2411 -0.3256
 4551TIP3    H137848   6.970   2.451   7.262 -1.7015 -0.1120 -3.4278
 4551TIP3    H237849   7.023   2.570   7.185  2.1131  1.1207  0.6739
 4552TIP3   OH237850   4.181   0.326   8.508  0.1104  0.4166  0.4031
 4552TIP3    H137851   4.148   0.282   8.430  0.2403  1.9506 -0.5712
 4552TIP3    H237852   4.203   0.414   8.478  2.4914  0.3206  1.6379
 4553TIP3   OH237853   3.334   7.124   8.223  0.2423  0.2713  0.0589
 4553TIP3    H137854   3.295   7.171   8.149 -0.4898  1.1888  1.0051
 4553TIP3    H237855   3.274   7.052   8.240  1.3401 -1.0694 -1.3596
 4554TIP3   OH237856   0.822   7.671   8.019  0.1021  0.3909  0.2493
 4554TIP3    H137857   0.783   7.620   8.089  0.1471  0.7905  0.5680
 4554TIP3    H237858   0.755   7.671   7.950 -1.1109  2.2701  1.3258
 4555TIP3   OH237859   6.677   4.267   8.099 -0.3855 -0.0608 -0.1863
 4555TIP3    H137860   6.746   4.257   8.034 -1.5306  0.7564 -1.6052
 4555TIP3    H237861   6.678   4.360   8.121  0.3282 -0.4101  1.4181
 4556TIP3   OH237862   3.120   4.206   9.123 -0.0704 -0.3503  0.1038
 4556TIP3    H137863   3.209   4.191   9.091  0.5358  1.3260  0.8988
 4556TIP3    H237864   3.126   4.198   9.218 -0.9147 -0.9031  0.1200
 4557TIP3   OH237865   5.956   2.377   8.027  0.1375  0.0837 -0.2358
 4557TIP3    H137866   5.936   2.398   7.936  0.9209 -0.0087 -0.4432
 4557TIP3    H237867   5.872   2.357   8.067 -0.0130 -2.4810 -1.6195
 4558TIP3   OH237868   4.040   2.523   7.609 -0.3527  0.1134  0.0328
 4558TIP3    H137869   4.028   2.610   7.647 -0.2205  0.0337  0.2568
 4558TIP3    H237870   3.952   2.497   7.581 -0.8634 -0.7735  2.3068
 4559TIP3   OH237871   2.831   3.333   7.270 -0.4476  0.2416  0.4108
 4559TIP3    H137872   2.737   3.324   7.283 -0.6697  1.0339 -0.5376
 4559TIP3    H237873   2.846   3.302   7.181  0.0763  0.7698  0.3079
 4560TIP3   OH237874   2.848   7.132   9.167  0.4142  0.4119 -0.5342
 4560TIP3    H137875   2.882   7.168   9.085 -0.5282 -1.3842 -1.7727
 4560TIP3    H237876   2.835   7.039   9.149 -1.5999  0.3254  1.0562
 4561TIP3   OH237877   5.059   7.529   7.493 -0.4285 -0.2184  0.1456
 4561TIP3    H137878   5.082   7.462   7.428 -3.0398 -0.1678 -0.9540
 4561TIP3    H237879   5.084   7.611   7.453 -0.1425 -0.3245  0.1053
 4562TIP3   OH237880   0.040   3.295   6.553 -0.1194  0.5035 -0.3140
 4562TIP3    H137881  -0.029   3.326   6.611 -1.0167  0.4820 -1.3403
 4562TIP3    H237882   0.005   3.308   6.465  0.3215 -1.4954 -0.8231
 4563TIP3   OH237883   0.620   2.446   7.415 -0.1346  0.2312 -0.2875
 4563TIP3    H137884   0.685   2.514   7.397 -1.0359  1.1857 -0.0849
 4563TIP3    H237885   0.618   2.393   7.335  0.0582  0.8933 -0.7394
 4564TIP3   OH237886   5.413   3.349   9.390 -0.0317  0.1400 -0.3088
 4564TIP3    H137887   5.466   3.269   9.386 -0.1137 -0.0065  1.0743
 4564TIP3    H237888   5.323   3.318   9.377 -0.0937 -0.0519  0.5019
 4565TIP3   OH237889   0.122   4.355   7.173 -0.3644 -0.7138  0.6135
 4565TIP3    H137890   0.115   4.443   7.137 -1.4792 -0.5890  1.0968
 4565TIP3    H237891   0.067   4.357   7.252  0.0961 -1.6623  0.9731
 4566TIP3   OH237892   0.178   6.796   7.553  0.4181  0.0106  0.2468
 4566TIP3    H137893   0.200   6.709   7.521 -0.9461 -0.4760  0.5578
 4566TIP3    H237894   0.114   6.829   7.490  1.1978  0.9410 -0.0679
 4567TIP3   OH237895   0.473   5.171   8.147  0.1027  0.2021  0.3304
 4567TIP3    H137896   0.528   5.127   8.082 -2.1763 -1.7122 -0.4343
 4567TIP3    H237897   0.394   5.195   8.099  0.0434  2.5616  1.4687
 4568TIP3   OH237898   4.768   3.199   8.096 -0.1342  0.6193  0.1060
 4568TIP3    H137899   4.800   3.251   8.023 -3.1155  1.7808 -0.5297
 4568TIP3    H237900   4.772   3.108   8.066  2.3624  0.6725  0.0965
 4569TIP3   OH237901   5.127   5.486   9.061  0.5073  0.4442  0.2930
 4569TIP3    H137902   5.094   5.431   8.990  1.6951 -0.7729  0.6485
 4569TIP3    H237903   5.157   5.424   9.128  1.2869  1.5271  0.9813
 4570TIP3   OH237904   5.457   5.778   7.859 -0.0564  0.3582  0.4789
 4570TIP3    H137905   5.456   5.797   7.953 -0.8366  2.4428  0.1000
 4570TIP3    H237906   5.367   5.755   7.838  0.3916 -1.5661  0.4509
 4571TIP3   OH237907   3.150   6.365   7.715 -0.8602 -0.4403  0.4632
 4571TIP3    H137908   3.222   6.372   7.651 -0.7120 -0.5767  0.6149
 4571TIP3    H237909   3.072   6.350   7.661 -0.8850  0.4057  0.2528
 4572TIP3   OH237910   4.180   1.119   8.456  0.6891  0.4202 -0.0593
 4572TIP3    H137911   4.222   1.128   8.370 -0.2752 -0.5613 -0.6630
 4572TIP3    H237912   4.247   1.082   8.512  1.1866  0.6174 -0.5112
 4573TIP3   OH237913   6.237   4.903   8.100  0.4953  0.2689  0.5717
 4573TIP3    H137914   6.157   4.852   8.087  0.7730 -0.5117  1.7133
 4573TIP3    H237915   6.301   4.838   8.132  2.1398  0.4928 -1.9954
 4574TIP3   OH237916   7.272   6.580   7.290  0.7755 -0.0467 -0.8407
 4574TIP3    H137917   7.196   6.601   7.237 -0.2563 -0.2949  0.4825
 4574TIP3    H237918   7.319   6.663   7.300 -1.7949  1.2402  2.0931
 4575TIP3   OH237919   2.502   0.342   7.497  0.3193  0.1699 -0.4507
 4575TIP3    H137920   2.499   0.273   7.431  0.3427 -1.1197  0.8421
 4575TIP3    H237921   2.410   0.354   7.524  0.5996 -1.7052  1.6042
 4576TIP3   OH237922   0.299   3.132   8.957  0.2186 -0.1737  0.2141
 4576TIP3    H137923   0.233   3.068   8.982  0.0403  0.1794  0.6818
 4576TIP3    H237924   0.264   3.216   8.989  0.3857  0.1737 -0.4928
 4577TIP3   OH237925   3.282   0.557   7.957  0.2803  0.1967  0.7417
 4577TIP3    H137926   3.202   0.565   8.010 -0.4958 -3.0584  0.3312
 4577TIP3    H237927   3.334   0.492   8.004  1.0054 -0.4162 -0.8697
 4578TIP3   OH237928   0.688   4.229   8.450  0.3278  0.2879  0.1376
 4578TIP3    H137929   0.775   4.205   8.483  0.6987  0.7876 -0.4555
 4578TIP3    H237930   0.627   4.184   8.508  0.9882 -0.5430  0.2049
 4579TIP3   OH237931   4.527   1.779   8.563  0.0490  0.6921 -0.4151
 4579TIP3    H137932   4.544   1.866   8.599  0.6056  0.3677  0.1230
 4579TIP3    H237933   4.432   1.774   8.557  0.0287  1.6543 -1.2525
 4580TIP3   OH237934   7.616   3.599   6.408 -0.4329 -0.7836 -0.0999
 4580TIP3    H137935   7.686   3.588   6.344 -0.4018 -0.9449 -0.0388
 4580TIP3    H237936   7.570   3.516   6.408  2.1930 -2.5031  3.2045
 4581TIP3   OH237937   1.145   1.219   7.819 -0.1582 -0.1330 -0.5190
 4581TIP3    H137938   1.143   1.298   7.765 -0.2577 -0.4535 -0.9791
 4581TIP3    H237939   1.143   1.253   7.909  0.0211  0.3983 -0.7085
 4582TIP3   OH237940   1.914   6.286   7.102 -0.2530 -0.0697 -0.6048
 4582TIP3    H137941   1.953   6.289   7.015  2.0070 -1.4640  0.2776
 4582TIP3    H237942   1.833   6.236   7.091  0.2640 -0.6624 -1.8136
 4583TIP3   OH237943   6.482   0.429   8.738 -0.2639  0.1506 -0.2395
 4583TIP3    H137944   6.442   0.455   8.655 -0.8356 -0.6624 -0.2309
 4583TIP3    H237945   6.550   0.366   8.713  0.4570  0.8888 -0.1857
 4584TIP3   OH237946   3.672   0.824   8.519 -0.5596 -0.2375 -0.0235
 4584TIP3    H137947   3.672   0.854   8.428 -1.9611 -0.1939 -0.0345
 4584TIP3    H237948   3.744   0.872   8.560 -1.8303  2.1119 -0.3690
 4585TIP3   OH237949   3.843   3.414   7.715 -0.1155  0.7672  0.4378
 4585TIP3    H137950   3.807   3.367   7.640 -0.2461 -0.4775  1.2496
 4585TIP3    H237951   3.770   3.467   7.747 -0.5092  0.1230  0.6116
 4586TIP3   OH237952   4.627   5.494   7.204 -0.2855 -0.2626  0.3497
 4586TIP3    H137953   4.553   5.535   7.159  0.4982  1.0258  0.1922
 4586TIP3    H237954   4.590   5.459   7.285 -1.0237  0.5456  0.3710
 4587TIP3   OH237955   6.621   0.304   7.460 -0.1942 -0.2094  0.2448
 4587TIP3    H137956   6.636   0.347   7.375 -0.0388 -2.8815 -1.2040
 4587TIP3    H237957   6.590   0.374   7.517  1.5507  2.1333 -1.4352
 4588TIP3   OH237958   5.281   2.435   9.096  0.3033 -0.6576  0.7299
 4588TIP3    H137959   5.204   2.421   9.042  0.5702 -1.0338  0.4347
 4588TIP3    H237960   5.248   2.475   9.176 -0.0898 -0.0018  0.2542
 4589TIP3   OH237961   0.814   6.471   8.444 -0.6491  0.4153  0.5954
 4589TIP3    H137962   0.853   6.388   8.417  1.6365  1.6188 -0.0645
 4589TIP3    H237963   0.875   6.506   8.509  0.2432  2.9825 -1.4145
 4590TIP3   OH237964   6.940   2.048   8.394 -0.2114  0.2377 -0.0914
 4590TIP3    H137965   6.902   2.134   8.415  1.1267  1.8505 -3.4999
 4590TIP3    H237966   6.961   2.010   8.479  3.2908  5.2688  1.8091
 4591TIP3   OH237967   1.982   2.917   7.655  0.2546 -0.1141 -0.1584
 4591TIP3    H137968   2.001   2.985   7.720 -1.4892  0.0852  0.2012
 4591TIP3    H237969   2.020   2.837   7.692  1.0629  0.3829  0.1110
 4592TIP3   OH237970   1.066   4.858   9.043 -0.0944 -0.3041 -0.1370
 4592TIP3    H137971   1.128   4.931   9.051  0.6752 -1.0463  1.1203
 4592TIP3    H237972   1.082   4.805   9.121 -2.4348 -0.4577  0.3232
 4593TIP3   OH237973   1.447   2.742   7.356 -0.5890  0.8880  0.1746
 4593TIP3    H137974   1.381   2.765   7.421 -2.1015 -1.9581 -0.2034
 4593TIP3    H237975   1.421   2.792   7.278 -0.6972  1.7977  0.7730
 4594TIP3   OH237976   1.039   3.593   7.637  0.5561 -0.2586  0.3272
 4594TIP3    H137977   1.039   3.658   7.566  0.4674 -1.6463 -0.9795
 4594TIP3    H237978   1.119   3.543   7.624  0.0183 -1.2055  0.5594
 4595TIP3   OH237979   7.189   6.265   7.577 -0.2351 -0.3356  0.1963
 4595TIP3    H137980   7.225   6.236   7.661 -0.1451 -3.1716 -0.7201
 4595TIP3    H237981   7.217   6.357   7.570  0.7661 -0.3536  2.6831
 4596TIP3   OH237982   5.612   7.517   7.987  0.1599  0.5458 -0.0462
 4596TIP3    H137983   5.680   7.567   8.032  0.9225 -2.0790  1.9407
 4596TIP3    H237984   5.539   7.516   8.048 -1.8945  3.3297 -2.1504
 4597TIP3   OH237985   0.148   0.727   7.548 -0.2328  0.1155  0.1047
 4597TIP3    H137986   0.186   0.706   7.462  0.1750 -0.2055  0.3618
 4597TIP3    H237987   0.147   0.644   7.595 -4.3801 -0.7221 -1.0377
 4598TIP3   OH237988   4.190   0.093   9.594 -0.7210 -0.5276  0.0223
 4598TIP3    H137989   4.163   0.114   9.684 -1.5372 -1.9640  0.1505
 4598TIP3    H237990   4.142   0.155   9.540 -2.2248 -1.2712  0.4433
 4599TIP3   OH237991   2.666   4.529   9.076 -0.5234 -0.3567  0.8195
 4599TIP3    H137992   2.664   4.542   8.982  2.4923 -2.6133  0.2612
 4599TIP3    H237993   2.718   4.449   9.088 -0.8913 -0.2390  4.3903
 4600TIP3   OH237994   3.347   0.996   8.316  0.1749 -0.3377 -0.4448
 4600TIP3    H137995   3.378   0.914   8.279 -0.2716 -0.1908 -1.1504
 4600TIP3    H237996   3.320   0.973   8.405 -0.1378 -0.9970 -0.7028
 4601TIP3   OH237997   4.445   1.021   8.464  0.0735  0.3442 -0.6872
 4601TIP3    H137998   4.491   0.941   8.442 -1.5593 -0.5347 -1.0680
 4601TIP3    H237999   4.495   1.059   8.537 -0.0882 -1.9440  0.7214
 4602TIP3   OH238000   6.164   2.630   7.560  0.0025  0.0488  0.1022
 4602TIP3    H138001   6.137   2.640   7.469 -1.4583  0.9031  0.5986
 4602TIP3    H238002   6.242   2.575   7.556  0.1405  0.3236 -1.6803
 4603TIP3   OH238003   0.463   4.987   6.290 -0.1965 -0.0007  0.1818
 4603TIP3    H138004   0.463   5.068   6.239 -1.6739 -0.5700 -0.8166
 4603TIP3    H238005   0.534   4.935   6.253 -0.0762  0.3375 -0.0599
 4604TIP3   OH238006   4.436   3.870   9.434 -0.0582 -0.2186 -0.1158
 4604TIP3    H138007   4.374   3.859   9.506  0.0621 -1.8041 -0.2238
 4604TIP3    H238008   4.518   3.895   9.476 -0.4329  0.6819  0.1212
 4605TIP3   OH238009   6.776   1.046   7.119 -0.2616  0.1999  0.0813
 4605TIP3    H138010   6.745   0.960   7.147 -1.1361  0.0936 -1.1113
 4605TIP3    H238011   6.845   1.026   7.055 -0.7635  0.3523 -0.5240
 4606TIP3   OH238012   2.927   1.551   8.405 -0.0398  0.3123 -0.3139
 4606TIP3    H138013   2.924   1.624   8.468 -0.6693  0.7987 -0.8993
 4606TIP3    H238014   3.012   1.509   8.422 -0.1645  0.4826  0.8001
 4607TIP3   OH238015   5.373   4.531   9.033  0.3248 -0.4224 -0.1421
 4607TIP3    H138016   5.330   4.459   9.078  1.6802 -0.5583  0.9900
 4607TIP3    H238017   5.422   4.489   8.962 -0.4326 -0.3932 -0.6898
 4608TIP3   OH238018   1.601   7.531   7.626  0.3631 -0.7473 -0.0415
 4608TIP3    H138019   1.547   7.485   7.691  0.9473 -0.5105  0.6335
 4608TIP3    H238020   1.619   7.466   7.559 -0.4241 -0.9411 -0.0660
 4609TIP3   OH238021   5.050   4.984   8.865 -0.3434 -0.1657  0.2271
 4609TIP3    H138022   5.006   4.938   8.937  0.5841  0.6897  1.3683
 4609TIP3    H238023   5.140   4.952   8.867 -0.7418 -1.6302 -1.8613
 4610TIP3   OH238024   6.257   2.457   6.616  0.7712 -0.8477 -0.1889
 4610TIP3    H138025   6.227   2.370   6.642 -1.0210  0.1865  1.5376
 4610TIP3    H238026   6.324   2.479   6.681 -1.1180  0.2867  1.5003
 4611TIP3   OH238027   5.830   6.824   7.740  0.1195  0.3639 -0.0373
 4611TIP3    H138028   5.871   6.863   7.818  1.5101  0.0214 -0.5785
 4611TIP3    H238029   5.851   6.884   7.669 -2.1486  1.3015  0.0016
 4612TIP3   OH238030   5.642   4.921   9.114 -0.3033  0.6321  0.4657
 4612TIP3    H138031   5.663   4.868   9.191 -0.7842 -0.4203 -0.0927
 4612TIP3    H238032   5.635   4.857   9.043 -1.1570  1.4237 -0.1864
 4613TIP3   OH238033   2.127   0.939   8.633 -1.0366 -0.2596  0.1332
 4613TIP3    H138034   2.063   0.957   8.703 -0.5423 -2.1964  1.1502
 4613TIP3    H238035   2.209   0.923   8.679 -0.0419  1.0426 -1.0964
 4614TIP3   OH238036   1.336   4.218   7.659 -0.3640 -0.5978 -0.2092
 4614TIP3    H138037   1.331   4.275   7.582 -2.5481 -1.8835 -1.1042
 4614TIP3    H238038   1.421   4.175   7.650  1.8453  3.0132  1.0100
 4615TIP3   OH238039   7.219   7.569   8.661  0.1865  0.0189  0.1009
 4615TIP3    H138040   7.265   7.652   8.673 -1.2902  0.7627  0.9119
 4615TIP3    H238041   7.219   7.555   8.566 -0.3286  1.4211 -0.1267
 4616TIP3   OH238042   6.020   4.887   8.661 -0.3995  0.0899  1.0820
 4616TIP3    H138043   6.090   4.938   8.621  0.2222 -0.7042  1.1261
 4616TIP3    H238044   6.009   4.925   8.749  0.2917 -0.0681  1.2407
 4617TIP3   OH238045   5.018   6.349   8.891  0.2792  0.0199  0.0807
 4617TIP3    H138046   4.956   6.380   8.825 -0.7216 -2.5089 -0.2718
 4617TIP3    H238047   5.098   6.331   8.841  0.1063 -0.1709 -0.1320
 4618TIP3   OH238048   0.140   3.628   8.833  0.1019 -0.4352  0.1078
 4618TIP3    H138049   0.144   3.627   8.738 -0.2902 -0.5598  0.0889
 4618TIP3    H238050   0.226   3.599   8.862 -0.0993 -1.3972 -0.2202
 4619TIP3   OH238051   4.316   1.464   8.797  0.2284 -0.4929 -0.4264
 4619TIP3    H138052   4.275   1.387   8.758 -0.3748 -0.4342  0.0842
 4619TIP3    H238053   4.254   1.535   8.780  0.4173 -0.2732 -0.2015
 4620TIP3   OH238054   7.569   1.453   7.230 -0.8747  0.5579  0.0654
 4620TIP3    H138055   7.634   1.500   7.178  0.5251 -0.0649  1.1930
 4620TIP3    H238056   7.603   1.457   7.319  0.2685 -3.9832  0.0491
 4621TIP3   OH238057   3.756   5.785   7.739 -0.2094 -0.4276  0.7825
 4621TIP3    H138058   3.748   5.876   7.710  3.0083  0.1993  1.4363
 4621TIP3    H238059   3.734   5.733   7.662  0.9626  1.0337 -0.6152
 4622TIP3   OH238060   0.187   2.429   8.646  0.1964  0.3377  0.2526
 4622TIP3    H138061   0.179   2.500   8.709  1.0024  2.0778 -1.5222
 4622TIP3    H238062   0.137   2.457   8.570  0.3232 -1.1064 -0.4071
 4623TIP3   OH238063   3.657   3.840   8.752 -0.3179 -0.1171 -0.0076
 4623TIP3    H138064   3.621   3.822   8.666  0.4363 -0.3005 -0.2955
 4623TIP3    H238065   3.715   3.765   8.769  0.0122  0.2248  0.3891
 4624TIP3   OH238066   5.580   0.803   7.748 -0.1355 -0.0329 -0.7117
 4624TIP3    H138067   5.642   0.819   7.819 -0.2895 -0.2146 -0.5365
 4624TIP3    H238068   5.608   0.720   7.710  0.2905  0.3394 -1.2298
 4625TIP3   OH238069   2.295   3.950   8.597 -0.0919  0.3449 -0.1262
 4625TIP3    H138070   2.277   3.924   8.688 -0.7674  0.8062 -0.1154
 4625TIP3    H238071   2.241   4.028   8.584  0.2315  0.4564 -0.8334
 4626TIP3   OH238072   1.097   0.590   9.100  0.3713 -0.3218 -0.3671
 4626TIP3    H138073   1.101   0.678   9.138 -0.0274 -0.4900  0.0887
 4626TIP3    H238074   1.083   0.604   9.007 -0.1596  0.1005 -0.2301
 4627TIP3   OH238075   4.882   7.573   8.821 -0.1375  0.3431  0.0036
 4627TIP3    H138076   4.814   7.551   8.885 -0.8759  3.9425  0.6735
 4627TIP3    H238077   4.838   7.628   8.756  1.5476  0.4331 -1.1513
 4628TIP3   OH238078   3.135   2.329   7.895  0.1672  0.4383  0.4438
 4628TIP3    H138079   3.226   2.355   7.910  0.2961  0.4890 -0.3900
 4628TIP3    H238080   3.088   2.364   7.971  0.8712  0.2156  1.0048
 4629TIP3   OH238081   2.365   3.243   8.993 -0.4417  0.1948 -0.2807
 4629TIP3    H138082   2.420   3.297   9.049 -1.4104 -0.1648  1.0668
 4629TIP3    H238083   2.384   3.153   9.021 -0.9552  0.0120 -0.5031
 4630TIP3   OH238084   3.491   4.484   8.837  0.2525  0.2442  0.1267
 4630TIP3    H138085   3.551   4.443   8.899 -0.5422  0.5428  1.1361
 4630TIP3    H238086   3.426   4.527   8.893 -0.4654  0.5576 -0.9269
 4631TIP3   OH238087   3.261   5.594   8.799  0.1560  0.0711  0.1777
 4631TIP3    H138088   3.198   5.584   8.728  0.0709  0.6430  0.1687
 4631TIP3    H238089   3.221   5.547   8.873  2.1178 -4.2677 -1.2072
 4632TIP3   OH238090   3.831   4.692   8.147 -0.1504  0.1433 -0.1356
 4632TIP3    H138091   3.837   4.598   8.161  0.8079  0.2580  0.3804
 4632TIP3    H238092   3.813   4.728   8.234  1.2697  0.5482  0.0239
 4633TIP3   OH238093   4.462   2.361   6.881  0.3586  0.2487  0.3294
 4633TIP3    H138094   4.383   2.364   6.935  1.2609  1.1067  1.6809
 4633TIP3    H238095   4.447   2.427   6.814 -0.4519 -0.2617 -0.0067
 4634TIP3   OH238096   3.689   7.588   8.813  0.4919  0.1771 -0.7040
 4634TIP3    H138097   3.754   7.555   8.751  0.7946 -0.7389  0.0861
 4634TIP3    H238098   3.680   7.681   8.791  0.4573 -0.1616 -2.2292
 4635TIP3   OH238099   6.807   2.471   7.908  0.5034  0.1197  0.2258
 4635TIP3    H138100   6.745   2.544   7.919  0.9708  0.4007  1.0983
 4635TIP3    H238101   6.864   2.500   7.837  0.3786  0.3928  0.2319
 4636TIP3   OH238102   4.656   6.818   7.558 -0.6431  0.1446 -0.0598
 4636TIP3    H138103   4.649   6.745   7.497  0.2737  0.7982 -0.9723
 4636TIP3    H238104   4.568   6.856   7.560 -0.7294 -0.0037 -0.8194
 4637TIP3   OH238105   0.095   6.369   7.444 -0.3071  0.3777  0.1294
 4637TIP3    H138106   0.156   6.442   7.450  0.1058  0.0501 -0.0461
 4637TIP3    H238107   0.014   6.408   7.411 -0.0385  0.7238 -0.1287
 4638TIP3   OH238108   6.880   0.698   7.230 -0.0705 -0.1815  0.5381
 4638TIP3    H138109   6.906   0.625   7.174 -2.4600 -0.2058 -0.6573
 4638TIP3    H238110   6.784   0.698   7.228 -0.1782  2.5543  1.0731
 4639TIP3   OH238111   6.334   2.175   6.923  0.5200  0.1156 -0.0661
 4639TIP3    H138112   6.239   2.172   6.932  0.5247 -0.6178 -0.2087
 4639TIP3    H238113   6.367   2.170   7.013  0.4476 -1.2684 -0.0957
 4640TIP3   OH238114   3.024   4.836   8.969 -0.1983 -0.1477  0.0072
 4640TIP3    H138115   3.029   4.771   8.899  3.1346  1.2601 -1.2596
 4640TIP3    H238116   2.992   4.916   8.926  0.6768  0.3914  0.3240
 4641TIP3   OH238117   4.405   4.615   8.325 -0.2103 -0.1603 -0.1072
 4641TIP3    H138118   4.471   4.601   8.258 -0.3698  1.3910 -0.6353
 4641TIP3    H238119   4.447   4.590   8.407  0.1752 -1.5333 -0.7082
 4642TIP3   OH238120   6.327   3.733   8.535 -0.3009 -0.0673 -0.0726
 4642TIP3    H138121   6.325   3.678   8.456 -1.9861 -0.6694  0.3570
 4642TIP3    H238122   6.239   3.769   8.542 -0.4505 -0.7016  1.9999
 4643TIP3   OH238123   3.426   5.864   8.347 -0.2316  0.4231 -0.6687
 4643TIP3    H138124   3.478   5.943   8.330  0.0934  0.8938  2.0411
 4643TIP3    H238125   3.474   5.794   8.302  2.0319  1.0824  0.5534
 4644TIP3   OH238126   6.226   3.077   7.332  0.2433 -0.0814 -0.0660
 4644TIP3    H138127   6.320   3.088   7.344  0.0069  0.3216  1.8654
 4644TIP3    H238128   6.216   2.990   7.293  1.3870 -0.5219  0.5680
 4645TIP3   OH238129   7.194   4.401   7.697  0.5390 -0.0246 -0.4281
 4645TIP3    H138130   7.111   4.364   7.667  0.2226  0.6860 -0.4522
 4645TIP3    H238131   7.168   4.475   7.753  1.1398 -0.3069  0.2474
 4646TIP3   OH238132   7.058   2.768   7.724  0.3529  0.3231 -0.3711
 4646TIP3    H138133   6.996   2.840   7.715  1.2341  1.1744  0.0712
 4646TIP3    H238134   7.016   2.694   7.682 -2.1742  0.0959  2.2346
 4647TIP3   OH238135   1.577   0.658   8.033  0.2503  0.1296  0.4823
 4647TIP3    H138136   1.514   0.724   8.061 -1.4433 -1.9463  1.8027
 4647TIP3    H238137   1.659   0.707   8.024 -1.4919  3.0015 -1.5972
 4648TIP3   OH238138   7.084   5.218   8.159  0.1755 -0.2079 -0.5331
 4648TIP3    H138139   7.082   5.133   8.202  0.6893  0.1844  0.2744
 4648TIP3    H238140   7.014   5.268   8.202 -0.7797 -0.5285 -1.6718
 4649TIP3   OH238141   1.883   2.323   9.110  0.2431  0.0413  0.3324
 4649TIP3    H138142   1.834   2.401   9.086 -2.4606 -0.5937  3.1508
 4649TIP3    H238143   1.860   2.307   9.202  2.7827 -2.5780  0.6684
 4650TIP3   OH238144   5.950   5.029   8.883  0.5429  0.2965  0.4385
 4650TIP3    H138145   5.863   5.023   8.845  0.9701  1.9748 -0.9617
 4650TIP3    H238146   5.935   5.045   8.976 -0.5816 -1.1711  0.5355
 4651TIP3   OH238147   1.924   4.312   8.001  0.3895  0.0784 -0.0976
 4651TIP3    H138148   1.905   4.287   7.911 -0.1994 -1.9581  0.5252
 4651TIP3    H238149   1.994   4.252   8.028 -1.3464 -1.3211  1.6211
 4652TIP3   OH238150   0.432   6.875   8.167 -0.1645 -0.1002  0.3558
 4652TIP3    H138151   0.350   6.838   8.136  0.2368 -1.6186  1.0036
 4652TIP3    H238152   0.471   6.916   8.090 -2.3598  2.3337  0.4324
 4653TIP3   OH238153   2.149   6.813   9.515 -0.2690 -0.2799  0.4933
 4653TIP3    H138154   2.090   6.869   9.463  1.9419  0.5105 -1.3501
 4653TIP3    H238155   2.156   6.732   9.464  1.2209  0.1532 -0.0413
 4654TIP3   OH238156   4.135   1.971   9.148 -0.2723  0.3976  0.0564
 4654TIP3    H138157   4.185   1.899   9.188 -0.6934 -0.6339 -1.2000
 4654TIP3    H238158   4.049   1.933   9.131 -0.6959  1.3961 -0.0770
 4655TIP3   OH238159   1.304   5.751   7.993  0.4699  0.7094 -0.2643
 4655TIP3    H138160   1.257   5.757   7.910  0.9148  1.6757 -0.4625
 4655TIP3    H238161   1.331   5.841   8.011 -0.9018  0.7793  1.6995
 4656TIP3   OH238162   3.200   2.424   8.163  0.6001  0.1568  0.3743
 4656TIP3    H138163   3.169   2.336   8.186 -0.0652 -0.0293 -1.1198
 4656TIP3    H238164   3.293   2.424   8.188  0.9466 -1.4283 -0.7841
 4657TIP3   OH238165   5.499   7.004   7.219  0.2182  0.1897 -0.3673
 4657TIP3    H138166   5.503   7.094   7.249  1.3056  0.0287  0.0117
 4657TIP3    H238167   5.564   6.958   7.271 -0.2907 -0.8156 -0.5834
 4658TIP3   OH238168   7.240   1.975   7.614  0.0061 -0.1918  0.0114
 4658TIP3    H138169   7.287   2.058   7.620 -0.3531  0.0781 -0.7904
 4658TIP3    H238170   7.293   1.914   7.665  0.7500  0.3133 -0.1350
 4659TIP3   OH238171   6.846   0.067   8.122 -0.0845  0.3548 -0.3391
 4659TIP3    H138172   6.765   0.033   8.083 -0.4257  1.0093 -0.2167
 4659TIP3    H238173   6.840   0.161   8.109  0.1776  0.5018  0.5880
 4660TIP3   OH238174   3.796   6.819   8.488 -0.3295  0.0669 -0.4277
 4660TIP3    H138175   3.719   6.874   8.496 -0.4808 -0.0729 -0.8779
 4660TIP3    H238176   3.843   6.830   8.571  0.2364  1.7592 -0.9248
 4661TIP3   OH238177   5.714   7.333   6.981 -0.2277  0.3908  0.4570
 4661TIP3    H138178   5.626   7.361   6.956  0.0776  1.0831  0.1193
 4661TIP3    H238179   5.771   7.375   6.917  0.2618 -1.0868 -0.1283
 4662TIP3   OH238180   4.294   2.841   8.486  0.0240  0.4794  0.5594
 4662TIP3    H138181   4.359   2.876   8.425  0.3656  0.6999  1.0428
 4662TIP3    H238182   4.346   2.800   8.555 -0.3150 -3.0533 -1.0904
 4663TIP3   OH238183   2.221   2.513   8.314  0.7545 -0.0831 -0.4563
 4663TIP3    H138184   2.202   2.553   8.228 -1.4666 -0.0007  0.0087
 4663TIP3    H238185   2.234   2.420   8.295  0.6870  0.0015 -0.9286
 4664TIP3   OH238186   3.124   4.086   8.540  0.3634  0.0398 -0.2682
 4664TIP3    H138187   3.193   4.075   8.605  2.0680  0.0780 -1.9537
 4664TIP3    H238188   3.119   4.180   8.526 -1.9436  0.2930  1.6900
 4665TIP3   OH238189   7.203   2.027   9.344  0.0496 -0.0655  0.2808
 4665TIP3    H138190   7.154   2.050   9.423  0.3282  0.9894  0.1600
 4665TIP3    H238191   7.293   2.053   9.363  0.1061  0.2636 -0.4039
 4666TIP3   OH238192   3.878   7.132   8.536 -0.1369  0.1194  0.0622
 4666TIP3    H138193   3.835   7.125   8.451 -0.8457  0.4148  0.3822
 4666TIP3    H238194   3.810   7.110   8.599 -0.0475  1.3540  0.6219
 4667TIP3   OH238195   1.042   0.032   8.785 -0.4668 -0.0400 -0.4141
 4667TIP3    H138196   1.068  -0.059   8.769 -2.2009 -0.6778  0.1174
 4667TIP3    H238197   1.041   0.072   8.699  2.6458  0.2060 -0.4305
 4668TIP3   OH238198   3.859   7.050   7.441  0.2182  0.5189  0.1459
 4668TIP3    H138199   3.895   6.969   7.478  0.9348  0.6574 -0.2248
 4668TIP3    H238200   3.874   7.041   7.346  1.2242  1.5155  0.1860
 4669TIP3   OH238201   3.181   1.047   9.117  0.1955 -0.0313 -0.3450
 4669TIP3    H138202   3.268   1.023   9.149  0.0171 -0.9277 -0.5032
 4669TIP3    H238203   3.124   0.978   9.152 -0.2618 -0.1060 -1.2286
 4670TIP3   OH238204   3.205   3.410   8.731  0.5924  0.1970 -0.4025
 4670TIP3    H138205   3.275   3.389   8.793  0.2368 -0.8525 -0.3263
 4670TIP3    H238206   3.215   3.344   8.662  0.7248  1.0969 -1.2518
 4671TIP3   OH238207   0.318   6.536   7.482  0.1336  0.1174 -0.2990
 4671TIP3    H138208   0.361   6.451   7.471 -0.7916 -0.2145 -1.5249
 4671TIP3    H238209   0.367   6.595   7.424  0.7596  0.4428  0.5325
 4672TIP3   OH238210   3.973   6.849   7.570  1.2673  0.0681  0.1131
 4672TIP3    H138211   3.942   6.843   7.661  0.1076 -0.1963 -0.2820
 4672TIP3    H238212   4.040   6.782   7.563  0.5494 -0.7044  0.4622
 4673TIP3   OH238213   6.698   5.610   7.954  0.5060  0.2133  0.0823
 4673TIP3    H138214   6.607   5.595   7.927  0.3169 -0.5710  1.0942
 4673TIP3    H238215   6.743   5.634   7.873 -0.7960  1.6212 -0.2740
 4674TIP3   OH238216   4.579   0.721   7.513 -0.0241  0.5174 -0.8140
 4674TIP3    H138217   4.634   0.799   7.521 -0.6089  0.9888 -1.2582
 4674TIP3    H238218   4.553   0.701   7.603  1.2423 -0.0027 -0.5398
 4675TIP3   OH238219   2.988   5.130   8.979 -0.2799 -0.8913  0.7140
 4675TIP3    H138220   2.960   5.150   9.069  1.5877 -0.2033  1.1848
 4675TIP3    H238221   3.053   5.197   8.959  1.0673 -2.4171 -0.2748
 4676TIP3   OH238222   0.555   3.426   7.630 -0.1299  0.1457  0.1823
 4676TIP3    H138223   0.477   3.471   7.599  0.0887  0.1419 -0.3912
 4676TIP3    H238224   0.562   3.349   7.574  0.4031  0.2569  0.0855
 4677TIP3   OH238225   3.364   7.552   7.247  0.3678 -0.1521 -0.0673
 4677TIP3    H138226   3.363   7.503   7.165  2.2430  0.0222 -0.2344
 4677TIP3    H238227   3.400   7.490   7.311 -3.2140 -1.1180  1.2810
 4678TIP3   OH238228   5.607   4.648   9.192 -0.0694  0.2971 -0.5842
 4678TIP3    H138229   5.542   4.617   9.130  0.8064 -0.6415 -1.0695
 4678TIP3    H238230   5.615   4.578   9.256  2.5092 -0.9722 -2.1336
 4679TIP3   OH238231   5.402   4.046   7.547  0.1174  0.0212  0.1567
 4679TIP3    H138232   5.371   4.128   7.507  0.5748  0.3190  0.4067
 4679TIP3    H238233   5.463   4.074   7.615  0.2919 -0.5310  0.2323
 4680TIP3   OH238234   4.078   6.573   7.191 -0.6319  0.3789 -0.1026
 4680TIP3    H138235   4.090   6.667   7.176 -2.3025  0.6747  0.1813
 4680TIP3    H238236   4.009   6.547   7.130  0.0373 -0.7546 -0.4086
 4681TIP3   OH238237   2.426   5.503   8.249  0.8022  0.2965 -0.0813
 4681TIP3    H138238   2.441   5.554   8.328 -1.3786 -0.0451  0.6289
 4681TIP3    H238239   2.380   5.563   8.190  0.9084  0.0465 -0.4192
 4682TIP3   OH238240   0.100   4.071   7.620 -0.0303 -0.1550  0.3111
 4682TIP3    H138241   0.145   4.155   7.619 -3.1239  1.7161 -2.4298
 4682TIP3    H238242   0.028   4.083   7.681 -1.0169 -0.4358 -0.7626
 4683TIP3   OH238243   6.852   2.974   7.667  0.2990 -0.1149 -0.0243
 4683TIP3    H138244   6.785   3.002   7.604 -0.2728 -1.0855  0.1252
 4683TIP3    H238245   6.831   3.020   7.748 -0.3784 -0.6332  0.1037
 4684TIP3   OH238246   3.451   4.972   9.285 -0.3375  0.2445 -0.2460
 4684TIP3    H138247   3.371   4.977   9.232  0.4622 -0.6115 -1.5809
 4684TIP3    H238248   3.459   4.879   9.307 -1.1955  0.7022  2.3095
 4685TIP3   OH238249   3.849   5.593   9.374  0.3683 -0.3937  0.1069
 4685TIP3    H138250   3.923   5.592   9.435  0.1867 -1.5770  0.3338
 4685TIP3    H238251   3.881   5.643   9.299  0.1616  2.2291  1.6540
 4686TIP3   OH238252   5.808   5.008   7.226 -0.3310  0.3480 -0.4719
 4686TIP3    H138253   5.857   4.925   7.229 -0.2012  0.4471  0.8048
 4686TIP3    H238254   5.765   5.007   7.140  2.4948  0.6001 -2.0163
 4687TIP3   OH238255   3.598   5.122   7.546 -0.3160  0.4420  0.0450
 4687TIP3    H138256   3.627   5.212   7.553 -0.5965  0.4541  1.1569
 4687TIP3    H238257   3.665   5.071   7.590 -0.1076  0.0818 -0.6641
 4688TIP3   OH238258   1.209   0.977   7.916  0.4121  0.2175  0.4375
 4688TIP3    H138259   1.144   1.023   7.969  0.1248 -0.4702  0.7063
 4688TIP3    H238260   1.222   1.032   7.839 -0.6527  0.2659  0.2776
 4689TIP3   OH238261   5.715   5.003   6.972  0.3193 -0.1337  0.0323
 4689TIP3    H138262   5.625   4.974   6.957  0.3813 -0.1916 -0.2430
 4689TIP3    H238263   5.767   4.950   6.911  0.6056 -0.4993  0.5889
 4690TIP3   OH238264   7.433   7.483   7.443 -0.0141  0.1169  0.6714
 4690TIP3    H138265   7.378   7.428   7.498 -0.5285  0.1906  0.2336
 4690TIP3    H238266   7.497   7.521   7.504  0.1313 -0.6810  1.0324
 4691TIP3   OH238267   1.268   2.214   7.517 -0.2555  0.7114  0.2294
 4691TIP3    H138268   1.253   2.232   7.609  0.4080  0.4240  0.4021
 4691TIP3    H238269   1.363   2.201   7.510 -0.4080 -0.2167 -0.3165
 4692TIP3   OH238270   1.251   4.890   8.496  0.2706 -0.1916 -0.1448
 4692TIP3    H138271   1.249   4.984   8.479 -0.7469 -0.4117 -1.3840
 4692TIP3    H238272   1.216   4.850   8.416  1.0210 -1.6459  0.2164
 4693TIP3   OH238273   1.056   5.968   7.600  0.2194  0.1825 -0.3956
 4693TIP3    H138274   0.994   6.036   7.574  0.9302  1.3151  0.7959
 4693TIP3    H238275   1.134   6.016   7.629  0.7212 -1.1361  0.5125
 4694TIP3   OH238276   4.741   3.057   7.495  0.6044 -0.0945  0.0671
 4694TIP3    H138277   4.827   3.092   7.474  0.0703  1.9111  0.9832
 4694TIP3    H238278   4.713   3.012   7.415  1.8523  0.5812 -0.7793
 4695TIP3   OH238279   2.039   1.018   7.741  0.2541 -0.0930 -0.6623
 4695TIP3    H138280   2.060   1.058   7.825  0.5295  1.8262 -1.5877
 4695TIP3    H238281   2.123   1.012   7.695  0.0703 -0.8649 -0.9022
 4696TIP3   OH238282   0.856   5.678   8.711  0.1141  0.5142  1.1235
 4696TIP3    H138283   0.939   5.645   8.677  0.8121  1.3030  1.9933
 4696TIP3    H238284   0.836   5.620   8.785 -2.3250 -2.3554 -1.4987
 4697TIP3   OH238285   2.950   0.716   9.814 -0.0871  0.3114 -0.2603
 4697TIP3    H138286   2.945   0.716   9.909 -0.0275  0.0437 -0.2556
 4697TIP3    H238287   2.970   0.807   9.791  0.7657  0.2083  0.0369
 4698TIP3   OH238288   2.960   4.032   2.206  0.0686  0.0309  0.1201
 4698TIP3    H138289   2.965   3.977   2.128  2.4234 -0.8800  0.8152
 4698TIP3    H238290   2.982   4.120   2.176  1.0436 -0.3304 -0.2407
 4699TIP3   OH238291   3.644   0.188   7.875 -0.2264  0.0511 -0.5639
 4699TIP3    H138292   3.625   0.249   7.946 -0.0273  0.6245 -0.9956
 4699TIP3    H238293   3.603   0.106   7.902 -2.1304  0.8533 -0.8254
 4700TIP3   OH238294   2.216   3.394   6.719  0.2324  0.3085  0.5263
 4700TIP3    H138295   2.160   3.422   6.647 -0.4437  1.9745  1.6356
 4700TIP3    H238296   2.186   3.305   6.740  0.9048 -0.5059 -1.6207
 4701TIP3   OH238297   1.140   7.418   7.117  0.6367 -0.5688  0.1067
 4701TIP3    H138298   1.195   7.361   7.172  1.4404  0.0545 -0.0310
 4701TIP3    H238299   1.142   7.503   7.161 -0.4970 -0.6162  0.2715
 4702TIP3   OH238300   4.393   0.691   8.261 -0.0391 -0.5248  0.2496
 4702TIP3    H138301   4.321   0.634   8.290  0.9255 -0.7336  2.4589
 4702TIP3    H238302   4.351   0.776   8.247 -0.7524 -0.6217  1.5688
 4703TIP3   OH238303   4.980   6.224   8.544 -0.3965  0.2899  0.1983
 4703TIP3    H138304   4.894   6.217   8.585  0.2884 -0.0966  1.6463
 4703TIP3    H238305   4.988   6.316   8.522 -0.8043  0.5182  0.9504
 4704TIP3   OH238306   2.668   3.078   6.792 -0.1531  0.4022 -0.1710
 4704TIP3    H138307   2.735   3.009   6.783  0.2762  0.9894 -1.7020
 4704TIP3    H238308   2.588   3.039   6.758 -0.0617  0.4495 -0.4383
 4705TIP3   OH238309   7.265   7.232   7.274 -0.1548 -0.4771 -0.8656
 4705TIP3    H138310   7.179   7.239   7.317  1.2320 -0.3665  2.1724
 4705TIP3    H238311   7.323   7.287   7.327  2.2342 -2.2336 -1.4876
 4706TIP3   OH238312   1.622   6.498   7.712 -0.0958 -0.4362 -0.4436
 4706TIP3    H138313   1.672   6.561   7.659  0.3503 -0.2368  0.2070
 4706TIP3    H238314   1.592   6.549   7.787 -0.8446 -0.6840 -0.5656
 4707TIP3   OH238315   6.731   5.258   7.849 -0.0419  0.2256 -0.4526
 4707TIP3    H138316   6.757   5.350   7.838  1.3850 -0.2980 -1.7878
 4707TIP3    H238317   6.732   5.245   7.944  0.3950  1.4140 -0.2681
 4708TIP3   OH238318   7.234   2.456   8.193 -0.1374  0.4172 -0.0867
 4708TIP3    H138319   7.229   2.369   8.232  2.0768 -0.1074 -0.8559
 4708TIP3    H238320   7.143   2.482   8.183 -0.8454 -1.3711  1.0909
 4709TIP3   OH238321   4.335   3.890   7.738  0.2244 -0.3259  0.0430
 4709TIP3    H138322   4.364   3.979   7.757 -0.2634  0.2893 -1.8279
 4709TIP3    H238323   4.311   3.893   7.645 -0.1393 -2.3241  0.0427
 4710TIP3   OH238324   0.558   1.931   9.079 -0.1262 -0.1479 -0.7764
 4710TIP3    H138325   0.550   1.919   8.984 -0.1967  0.2299 -0.8175
 4710TIP3    H238326   0.649   1.957   9.092  0.1823 -1.2583 -0.6297
 4711TIP3   OH238327   1.611   6.428   7.310 -0.4383 -0.2288 -0.7044
 4711TIP3    H138328   1.619   6.435   7.406 -0.6312 -0.2930 -0.6842
 4711TIP3    H238329   1.534   6.374   7.296  1.1069 -2.5631 -0.8460
 4712TIP3   OH238330   3.466   6.576   7.667  0.2469 -0.2382  0.2518
 4712TIP3    H138331   3.405   6.541   7.602  0.7987 -0.3483 -0.2187
 4712TIP3    H238332   3.423   6.654   7.701 -0.1650 -0.3255 -0.0606
 4713TIP3   OH238333   2.752   2.611   9.013 -0.3854 -0.1835  0.4633
 4713TIP3    H138334   2.704   2.574   9.087 -1.9702  2.0018  0.6464
 4713TIP3    H238335   2.803   2.682   9.051 -0.4191  0.2996 -0.3774
 4714TIP3   OH238336   1.030   2.210   8.569  0.1594 -0.1939  0.6270
 4714TIP3    H138337   1.100   2.241   8.511  0.0082 -1.8068 -0.5002
 4714TIP3    H238338   0.977   2.288   8.586  0.2825  0.3963 -1.3512
 4715TIP3   OH238339   3.060   4.348   7.219  0.3058  0.3201 -0.3118
 4715TIP3    H138340   3.050   4.341   7.125 -0.5027 -2.0457 -0.1137
 4715TIP3    H238341   3.039   4.439   7.239 -1.9045  0.2848 -2.1540
 4716TIP3   OH238342   5.719   7.475   7.729 -0.2689  0.3073 -0.6926
 4716TIP3    H138343   5.686   7.502   7.815  0.5870 -0.7280 -0.0044
 4716TIP3    H238344   5.795   7.419   7.749 -1.0495 -1.3372 -2.0461
 4717TIP3   OH238345   1.166   5.891   6.822 -0.2946 -0.1183 -0.3189
 4717TIP3    H138346   1.226   5.819   6.800 -2.3744 -1.2801 -2.6588
 4717TIP3    H238347   1.207   5.969   6.786  1.6612 -0.1298  1.6464
 4718TIP3   OH238348   6.191   6.529   7.953  0.4813  0.0527 -0.0106
 4718TIP3    H138349   6.179   6.470   7.878 -1.7752 -0.0885  0.3671
 4718TIP3    H238350   6.179   6.617   7.916  1.6042  0.1436 -0.1826
 4719TIP3   OH238351   1.129   1.598   8.313 -0.1781 -0.2660 -0.2099
 4719TIP3    H138352   1.200   1.636   8.261  0.3197  0.8240  1.2041
 4719TIP3    H238353   1.106   1.666   8.376  1.1937 -2.3898  2.8978
 4720TIP3   OH238354   5.798   7.463   8.558  0.1372  0.3001 -0.0368
 4720TIP3    H138355   5.831   7.480   8.646  1.2485 -0.3491 -0.3077
 4720TIP3    H238356   5.769   7.549   8.527  0.5772  0.7015  0.6234
 4721TIP3   OH238357   5.115   3.992   7.407  0.0759  0.2387  0.7313
 4721TIP3    H138358   5.191   3.988   7.465 -0.1439  1.6506  1.1586
 4721TIP3    H238359   5.067   3.911   7.424  2.4411 -1.6384 -0.9552
 4722TIP3   OH238360   0.137   2.057   8.031 -0.1640 -0.2508 -0.6241
 4722TIP3    H138361   0.226   2.092   8.027 -0.3274  0.2649  0.0399
 4722TIP3    H238362   0.147   1.967   8.062  0.4225 -1.5313 -4.0360
 4723TIP3   OH238363   7.216   0.159   7.692 -0.0142  0.5879 -0.5288
 4723TIP3    H138364   7.290   0.185   7.637 -0.4592  0.9270 -0.9793
 4723TIP3    H238365   7.164   0.239   7.701 -2.1474 -0.3690 -3.0525
 4724TIP3   OH238366   6.159   4.217   7.546 -0.0542  0.0331  0.0691
 4724TIP3    H138367   6.234   4.176   7.504 -0.2988  0.5158 -0.8750
 4724TIP3    H238368   6.087   4.205   7.484 -0.7464 -0.3497  0.9220
 4725TIP3   OH238369   4.564   7.264   8.056 -0.0308 -0.6065 -0.3527
 4725TIP3    H138370   4.505   7.315   8.001 -0.4041 -0.0410  0.5498
 4725TIP3    H238371   4.572   7.179   8.011 -3.3415 -1.5552  0.6252
 4726TIP3   OH238372   3.677   7.411   9.382  0.2541 -0.1376 -0.1511
 4726TIP3    H138373   3.673   7.324   9.421  0.5504 -0.5920 -1.1201
 4726TIP3    H238374   3.769   7.424   9.360  0.2656  0.5520  0.2644
 4727TIP3   OH238375   5.677   1.761   8.563  0.3129 -0.0642  0.0973
 4727TIP3    H138376   5.738   1.824   8.524 -0.9084  1.5190  0.6095
 4727TIP3    H238377   5.656   1.797   8.649 -1.5004 -0.4111 -0.1553
 4728TIP3   OH238378   7.567   1.992   7.426 -0.2029 -1.3513  0.2541
 4728TIP3    H138379   7.508   1.918   7.414 -1.9508  0.0577 -0.2859
 4728TIP3    H238380   7.516   2.055   7.476  0.1868  0.6093 -1.6577
 4729TIP3   OH238381   5.790   6.166   7.308  0.5943  0.5391 -0.2025
 4729TIP3    H138382   5.851   6.229   7.269 -2.1012  2.1256 -2.1907
 4729TIP3    H238383   5.716   6.219   7.338 -1.1413 -1.5184 -0.5903
 4730TIP3   OH238384   1.791   0.679   8.990  0.1325 -0.0313  0.1300
 4730TIP3    H138385   1.748   0.725   8.918  0.1734  0.4823  0.4348
 4730TIP3    H238386   1.721   0.667   9.055  0.3072  0.2644  0.3695
 4731TIP3   OH238387   1.592   3.224   8.786  0.0722 -0.7519 -0.7127
 4731TIP3    H138388   1.610   3.314   8.814  2.2619 -0.6234 -2.2145
 4731TIP3    H238389   1.560   3.234   8.696 -1.4893 -1.4223 -0.2646
 4732TIP3   OH238390   2.872   5.203   7.010  0.2993 -0.4847 -0.0214
 4732TIP3    H138391   2.835   5.288   7.029  0.1963 -0.5074 -0.1193
 4732TIP3    H238392   2.809   5.161   6.952  0.9045 -0.1578 -0.9558
 4733TIP3   OH238393   1.619   2.790   7.005  0.0202 -0.6122  0.2687
 4733TIP3    H138394   1.545   2.750   7.049 -0.6070 -0.1444 -0.3433
 4733TIP3    H238395   1.581   2.840   6.933  0.8112  0.6514  0.6794
 4734TIP3   OH238396   5.207   1.385   8.658 -0.3612  0.1647  0.4025
 4734TIP3    H138397   5.226   1.405   8.566  0.9622  1.3598  0.8818
 4734TIP3    H238398   5.268   1.315   8.680 -0.2667  0.2831  0.5187
 4735TIP3   OH238399   4.889   4.197   8.324 -0.2657  0.6489 -0.0060
 4735TIP3    H138400   4.938   4.277   8.302 -1.0460  0.9476 -0.7517
 4735TIP3    H238401   4.818   4.195   8.259 -0.3202 -0.6004  0.0770
 4736TIP3   OH238402   4.220   4.462   9.059  0.1806  0.1726 -0.0457
 4736TIP3    H138403   4.247   4.554   9.061 -1.5238  0.8114 -2.0469
 4736TIP3    H238404   4.302   4.413   9.051  1.2032  1.3925  2.1380
 4737TIP3   OH238405   1.902   4.259   9.157  0.1281  0.2008  0.0916
 4737TIP3    H138406   1.968   4.326   9.143 -0.7229  1.1306  0.4145
 4737TIP3    H238407   1.819   4.305   9.146 -0.4867 -0.5954  1.1974
 4738TIP3   OH238408   6.528   3.687   9.380 -0.2250 -0.7715 -0.0650
 4738TIP3    H138409   6.599   3.624   9.398 -0.4284 -0.6696  1.2292
 4738TIP3    H238410   6.509   3.676   9.287  1.2021 -1.1022 -0.3505
 4739TIP3   OH238411   2.943   2.326   8.289  0.3514 -0.1149  0.5694
 4739TIP3    H138412   2.996   2.332   8.369  1.1025 -0.4940  0.1148
 4739TIP3    H238413   2.989   2.262   8.235 -2.1145 -2.6978  1.3025
 4740TIP3   OH238414   6.887   3.484   7.803 -0.0442 -0.1145 -0.2374
 4740TIP3    H138415   6.958   3.492   7.740  0.6541 -0.5700  0.4666
 4740TIP3    H238416   6.921   3.423   7.869 -0.3585  1.1097  1.1040
 4741TIP3   OH238417   1.284   5.143   7.970 -0.0769 -0.2635 -0.3436
 4741TIP3    H138418   1.222   5.171   7.903 -0.0443 -0.0492 -0.2849
 4741TIP3    H238419   1.316   5.225   8.010 -0.5120 -0.4042  0.3087
 4742TIP3   OH238420   2.595   2.221   8.639  0.2400 -0.1601 -0.0098
 4742TIP3    H138421   2.647   2.204   8.560 -2.3440 -0.6074 -1.7608
 4742TIP3    H238422   2.507   2.191   8.616 -0.6202 -0.3101  3.1067
 4743TIP3   OH238423   5.860   5.031   7.496  0.3886 -0.2304  0.2025
 4743TIP3    H138424   5.818   5.113   7.525  2.6561  1.9881 -2.1906
 4743TIP3    H238425   5.834   5.023   7.404 -0.4136 -2.7392  0.5888
 4744TIP3   OH238426   0.928   0.140   8.548  0.3011  0.3320 -0.1055
 4744TIP3    H138427   0.921   0.154   8.454  1.0380 -0.9455 -0.3650
 4744TIP3    H238428   0.867   0.204   8.586 -2.8243 -1.5330 -1.5881
 4745TIP3   OH238429   0.947   1.234   6.623  0.4865  0.7330 -0.3287
 4745TIP3    H138430   0.970   1.203   6.711 -0.0785  0.6308 -0.2160
 4745TIP3    H238431   0.973   1.162   6.565 -3.4068 -1.3083  0.1602
 4746TIP3   OH238432   2.507   7.397   7.867  0.0324 -0.3445  0.0264
 4746TIP3    H138433   2.474   7.403   7.777  1.1079  0.7136 -0.3396
 4746TIP3    H238434   2.602   7.409   7.858  0.1487 -0.1583  1.3116
 4747TIP3   OH238435   1.234   2.776   7.813  0.9941  0.0517  0.0003
 4747TIP3    H138436   1.295   2.846   7.835  0.4773  0.9266 -1.2239
 4747TIP3    H238437   1.239   2.715   7.887  2.5213  0.6459  0.4156
 4748TIP3   OH238438   1.721   7.048   8.393  0.3762 -0.0161  0.4138
 4748TIP3    H138439   1.729   7.140   8.418  0.6545  0.3043 -0.8222
 4748TIP3    H238440   1.643   7.044   8.339  0.0263 -0.6312  0.9382
 4749TIP3   OH238441   3.797   4.375   8.689 -0.1741  0.0861  0.2951
 4749TIP3    H138442   3.733   4.445   8.676 -0.9667 -0.8068 -0.8204
 4749TIP3    H238443   3.750   4.295   8.666  1.4735 -0.5501 -1.0652
 4750TIP3   OH238444   7.242   1.949   9.075 -0.2183 -0.0098 -0.7338
 4750TIP3    H138445   7.225   1.998   9.156 -0.7998  0.9205 -1.3896
 4750TIP3    H238446   7.308   1.885   9.099  0.3598  0.9124  0.2452
 4751TIP3   OH238447   0.038   2.212   7.026 -0.3843  0.3824 -0.6640
 4751TIP3    H138448   0.066   2.132   6.981 -0.4465 -2.1631  3.3803
 4751TIP3    H238449  -0.052   2.226   6.995 -0.4830 -1.2904 -1.2468
 4752TIP3   OH238450   2.607   1.556   7.575 -0.6893 -0.1847 -0.4858
 4752TIP3    H138451   2.600   1.569   7.481 -0.6703  1.0453 -0.3397
 4752TIP3    H238452   2.684   1.608   7.601 -0.0177 -1.3940  0.0637
 4753TIP3   OH238453   4.081   7.445   8.836  0.2870 -0.2428 -0.0030
 4753TIP3    H138454   4.148   7.381   8.814 -0.9157 -1.5723  0.0399
 4753TIP3    H238455   4.000   7.394   8.841 -0.5640  1.1293  0.9454
 4754TIP3   OH238456   2.143   5.503   9.374 -0.3901  0.1311 -0.3977
 4754TIP3    H138457   2.090   5.423   9.369 -0.5251  0.1434  0.6779
 4754TIP3    H238458   2.103   5.554   9.444 -1.5151  2.0650 -2.3221
 4755TIP3   OH238459   0.889   0.148   8.247 -0.3520 -0.2438  0.0567
 4755TIP3    H138460   0.928   0.232   8.220 -0.6753 -0.3125 -0.6534
 4755TIP3    H238461   0.856   0.110   8.166 -0.2342 -1.0530  0.3802
 4756TIP3   OH238462   1.117   3.882   7.367  0.2364 -0.0397 -0.5472
 4756TIP3    H138463   1.129   3.788   7.357 -0.4096 -0.5508  2.4617
 4756TIP3    H238464   1.143   3.900   7.457 -1.0443  2.4082 -0.5837
 4757TIP3   OH238465   5.990   1.031   7.022 -0.0702  0.1317 -0.1962
 4757TIP3    H138466   6.005   1.074   6.938 -1.3658  1.0204 -0.0132
 4757TIP3    H238467   5.902   0.994   7.013  0.8680 -2.2169 -0.2104
 4758TIP3   OH238468   5.521   6.529   7.299 -0.0663  0.8754 -0.4108
 4758TIP3    H138469   5.564   6.443   7.298 -0.6584  0.5592  0.2793
 4758TIP3    H238470   5.534   6.561   7.388 -1.7783  0.4947  0.0073
 4759TIP3   OH238471   0.407   3.736   7.603 -0.4261  0.3208 -0.0016
 4759TIP3    H138472   0.319   3.772   7.590 -0.3523  0.6327  0.3582
 4759TIP3    H238473   0.410   3.659   7.546 -1.2957 -0.3111  0.7725
 4760TIP3   OH238474   2.232   0.557   8.660  0.2117 -0.0515  0.0236
 4760TIP3    H138475   2.208   0.580   8.570 -1.1009 -1.5372 -0.0432
 4760TIP3    H238476   2.148   0.549   8.706  0.5819 -3.0288  0.4003
 4761TIP3   OH238477   0.084   6.028   9.532 -0.4208  0.5259  0.4798
 4761TIP3    H138478   0.098   5.997   9.442 -1.9617 -0.5286  0.5503
 4761TIP3    H238479   0.171   6.029   9.571  0.3240  1.2803 -1.0932
 4762TIP3   OH238480   0.566   4.415   8.304 -0.3400  0.0650  0.0614
 4762TIP3    H138481   0.487   4.450   8.346 -1.0768 -0.1162 -1.1300
 4762TIP3    H238482   0.598   4.348   8.365 -1.6166 -0.4946  0.1540
 4763TIP3   OH238483   2.035   6.944   9.304 -0.7949  0.1214 -0.0965
 4763TIP3    H138484   2.063   6.878   9.240 -1.8635  0.5384 -1.0245
 4763TIP3    H238485   2.103   7.011   9.300 -0.0968 -0.5431  0.2938
 4764TIP3   OH238486   3.415   5.159   7.935  0.3104  0.3406 -0.1316
 4764TIP3    H138487   3.396   5.076   7.977  1.0826 -0.5805 -1.5068
 4764TIP3    H238488   3.504   5.180   7.961 -0.8346  2.3285  2.6270
 4765TIP3   OH238489   1.556   4.299   9.535 -0.0807 -0.0529  1.1025
 4765TIP3    H138490   1.617   4.245   9.585 -0.3990 -2.1988 -0.6327
 4765TIP3    H238491   1.564   4.266   9.445 -3.1208  0.1771  0.6533
 4766TIP3   OH238492   1.635   3.090   8.511  0.1542  0.3648 -0.3749
 4766TIP3    H138493   1.669   3.104   8.599 -0.4290  0.1328 -0.1041
 4766TIP3    H238494   1.558   3.146   8.506 -0.6852 -0.7336 -0.1977
 4767TIP3   OH238495   4.760   6.121   7.641  0.4651 -0.9530 -0.6212
 4767TIP3    H138496   4.791   6.043   7.686 -0.5385 -1.5597 -0.9730
 4767TIP3    H238497   4.841   6.166   7.614  1.0439 -1.8775 -0.4647
 4768TIP3   OH238498   2.362   7.056   6.855 -0.7304  0.5291 -0.1048
 4768TIP3    H138499   2.402   7.073   6.770 -0.7061 -1.2146 -0.4878
 4768TIP3    H238500   2.343   6.962   6.854  0.6123  0.1427  2.3756
 4769TIP3   OH238501   4.243   1.031   7.699  0.9673  0.2191  0.0099
 4769TIP3    H138502   4.257   0.972   7.773 -0.3569  1.8262  1.6588
 4769TIP3    H238503   4.225   0.973   7.625  0.0669 -1.4637  1.4608
 4770TIP3   OH238504   0.981   1.212   8.428  0.1597 -0.4215 -0.1479
 4770TIP3    H138505   1.032   1.286   8.461 -1.1088  0.0994  0.7185
 4770TIP3    H238506   0.988   1.218   8.333  1.5473 -0.2663 -0.0576
 4771TIP3   OH238507   1.019   0.397   8.187 -0.0654  0.6344  0.1141
 4771TIP3    H138508   1.079   0.409   8.113  0.1920  0.4350  0.2919
 4771TIP3    H238509   0.964   0.476   8.186  0.3236  0.9092  0.0705
 4772TIP3   OH238510   2.545   5.723   9.092 -0.7956 -0.0834 -0.6741
 4772TIP3    H138511   2.465   5.749   9.139 -0.6145 -0.2248 -0.2774
 4772TIP3    H238512   2.603   5.799   9.099 -0.8497 -0.0242 -0.8607
 4773TIP3   OH238513   5.401   5.488   7.153  0.1062 -0.6142 -0.0147
 4773TIP3    H138514   5.361   5.574   7.141  0.7277  0.3885  3.8689
 4773TIP3    H238515   5.490   5.498   7.119 -0.2446 -0.2080 -0.8452
 4774TIP3   OH238516   3.116   2.020   8.680  0.0842  0.0801  0.1261
 4774TIP3    H138517   3.100   1.933   8.715  1.6039  0.1199  0.9953
 4774TIP3    H238518   3.098   2.079   8.752 -1.5560  0.5705 -0.6422
 4775TIP3   OH238519   7.096   1.237   8.528  0.5817 -1.1469  0.2441
 4775TIP3    H138520   7.010   1.208   8.496 -1.4984  2.0027  2.4214
 4775TIP3    H238521   7.107   1.192   8.612 -0.5171  0.7021  1.4491
 4776TIP3   OH238522   3.411   6.769   7.976  0.0971 -0.1182  0.5847
 4776TIP3    H138523   3.494   6.738   8.012  0.9889  1.0167 -0.4030
 4776TIP3    H238524   3.366   6.808   8.050  1.2036  0.7540  0.8258
 4777TIP3   OH238525   7.513   5.980   7.848  0.2914  0.4954  0.5431
 4777TIP3    H138526   7.588   5.992   7.790  1.1114 -0.8389  1.2609
 4777TIP3    H238527   7.550   5.985   7.936 -0.7528  1.4081  0.9473
 4778TIP3   OH238528   3.288   3.249   8.532  0.2917  0.2840  0.3761
 4778TIP3    H138529   3.332   3.176   8.575 -0.7112 -1.0256 -0.7342
 4778TIP3    H238530   3.201   3.216   8.510  0.2014  1.4188 -1.1837
 4779TIP3   OH238531   3.245   2.092   9.522  0.1811  0.1910  0.2695
 4779TIP3    H138532   3.162   2.046   9.532 -0.1965  0.7450 -0.2945
 4779TIP3    H238533   3.306   2.042   9.577 -0.2901 -0.7855 -0.0648
 4780TIP3   OH238534   2.844   5.038   8.760 -0.1907 -0.1578 -0.7504
 4780TIP3    H138535   2.893   5.069   8.837 -0.3779 -1.3242 -0.1369
 4780TIP3    H238536   2.794   5.114   8.731 -0.3100  0.2352  0.4377
 4781TIP3   OH238537   5.260   4.385   7.747 -0.1148 -0.4253  0.0624
 4781TIP3    H138538   5.298   4.427   7.670  0.9336  0.5779  1.0877
 4781TIP3    H238539   5.334   4.342   7.790 -0.4445  0.0230  1.1232
 4782TIP3   OH238540   5.937   2.121   9.198 -0.4967  0.6468 -0.2530
 4782TIP3    H138541   6.020   2.075   9.180  0.0840  1.2613  0.7299
 4782TIP3    H238542   5.871   2.070   9.152  0.3472 -0.2380 -0.5283
 4783TIP3   OH238543   1.296   0.709   8.542 -0.5700  0.1414  0.5330
 4783TIP3    H138544   1.204   0.737   8.549 -0.2122  1.1458  1.3902
 4783TIP3    H238545   1.345   0.776   8.588  0.7274  0.2487 -0.9217
 4784TIP3   OH238546   6.616   7.332   8.616 -0.0339  0.4796 -0.0581
 4784TIP3    H138547   6.524   7.343   8.639  0.0659 -0.3574  0.8133
 4784TIP3    H238548   6.615   7.284   8.532 -0.4159 -1.4280  0.9824
 4785TIP3   OH238549   1.888   7.207   9.065 -0.3697  0.0617  0.2848
 4785TIP3    H138550   1.901   7.235   9.156  1.8345  1.1877 -0.3077
 4785TIP3    H238551   1.841   7.279   9.024 -1.4612 -0.4938  0.5303
 4786TIP3   OH238552   0.065   3.429   9.409  0.4358 -0.3226  0.1130
 4786TIP3    H138553   0.076   3.524   9.405  1.0602 -0.4313 -3.1240
 4786TIP3    H238554  -0.030   3.415   9.401  0.3295 -0.0047  0.7424
 4787TIP3   OH238555   2.425   0.696   8.148 -0.2350 -0.3176 -0.2977
 4787TIP3    H138556   2.497   0.754   8.173  0.1462 -1.2215  0.7847
 4787TIP3    H238557   2.364   0.753   8.101 -0.4037  1.2788  1.6715
 4788TIP3   OH238558   5.968   6.004   7.816 -0.0209 -0.1522  0.0603
 4788TIP3    H138559   5.972   6.056   7.896  1.9964  0.0481 -0.1205
 4788TIP3    H238560   5.944   5.916   7.847  2.4792 -0.5373  1.2083
 4789TIP3   OH238561   7.473   3.240   9.549 -0.3831 -0.6970  0.1957
 4789TIP3    H138562   7.380   3.217   9.549 -0.8607  1.0350 -0.6932
 4789TIP3    H238563   7.476   3.324   9.502  1.8458 -1.5761 -1.3607
 4790TIP3   OH238564   0.754   2.924   7.513 -0.1636 -0.1756  0.4548
 4790TIP3    H138565   0.660   2.904   7.518 -0.3743  0.6943  0.1259
 4790TIP3    H238566   0.778   2.952   7.601 -0.0554 -1.0026  0.7032
 4791TIP3   OH238567   6.958   6.214   6.409 -0.4101 -0.3229 -0.0527
 4791TIP3    H138568   7.008   6.134   6.418  0.6240  0.2630 -0.4280
 4791TIP3    H238569   7.013   6.272   6.356 -0.9869  0.7576  0.4831
 4792TIP3   OH238570   2.480   6.169   9.095 -0.6743  0.0976  0.3131
 4792TIP3    H138571   2.402   6.160   9.149 -2.3607 -0.3157 -2.0096
 4792TIP3    H238572   2.476   6.259   9.063 -0.3194  0.0017 -0.0064
 4793TIP3   OH238573   0.263   3.234   8.314  0.2498  0.0611  0.2806
 4793TIP3    H138574   0.287   3.250   8.405  3.6615 -2.8111  0.1226
 4793TIP3    H238575   0.213   3.152   8.317 -0.3475  0.3997 -0.3605
 4794TIP3   OH238576   3.005   5.450   8.120 -0.0032  0.0980  0.0116
 4794TIP3    H138577   3.051   5.485   8.044 -1.1709  1.1106 -0.2622
 4794TIP3    H238578   3.066   5.462   8.193  0.2878  1.1826 -0.3825
 4795TIP3   OH238579   6.404   3.885   6.625 -0.4782 -0.1617  0.2574
 4795TIP3    H138580   6.331   3.892   6.687  0.3449  2.1464  1.0857
 4795TIP3    H238581   6.411   3.972   6.586  2.1294 -0.1468  0.5847
 4796TIP3   OH238582   5.292   1.955   9.365 -0.7833  0.2576 -0.1311
 4796TIP3    H138583   5.372   2.007   9.375 -0.0593 -0.8646  0.1065
 4796TIP3    H238584   5.225   2.004   9.414  0.5625 -0.4866  2.6462
 4797TIP3   OH238585   3.081   0.382   7.785  0.3774  0.2076 -0.4004
 4797TIP3    H138586   3.008   0.417   7.837  1.2278  1.7255 -0.1680
 4797TIP3    H238587   3.159   0.411   7.832  1.1403 -0.7201 -1.0787
 4798TIP3   OH238588   5.583   5.063   8.225 -0.2269  0.3421  0.1579
 4798TIP3    H138589   5.649   5.130   8.244  0.6971 -0.1576 -1.1439
 4798TIP3    H238590   5.526   5.104   8.160 -0.6688  0.4447  0.6028
 4799TIP3   OH238591   3.225   0.954   6.731 -0.1719  0.1794  0.0352
 4799TIP3    H138592   3.315   0.984   6.722  0.2072  0.0201  2.6754
 4799TIP3    H238593   3.231   0.878   6.789 -2.0324  0.3649  0.5234
 4800TIP3   OH238594   1.449   6.508   8.759  0.0046  0.5592  0.1432
 4800TIP3    H138595   1.508   6.507   8.834 -0.0303 -2.0403  0.2289
 4800TIP3    H238596   1.367   6.472   8.792 -0.7600  1.5076 -0.6348
 4801TIP3   OH238597   3.974   1.511   8.705 -0.6693  0.5926  0.1633
 4801TIP3    H138598   3.950   1.583   8.646 -1.3319  1.2048  1.1592
 4801TIP3    H238599   4.030   1.454   8.651 -1.2355  1.1385 -1.0531
 4802TIP3   OH238600   4.096   7.638   9.264  0.4748 -0.1308 -0.4562
 4802TIP3    H138601   4.135   7.573   9.206  0.3881  0.5351 -1.2898
 4802TIP3    H238602   4.018   7.595   9.300  0.9453 -0.8090 -0.2446
 4803TIP3   OH238603   0.814   5.929   9.500 -0.0360  0.3223  0.0954
 4803TIP3    H138604   0.860   6.013   9.506  0.3718  0.0331  1.0735
 4803TIP3    H238605   0.726   5.947   9.534 -0.9350  1.0337 -2.3617
 4804TIP3   OH238606   1.784   6.322   7.840 -0.3699 -0.2491  0.2875
 4804TIP3    H138607   1.738   6.391   7.792  0.0617  0.6735  1.1651
 4804TIP3    H238608   1.718   6.285   7.898 -1.0958 -1.8816 -1.4784
 4805TIP3   OH238609   0.412   6.297   8.889 -0.5715 -0.7109  0.0192
 4805TIP3    H138610   0.334   6.295   8.944 -0.5840 -0.6194  0.0057
 4805TIP3    H238611   0.427   6.206   8.865 -0.0492 -0.8688  0.9032
 4806TIP3   OH238612   1.980   5.816   8.531 -1.3111 -0.8266 -0.1638
 4806TIP3    H138613   1.930   5.756   8.475 -2.7413  1.1854 -1.1736
 4806TIP3    H238614   2.053   5.844   8.476 -0.4952 -1.7685  0.3973
 4807TIP3   OH238615   5.823   5.763   8.283 -0.4000 -0.4798  0.6462
 4807TIP3    H138616   5.751   5.700   8.294 -1.9065  1.0793  0.1808
 4807TIP3    H238617   5.826   5.811   8.365  0.1278 -0.5425  0.6648
 4808TIP3   OH238618   3.247   3.990   8.114  0.4355 -0.0383 -0.5057
 4808TIP3    H138619   3.282   4.074   8.144 -2.8321  2.2798 -2.5328
 4808TIP3    H238620   3.191   3.960   8.186 -1.0373  1.3687 -0.9924
 4809TIP3   OH238621   5.337   3.023   7.658  0.2953  0.5209  0.3310
 4809TIP3    H138622   5.357   3.054   7.569  1.7676  0.2934  0.5597
 4809TIP3    H238623   5.312   2.931   7.647 -1.3584  0.9815 -0.0332
 4810TIP3   OH238624   1.500   7.067   9.031  0.6936  0.5530  0.1807
 4810TIP3    H138625   1.499   7.013   9.110  0.5413  0.2498 -0.0244
 4810TIP3    H238626   1.424   7.125   9.040 -1.1232 -1.4568 -1.0720
 4811TIP3   OH238627   4.824   4.960   7.936 -0.1462 -0.1982 -0.6013
 4811TIP3    H138628   4.742   4.934   7.894 -0.2175 -0.1119 -0.5164
 4811TIP3    H238629   4.800   5.035   7.991  0.2944  0.8375 -1.7882
 4812TIP3   OH238630   7.427   4.449   7.019 -0.4847  0.2882 -0.2384
 4812TIP3    H138631   7.480   4.454   6.939  2.3452 -1.0984  1.3729
 4812TIP3    H238632   7.340   4.477   6.992  1.0298  2.9699 -3.0984
 4813TIP3   OH238633   0.164   0.479   7.680 -0.5036 -0.3963 -0.0268
 4813TIP3    H138634   0.172   0.437   7.595 -1.1257 -1.2530  0.3260
 4813TIP3    H238635   0.251   0.474   7.718 -0.6838 -1.9145  0.2453
 4814TIP3   OH238636   4.507   1.706   8.063  0.4030 -0.1829  0.0315
 4814TIP3    H138637   4.557   1.665   8.134  1.5055  0.2897 -0.4544
 4814TIP3    H238638   4.572   1.728   7.997 -0.4537  0.4632 -0.6273
 4815TIP3   OH238639   6.709   4.517   8.230  0.3721 -0.0121 -0.3995
 4815TIP3    H138640   6.733   4.482   8.316  0.0540  0.0119 -0.2985
 4815TIP3    H238641   6.742   4.607   8.231 -1.9791  0.9484  0.7890
 4816TIP3   OH238642   7.176   4.737   8.961  0.0897 -0.1793  0.3343
 4816TIP3    H138643   7.215   4.730   8.874 -0.5386  2.0505 -0.1861
 4816TIP3    H238644   7.230   4.801   9.007  0.0394 -0.8656  1.4050
 4817TIP3   OH238645   0.033   6.358   6.711  0.1522  1.0876  0.1948
 4817TIP3    H138646  -0.031   6.427   6.728  0.1927  0.6791  2.2563
 4817TIP3    H238647   0.110   6.382   6.763  0.6184  0.1143 -0.0162
 4818TIP3   OH238648   7.144   3.637   8.496 -0.1026 -0.1954 -0.1657
 4818TIP3    H138649   7.227   3.682   8.506  0.6568 -2.0473  3.9431
 4818TIP3    H238650   7.159   3.572   8.428  1.8412 -0.4492  0.4575
 4819TIP3   OH238651   1.952   5.137   8.350  0.0034 -0.0525 -0.4109
 4819TIP3    H138652   1.989   5.198   8.287 -0.7110  0.2109 -0.5846
 4819TIP3    H238653   1.883   5.091   8.302 -0.9818  0.6023  0.3336
 4820TIP3   OH238654   7.157   1.691   7.120  0.0144  0.0730 -0.1690
 4820TIP3    H138655   7.112   1.629   7.063 -0.0304  0.7737 -0.9234
 4820TIP3    H238656   7.200   1.637   7.187  1.0821 -0.8725 -1.5651
 4821TIP3   OH238657   0.121   2.119   7.293  0.0357 -0.0389  0.1065
 4821TIP3    H138658   0.042   2.067   7.308 -0.8154  1.2666  0.4112
 4821TIP3    H238659   0.106   2.160   7.208  0.0114  0.8287  0.5159
 4822TIP3   OH238660   0.362   3.896   8.557  0.4251 -0.0802 -0.0658
 4822TIP3    H138661   0.410   3.973   8.528 -0.3973  0.3628 -0.2820
 4822TIP3    H238662   0.410   3.822   8.519 -1.0235  0.4793 -3.3351
 4823TIP3   OH238663   6.842   1.101   8.372 -0.0140 -0.2823  0.0833
 4823TIP3    H138664   6.839   1.058   8.287  0.0692 -2.1912  0.9960
 4823TIP3    H238665   6.778   1.172   8.365  1.5055  1.0002 -2.2377
 4824TIP3   OH238666   7.599   5.484   6.679  0.3980  0.0694 -0.4214
 4824TIP3    H138667   7.625   5.441   6.597  1.8107  0.0068  0.0310
 4824TIP3    H238668   7.657   5.559   6.686  1.1951 -0.6553  1.1547
 4825TIP3   OH238669   6.872   2.761   8.264 -0.7007  0.6093  0.2688
 4825TIP3    H138670   6.843   2.830   8.205 -1.3612  0.6949  0.6748
 4825TIP3    H238671   6.955   2.793   8.300 -0.4315  0.6727 -0.4015
 4826TIP3   OH238672   3.387   4.608   8.232 -0.3427  0.4381  0.3347
 4826TIP3    H138673   3.418   4.694   8.263  0.2866  0.3175  0.0485
 4826TIP3    H238674   3.303   4.627   8.190 -0.4908  0.8259  0.7951
 4827TIP3   OH238675   6.757   0.903   8.190  0.5813 -0.3087 -0.3335
 4827TIP3    H138676   6.771   0.809   8.198  0.1042 -0.4242 -0.7679
 4827TIP3    H238677   6.780   0.923   8.099 -1.2427 -0.3708 -0.8486
 4828TIP3   OH238678   7.314   4.574   6.386  0.0187 -0.2759 -0.0151
 4828TIP3    H138679   7.342   4.502   6.330  1.8298  0.8070 -0.5750
 4828TIP3    H238680   7.385   4.585   6.449 -1.0381 -0.0939  1.1953
 4829TIP3   OH238681   5.971   4.147   9.218  0.4443  0.1051 -0.2773
 4829TIP3    H138682   6.018   4.068   9.243 -0.5311 -0.2072  0.6546
 4829TIP3    H238683   6.023   4.184   9.147  2.1543 -0.1391  0.7816
 4830TIP3   OH238684   3.073   5.507   7.242  0.1119 -0.0679 -0.2103
 4830TIP3    H138685   3.136   5.436   7.233 -0.7221 -1.2269  2.0356
 4830TIP3    H238686   3.059   5.539   7.153  0.8245 -2.4764 -1.2886
 4831TIP3   OH238687   1.421   4.352   6.764  0.3334  0.3127 -0.4360
 4831TIP3    H138688   1.335   4.344   6.722 -0.1786  0.1235  0.6279
 4831TIP3    H238689   1.483   4.345   6.691 -0.4846 -1.2644 -1.0234
 4832TIP3   OH238690   4.277   1.745   8.243 -0.0574  0.0580  0.4028
 4832TIP3    H138691   4.315   1.657   8.243 -1.6504 -0.6727 -0.1216
 4832TIP3    H238692   4.318   1.789   8.168  0.2625 -0.4591  0.2681
 4833TIP3   OH238693   1.178   0.704   7.878  0.2321 -0.3947  0.4591
 4833TIP3    H138694   1.258   0.651   7.885  1.1486  0.9614  0.7019
 4833TIP3    H238695   1.206   0.792   7.904 -1.6695 -0.1568  1.8557
 4834TIP3   OH238696   0.554   1.251   9.331  0.2090  0.2648  0.2458
 4834TIP3    H138697   0.647   1.267   9.345  0.1216  0.3015  0.8185
 4834TIP3    H238698   0.551   1.174   9.275  0.5952  0.8066 -0.5504
 4835TIP3   OH238699   5.105   3.190   7.700  0.5227 -0.4010  0.1167
 4835TIP3    H138700   5.186   3.146   7.673  0.9851 -1.2575  2.6554
 4835TIP3    H238701   5.069   3.135   7.769 -1.8580  0.3879 -0.3977
 4836TIP3   OH238702   7.591   3.072   9.301  0.4670  0.0383  0.3200
 4836TIP3    H138703   7.570   3.031   9.385  0.0542 -1.0840 -0.3065
 4836TIP3    H238704   7.547   3.157   9.303 -0.8778 -0.6343  0.6172
 4837TIP3   OH238705   4.051   6.009   9.603  0.9094 -0.1212  0.1842
 4837TIP3    H138706   4.026   6.009   9.696 -0.1438 -0.4416 -0.0865
 4837TIP3    H238707   3.976   6.046   9.558  2.2185  2.0360 -0.3792
 4838TIP3   OH238708   0.680   3.217   8.699 -0.0054 -0.3133  0.4931
 4838TIP3    H138709   0.643   3.183   8.780  0.5503 -0.2280  0.7833
 4838TIP3    H238710   0.755   3.160   8.681  0.5388  0.3570  0.6327
 4839TIP3   OH238711   2.109   4.527   8.052 -0.0048  0.4324  0.2193
 4839TIP3    H138712   2.196   4.504   8.084  0.6100  1.5991 -0.5335
 4839TIP3    H238713   2.072   4.444   8.021  0.4724 -0.2246  1.3476
 4840TIP3   OH238714   5.088   2.204   8.102  0.0695 -0.2936  0.9357
 4840TIP3    H138715   5.086   2.298   8.083 -0.9912 -0.6025 -0.6700
 4840TIP3    H238716   5.125   2.198   8.190 -1.4678  1.7378  1.7867
 4841TIP3   OH238717   0.620   6.826   7.232 -0.3088 -0.5804 -0.1578
 4841TIP3    H138718   0.561   6.754   7.254  1.3365 -0.9920  3.7951
 4841TIP3    H238719   0.563   6.903   7.229 -1.6164 -1.5395 -0.9956
 4842TIP3   OH238720   6.154   3.581   7.481 -0.3516 -0.5633  0.1823
 4842TIP3    H138721   6.118   3.536   7.557 -0.0870 -0.1029  0.5870
 4842TIP3    H238722   6.233   3.530   7.459 -0.1109 -0.3656  0.5730
 4843TIP3   OH238723   6.731   6.768   8.234 -0.2139 -0.3267  0.2538
 4843TIP3    H138724   6.649   6.725   8.256 -0.0507 -1.6828 -1.5154
 4843TIP3    H238725   6.799   6.710   8.270  0.0587  1.5079  2.9775
 4844TIP3   OH238726   5.722   6.124   9.112 -0.4785 -0.2278  0.4572
 4844TIP3    H138727   5.741   6.204   9.161  0.9974  0.2525 -0.8049
 4844TIP3    H238728   5.653   6.149   9.051  0.4624  0.3207 -0.4161
 4845TIP3   OH238729   4.387   1.118   8.227 -0.0676 -0.1435 -0.0627
 4845TIP3    H138730   4.454   1.099   8.162  0.6535  0.0972  0.6062
 4845TIP3    H238731   4.424   1.090   8.310 -0.8940 -0.2428  0.2861
 4846TIP3   OH238732   5.157   1.661   7.262  0.0952 -0.1482 -0.2552
 4846TIP3    H138733   5.190   1.747   7.237 -0.6243 -0.4163 -2.3227
 4846TIP3    H238734   5.088   1.679   7.326 -0.0433  0.8183 -0.6640
 4847TIP3   OH238735   1.310   4.739   6.493  0.1581 -0.3167  0.0610
 4847TIP3    H138736   1.234   4.738   6.551 -0.5567  2.0890 -0.7106
 4847TIP3    H238737   1.380   4.778   6.546 -0.3934  1.5332 -0.5049
 4848TIP3   OH238738   0.067   3.294   8.639  0.6351  0.0573 -0.4820
 4848TIP3    H138739   0.024   3.297   8.725  0.1999  0.5242 -0.7072
 4848TIP3    H238740   0.027   3.219   8.596  1.8723 -1.0467  0.2341
 4849TIP3   OH238741   2.726   6.134   7.373  0.8891  0.4534  0.5560
 4849TIP3    H138742   2.820   6.115   7.380  0.8626 -0.8743 -1.7206
 4849TIP3    H238743   2.722   6.228   7.356  2.0080  0.1704 -1.5654
 4850TIP3   OH238744   7.103   2.806   8.392  0.3940 -0.1328 -0.3813
 4850TIP3    H138745   7.168   2.821   8.323  0.9807 -0.2120  0.1455
 4850TIP3    H238746   7.137   2.732   8.441  0.3185  0.3450  0.4030
 4851TIP3   OH238747   4.316   7.672   6.865  0.6847 -0.3244  0.2917
 4851TIP3    H138748   4.328   7.767   6.858  1.3456 -0.4050  0.1939
 4851TIP3    H238749   4.397   7.635   6.829  0.0456 -0.9481 -0.5536
 4852TIP3   OH238750   4.675   7.086   8.325 -0.0519  0.6282  0.7216
 4852TIP3    H138751   4.591   7.129   8.338 -0.2709  0.7982 -0.9823
 4852TIP3    H238752   4.653   7.003   8.282  0.6044  0.3151  0.9746
 4853TIP3   OH238753   6.223   0.575   7.361  0.1064 -0.4703 -0.1747
 4853TIP3    H138754   6.260   0.519   7.293  0.1415 -1.1458  0.3955
 4853TIP3    H238755   6.298   0.620   7.399  0.0898 -0.1113 -0.5627
 4854TIP3   OH238756   7.586   2.017   8.451 -0.5588  0.1777 -0.5424
 4854TIP3    H138757   7.607   2.097   8.500 -0.4123  0.3602 -0.9019
 4854TIP3    H238758   7.653   2.012   8.383 -1.0046  0.1373 -0.9780
 4855TIP3   OH238759   6.288   0.474   9.269  0.5312  0.0836 -0.0660
 4855TIP3    H138760   6.272   0.384   9.244 -2.8173  0.2607  0.8644
 4855TIP3    H238761   6.203   0.517   9.259  0.9715  2.1232  3.2958
 4856TIP3   OH238762   2.984   5.546   7.732  0.4479 -0.4919  0.0858
 4856TIP3    H138763   2.974   5.506   7.646  0.0891 -0.8735  0.3042
 4856TIP3    H238764   2.895   5.569   7.759  0.5846 -0.1290  0.2427
 4857TIP3   OH238765   0.103   6.763   8.675 -0.8956  0.2581 -0.6018
 4857TIP3    H138766   0.040   6.695   8.652 -1.6049  0.8093 -0.2997
 4857TIP3    H238767   0.128   6.802   8.591 -0.7083 -0.1722 -0.7492
 4858TIP3   OH238768   6.629   5.868   7.628 -0.5599 -0.4047  0.1488
 4858TIP3    H138769   6.607   5.856   7.536  0.6034 -0.6938 -0.1091
 4858TIP3    H238770   6.619   5.963   7.642  1.4534  0.0262 -0.9104
 4859TIP3   OH238771   0.767   6.360   7.861 -0.5601 -0.2937 -0.5872
 4859TIP3    H138772   0.791   6.268   7.849 -1.1211 -0.9505  2.5371
 4859TIP3    H238773   0.674   6.357   7.885 -0.4395  1.0252  0.1049
 4860TIP3   OH238774   0.808   6.089   7.149  0.2998  0.9529  0.3314
 4860TIP3    H138775   0.744   6.037   7.198  0.3201  0.9145  0.3180
 4860TIP3    H238776   0.867   6.023   7.112  1.7014  1.0739  2.2096
 4861TIP3   OH238777   3.826   2.011   8.736 -0.4405 -0.3556 -0.1470
 4861TIP3    H138778   3.858   1.979   8.820 -2.7272  0.0179  0.9487
 4861TIP3    H238779   3.857   2.102   8.732  0.3550 -0.6212 -0.0958
 4862TIP3   OH238780   3.601   3.962   9.003  0.1781 -0.3843 -0.2033
 4862TIP3    H138781   3.588   3.890   9.065  0.2732  0.2784  0.6045
 4862TIP3    H238782   3.609   3.919   8.918 -3.5159 -1.1255 -0.3375
 4863TIP3   OH238783   1.874   5.780   8.090  0.8671 -0.3507 -0.1547
 4863TIP3    H138784   1.841   5.868   8.073  1.5637 -0.3485 -1.6638
 4863TIP3    H238785   1.830   5.725   8.025 -0.1865 -1.2988  1.2867
 4864TIP3   OH238786   4.868   0.558   8.172  0.2741 -0.7664 -0.4125
 4864TIP3    H138787   4.800   0.563   8.239  0.1677 -0.1738 -0.5624
 4864TIP3    H238788   4.935   0.503   8.211  0.4321 -0.0412  0.3773
 4865TIP3   OH238789   6.419   7.565   8.479  0.3737  0.0850  0.5497
 4865TIP3    H138790   6.433   7.644   8.530  0.4128 -0.0926  0.8157
 4865TIP3    H238791   6.411   7.595   8.389  1.7666  0.2633  0.4690
 4866TIP3   OH238792   2.112   2.240   9.554 -0.3485  0.1887  0.0021
 4866TIP3    H138793   2.168   2.306   9.595 -0.9469  0.6722  0.0530
 4866TIP3    H238794   2.157   2.218   9.472  0.6210 -0.4467  0.6817
 4867TIP3   OH238795   7.209   4.868   8.526  0.1801  0.0742 -0.2643
 4867TIP3    H138796   7.198   4.810   8.601  2.3125 -1.5341 -1.0994
 4867TIP3    H238797   7.277   4.929   8.553  1.0033 -0.5519 -0.8735
 4868TIP3   OH238798   0.126   5.638   6.797  0.0642  0.3618  0.3547
 4868TIP3    H138799   0.058   5.704   6.781  0.7491  0.9355 -0.2248
 4868TIP3    H238800   0.153   5.611   6.709 -1.7374 -2.3302  0.4987
 4869TIP3   OH238801   7.166   5.085   7.017  0.8657 -0.9121 -0.2410
 4869TIP3    H138802   7.191   5.020   7.084  0.8653 -2.1829 -1.4313
 4869TIP3    H238803   7.111   5.036   6.956  1.4774  0.0252 -1.5733
 4870TIP3   OH238804   1.706   5.632   8.700  0.0425 -0.6290  0.3281
 4870TIP3    H138805   1.691   5.554   8.754 -1.0410  0.0659  1.0585
 4870TIP3    H238806   1.704   5.599   8.611 -0.4918 -1.4309  0.6216
 4871TIP3   OH238807   4.525   5.749   7.327 -0.1973 -0.8562  0.4152
 4871TIP3    H138808   4.602   5.701   7.295 -0.2006 -0.6070  0.0335
 4871TIP3    H238809   4.561   5.828   7.367 -0.3236 -0.2090 -0.7336
 4872TIP3   OH238810   2.299   1.299   9.194  0.4160  0.3521  0.5854
 4872TIP3    H138811   2.233   1.362   9.225 -0.2004 -0.3960  0.8111
 4872TIP3    H238812   2.372   1.309   9.255 -0.0851  0.1421  1.2339
 4873TIP3   OH238813   0.378   4.279   8.959 -0.1643  0.5161  0.3772
 4873TIP3    H138814   0.298   4.330   8.947  0.0068  0.5716 -0.6039
 4873TIP3    H238815   0.352   4.206   9.015 -1.0163  0.2874 -0.2927
 4874TIP3   OH238816   6.163   1.090   8.085  0.1483  0.3688 -0.1593
 4874TIP3    H138817   6.080   1.107   8.042  0.4891  0.9311 -0.6064
 4874TIP3    H238818   6.168   0.994   8.092  0.2462  0.2419 -1.6888
 4875TIP3   OH238819   3.444   4.326   8.309 -0.1883 -0.4978 -0.3752
 4875TIP3    H138820   3.428   4.420   8.304  0.3429 -0.3856 -0.0609
 4875TIP3    H238821   3.371   4.286   8.262 -2.0539 -0.0598  1.9504
 4876TIP3   OH238822   0.539   5.375   6.993  0.3800  0.3383 -0.5138
 4876TIP3    H138823   0.567   5.331   6.913 -2.4215  0.9978 -1.9705
 4876TIP3    H238824   0.482   5.445   6.963 -0.6746  0.6797  2.0788
 4877TIP3   OH238825   6.594   3.474   6.594  0.7275  0.3523 -0.1208
 4877TIP3    H138826   6.586   3.568   6.608 -2.0816 -0.1011  2.2741
 4877TIP3    H238827   6.618   3.439   6.680  0.3344 -1.2427 -0.6300
 4878TIP3   OH238828   4.035   0.447   6.586 -0.0295  0.2503 -0.2740
 4878TIP3    H138829   3.987   0.417   6.662  0.8769  0.1385  0.2692
 4878TIP3    H238830   3.970   0.493   6.533 -0.4736  1.1468  1.0070
 4879TIP3   OH238831   6.044   3.072   8.236 -0.1761 -0.4163  0.0076
 4879TIP3    H138832   5.950   3.087   8.225 -0.2653  0.6961  1.9448
 4879TIP3    H238833   6.085   3.144   8.187 -0.3471 -0.4522 -0.1911
 4880TIP3   OH238834   0.593   0.377   9.197 -0.1095  0.2596 -0.0591
 4880TIP3    H138835   0.618   0.285   9.197 -1.3243 -0.1071 -1.5027
 4880TIP3    H238836   0.675   0.424   9.179  0.2897 -0.6111 -0.5484
 4881TIP3   OH238837   2.188   3.653   7.480 -0.5086 -0.0579  0.2745
 4881TIP3    H138838   2.226   3.620   7.562 -0.9827  0.3006  0.6424
 4881TIP3    H238839   2.263   3.684   7.430 -0.1975 -0.4371  0.4996
 4882TIP3   OH238840   3.389   6.403   8.562 -0.1526  0.2393  0.4550
 4882TIP3    H138841   3.401   6.405   8.657 -2.5100  1.0314  0.8146
 4882TIP3    H238842   3.305   6.447   8.548 -1.3147 -2.4099 -1.7406
 4883TIP3   OH238843   6.995   4.944   7.611  0.0667 -0.5034  0.3178
 4883TIP3    H138844   6.987   4.937   7.516 -1.5938 -2.0539  0.5132
 4883TIP3    H238845   6.916   4.992   7.638  0.3351 -0.4000  0.9406
 4884TIP3   OH238846   3.770   1.037   8.816  0.2889 -0.0595 -0.7913
 4884TIP3    H138847   3.801   1.126   8.832 -0.0992 -0.4371  2.8062
 4884TIP3    H238848   3.841   0.981   8.846 -0.5430 -0.9408 -0.4172
 4885TIP3   OH238849   2.099   5.185   8.605  0.0658  0.8167 -0.3149
 4885TIP3    H138850   2.018   5.185   8.555  1.5326 -0.2439 -2.8829
 4885TIP3    H238851   2.141   5.268   8.583  1.1909 -0.0896 -1.8037
 4886TIP3   OH238852   2.820   0.509   7.279  0.6696  0.2786 -0.3286
 4886TIP3    H138853   2.755   0.553   7.225  0.8907  1.5334  0.3918
 4886TIP3    H238854   2.904   0.533   7.239  0.9295  2.4338  1.3535
 4887TIP3   OH238855   4.613   0.907   7.214 -0.2920  0.1551 -0.5266
 4887TIP3    H138856   4.675   0.873   7.149 -0.8336  0.8969 -1.4586
 4887TIP3    H238857   4.536   0.852   7.204 -0.4755  0.4449 -0.6981
 4888TIP3   OH238858   6.711   5.914   8.753  0.4177 -0.0448 -0.4132
 4888TIP3    H138859   6.781   5.856   8.725  0.1332 -0.5961 -0.0055
 4888TIP3    H238860   6.755   5.984   8.801  0.8928  0.8425 -2.0944
 4889TIP3   OH238861   5.519   2.090   9.347 -0.2899  0.0376 -0.3305
 4889TIP3    H138862   5.507   2.157   9.279 -0.1552 -0.5660 -0.9574
 4889TIP3    H238863   5.596   2.120   9.396 -0.2577  0.3671 -0.5764
 4890TIP3   OH238864   7.101   1.042   8.781 -0.6086 -0.1263 -0.8654
 4890TIP3    H138865   7.025   1.018   8.727 -0.6024 -0.0507 -0.9073
 4890TIP3    H238866   7.159   0.966   8.776  0.1099  0.4881 -2.2323
 4891TIP3   OH238867   2.560   0.397   6.658 -0.3196 -0.3304  0.0773
 4891TIP3    H138868   2.510   0.405   6.577  1.6815  1.3873 -1.0746
 4891TIP3    H238869   2.559   0.484   6.696 -1.0045 -1.0598  1.8075
 4892TIP3   OH238870   2.300   3.830   8.364 -0.1793 -0.4429  0.1625
 4892TIP3    H138871   2.288   3.884   8.443 -2.5482  0.2329 -0.5586
 4892TIP3    H238872   2.262   3.745   8.388  1.8932 -1.2622  0.6993
 4893TIP3   OH238873   5.047   6.053   7.492  0.2673 -0.0594  0.1216
 4893TIP3    H138874   5.038   5.964   7.459  0.0042  0.3141 -0.8610
 4893TIP3    H238875   4.987   6.105   7.438  1.3515  0.9283 -0.1773
 4894TIP3   OH238876   0.869   1.661   9.556 -0.4230 -0.3102  0.2957
 4894TIP3    H138877   0.800   1.687   9.495  1.1457  0.3885 -1.2513
 4894TIP3    H238878   0.876   1.735   9.617 -0.0642  0.2490 -0.4197
 4895TIP3   OH238879   6.551   2.217   7.490 -0.0107  0.1562 -0.5002
 4895TIP3    H138880   6.564   2.234   7.397  0.7346  1.9943 -0.1021
 4895TIP3    H238881   6.596   2.289   7.534 -3.0014  1.1424  1.2248
 4896TIP3   OH238882   7.412   5.515   9.447  0.0742  0.0500 -0.2353
 4896TIP3    H138883   7.360   5.591   9.474 -0.4347 -0.5699  0.6158
 4896TIP3    H238884   7.370   5.441   9.492  1.1149 -0.6054 -0.3110
 4897TIP3   OH238885   2.659   5.770   7.223  0.4379 -0.4781 -0.0393
 4897TIP3    H138886   2.605   5.847   7.244 -0.4747 -0.8832 -0.8090
 4897TIP3    H238887   2.662   5.720   7.304 -0.4127 -0.4833  0.0006
 4898TIP3   OH238888   0.887   4.619   8.057 -0.1669 -0.1360 -0.2499
 4898TIP3    H138889   0.800   4.597   8.091 -0.5502  1.0924 -0.3862
 4898TIP3    H238890   0.870   4.663   7.974  0.6516 -0.8543 -0.8144
 4899TIP3   OH238891   2.257   3.057   7.599 -0.0797  0.2631 -0.1036
 4899TIP3    H138892   2.283   2.979   7.646  2.1560  1.1465  0.2289
 4899TIP3    H238893   2.290   3.130   7.651 -0.3542  1.3819 -1.4074
 4900TIP3   OH238894   0.478   0.594   9.067  0.3053 -0.2029  0.0551
 4900TIP3    H138895   0.502   0.525   9.129  2.5614  0.1211 -0.3779
 4900TIP3    H238896   0.559   0.612   9.019 -0.0589  3.1050  0.4666
 4901TIP3   OH238897   6.751   6.049   9.219 -0.0772 -0.2104  0.3290
 4901TIP3    H138898   6.687   6.099   9.169 -1.1906 -2.2087 -0.3692
 4901TIP3    H238899   6.833   6.099   9.210 -1.1964  1.6676  0.0864
 4902TIP3   OH238900   3.892   3.066   9.020  0.4648 -0.2038 -0.3366
 4902TIP3    H138901   3.924   2.990   9.070  1.6215  0.5112  0.0372
 4902TIP3    H238902   3.797   3.065   9.034  0.5299 -1.2660  0.1094
 4903TIP3   OH238903   6.394   3.587   8.279 -0.6188  0.5336  0.2783
 4903TIP3    H138904   6.489   3.583   8.293 -0.6016  0.2088  0.0789
 4903TIP3    H238905   6.384   3.643   8.202 -0.6084  0.8327  0.4931
 4904TIP3   OH238906   1.702   5.225   7.778 -0.0286  0.2721  0.2708
 4904TIP3    H138907   1.723   5.209   7.870 -2.0394 -0.8569  0.5853
 4904TIP3    H238908   1.750   5.305   7.756  3.9920 -1.6798  1.0314
 4905TIP3   OH238909   4.267   6.921   8.314  0.3080  0.0055 -0.6045
 4905TIP3    H138910   4.216   6.844   8.339  0.3224  0.6114  1.5265
 4905TIP3    H238911   4.355   6.888   8.300  0.0865 -0.5228 -0.7758
 4906TIP3   OH238912   6.638   2.409   8.878  0.0935  0.0566 -0.5885
 4906TIP3    H138913   6.699   2.359   8.824 -0.5436 -0.8658 -0.4899
 4906TIP3    H238914   6.578   2.342   8.914 -0.1662  0.7792  0.3608
 4907TIP3   OH238915   7.678   0.577   8.854 -0.1860 -0.3637 -0.6281
 4907TIP3    H138916   7.715   0.491   8.873  1.3616  0.6663  1.4017
 4907TIP3    H238917   7.612   0.590   8.921  1.0553  0.8321  0.4278
 4908TIP3   OH238918   4.090   0.676   9.010  0.4042 -0.1690 -0.2123
 4908TIP3    H138919   4.111   0.630   9.091 -1.7864  1.8398  1.6259
 4908TIP3    H238920   4.167   0.729   8.991  0.2878  0.7735  1.6963
 4909TIP3   OH238921   6.383   4.755   8.911  0.3812 -0.8145  0.5405
 4909TIP3    H138922   6.393   4.765   8.817 -0.1038  1.4759  0.6650
 4909TIP3    H238923   6.468   4.781   8.947  0.8722 -2.5796  0.7342
 4910TIP3   OH238924   6.559   4.694   9.296 -0.2537  0.2805 -0.0443
 4910TIP3    H138925   6.506   4.774   9.296 -1.0252 -0.1907 -1.4808
 4910TIP3    H238926   6.649   4.725   9.310 -0.7050  1.2503  0.8591
 4911TIP3   OH238927   5.626   0.192   8.574 -0.3900  0.0805 -0.6087
 4911TIP3    H138928   5.532   0.206   8.584 -0.5488 -1.3827  0.4485
 4911TIP3    H238929   5.663   0.217   8.659  0.4371  2.2057 -1.5301
 4912TIP3   OH238930   6.665   3.503   8.296 -0.1851 -0.2459  0.4344
 4912TIP3    H138931   6.616   3.421   8.284 -0.4629  0.0499 -0.5481
 4912TIP3    H238932   6.750   3.475   8.330 -0.6041 -0.8656  1.0034
 4913TIP3   OH238933   4.762   0.052   8.631 -0.3972  0.4537 -0.1126
 4913TIP3    H138934   4.801   0.021   8.549 -0.9532  0.6298 -0.4491
 4913TIP3    H238935   4.782   0.146   8.633 -1.7120  0.7834 -0.8354
 4914TIP3   OH238936   3.153   2.765   8.789 -0.0338  0.2771  0.4322
 4914TIP3    H138937   3.081   2.702   8.777  0.8770 -0.5834 -0.7773
 4914TIP3    H238938   3.224   2.730   8.736  0.5776  2.2544 -0.1281
 4915TIP3   OH238939   4.266   2.204   9.056 -0.0634  0.1658 -0.5609
 4915TIP3    H138940   4.347   2.208   9.107  0.4093 -0.3563 -1.2514
 4915TIP3    H238941   4.218   2.130   9.094  0.9398 -1.1657 -1.7641
 4916TIP3   OH238942   2.621   0.817   9.442 -0.6478  0.2852 -0.6877
 4916TIP3    H138943   2.592   0.747   9.501 -0.2599  0.4137 -0.3422
 4916TIP3    H238944   2.710   0.794   9.418 -1.0548 -0.1776 -1.8600
 4917TIP3   OH238945   1.549   1.618   8.488 -0.5627 -0.1785  0.2352
 4917TIP3    H138946   1.520   1.527   8.479 -0.9511 -0.0759  0.4138
 4917TIP3    H238947   1.505   1.649   8.567  0.7467 -0.2878  1.0147
 4918TIP3   OH238948   6.208   1.211   8.409 -0.0095 -0.1594 -0.3446
 4918TIP3    H138949   6.280   1.174   8.358 -0.1274  0.0767 -0.6865
 4918TIP3    H238950   6.130   1.198   8.355 -0.2046 -0.2899 -0.0382
 4919TIP3   OH238951   4.213   5.610   8.382  0.0733 -0.2306 -0.6957
 4919TIP3    H138952   4.164   5.598   8.301 -0.2610  0.3464 -0.5820
 4919TIP3    H238953   4.189   5.698   8.412  1.5588  0.2564 -0.8964
 4920TIP3   OH238954   3.442   6.762   8.923  0.1853 -0.4701  0.2385
 4920TIP3    H138955   3.472   6.693   8.982 -1.5072 -1.1801  0.3473
 4920TIP3    H238956   3.355   6.785   8.955 -0.4132 -0.2386 -1.4208
 4921TIP3   OH238957   5.250   5.687   7.650 -0.8442  0.0247 -0.0413
 4921TIP3    H138958   5.341   5.659   7.651 -0.7432  0.3353  1.0864
 4921TIP3    H238959   5.201   5.611   7.617 -0.1760 -0.0956 -0.7809
 4922TIP3   OH238960   3.120   5.195   7.516 -0.3145  0.1175 -0.4013
 4922TIP3    H138961   3.134   5.101   7.504 -3.7157 -0.5085 -0.3979
 4922TIP3    H238962   3.136   5.233   7.430  0.5618 -0.5358 -0.5340
 4923TIP3   OH238963   7.491   2.192   8.720 -0.3206  0.0439 -0.5418
 4923TIP3    H138964   7.585   2.183   8.703 -0.7502 -1.7157 -2.4414
 4923TIP3    H238965   7.465   2.107   8.756 -1.3468  0.1214 -1.0660
 4924TIP3   OH238966   3.290   6.082   8.537 -0.0558 -0.2513 -0.1065
 4924TIP3    H138967   3.320   6.173   8.541 -0.3639 -0.1741  3.2998
 4924TIP3    H238968   3.370   6.032   8.517  0.4033  0.6362 -0.5743
 4925TIP3   OH238969   3.119   7.618   7.979  0.0224 -0.7736  0.1964
 4925TIP3    H138970   3.099   7.694   8.034 -0.1489  0.2682 -1.2755
 4925TIP3    H238971   3.078   7.545   8.025 -5.0433  0.8019 -1.1971
 4926TIP3   OH238972   0.368   5.835   9.082  0.9725  0.1617 -0.3275
 4926TIP3    H138973   0.425   5.912   9.076 -0.9333  1.8053  1.1573
 4926TIP3    H238974   0.300   5.851   9.017  1.0221 -0.7384 -0.6141
 4927TIP3   OH238975   3.148   1.604   9.171  0.1785 -0.0597  0.5017
 4927TIP3    H138976   3.132   1.511   9.154  1.4857 -0.2382  0.1488
 4927TIP3    H238977   3.075   1.649   9.128 -0.1405 -0.8903  0.1537
 4928TIP3   OH238978   4.804   3.286   8.368  0.0134  0.6237 -0.1048
 4928TIP3    H138979   4.808   3.285   8.273 -0.7268  1.6334 -0.1600
 4928TIP3    H238980   4.843   3.370   8.393 -1.1167  1.0192  0.3891
 4929TIP3   OH238981   6.762   0.385   9.305 -0.1523  0.5016 -0.4726
 4929TIP3    H138982   6.679   0.345   9.332 -0.7185  0.3651 -2.2972
 4929TIP3    H238983   6.755   0.476   9.335 -0.7172  0.3499 -0.1283
 4930TIP3   OH238984   4.083   1.493   8.075  0.2972  0.2897  0.0689
 4930TIP3    H138985   4.066   1.407   8.036 -0.8734 -0.0661  1.2774
 4930TIP3    H238986   4.164   1.481   8.125 -0.7102 -0.6257  1.5664
 4931TIP3   OH238987   3.562   5.442   9.185 -0.3400 -0.1309 -0.5339
 4931TIP3    H138988   3.484   5.493   9.206 -0.7579 -0.5107 -1.1281
 4931TIP3    H238989   3.555   5.364   9.241 -0.0188  0.1626 -0.0776
 4932TIP3   OH238990   3.145   7.269   8.052  0.0409 -0.1214  0.3269
 4932TIP3    H138991   3.130   7.197   7.991 -0.7491  1.1435 -1.0263
 4932TIP3    H238992   3.210   7.324   8.010 -0.6588  0.8759  0.5062
 4933TIP3   OH238993   4.781   7.563   7.736 -0.0290  0.3519 -0.5014
 4933TIP3    H138994   4.795   7.513   7.655 -0.4738  1.3762 -1.2348
 4933TIP3    H238995   4.699   7.609   7.721 -1.0566 -0.8185  1.2767
 4934TIP3   OH238996   4.417   2.154   8.024 -0.0173 -0.0871 -0.5378
 4934TIP3    H138997   4.349   2.088   8.008 -0.0544 -0.3005  0.4675
 4934TIP3    H238998   4.417   2.167   8.119 -0.0127  1.3658 -0.7077
 4935TIP3   OH238999   6.536   2.893   8.328 -0.2549 -0.5366 -0.2355
 4935TIP3    H139000   6.593   2.936   8.392 -0.3237  0.5299 -0.8654
 4935TIP3    H239001   6.560   2.800   8.334  2.0335 -0.0634 -0.9242
 4936TIP3   OH239002   1.544   5.619   8.088  0.6394  0.1227  0.2029
 4936TIP3    H139003   1.500   5.642   8.007  1.5497 -0.8506 -0.6082
 4936TIP3    H239004   1.551   5.701   8.137  0.4878  0.8119 -0.9110
 4937TIP3   OH239005   5.698   3.907   9.164  0.3135 -0.2014 -0.6078
 4937TIP3    H139006   5.756   3.983   9.154  0.7515 -0.6326 -1.4782
 4937TIP3    H239007   5.678   3.904   9.257  1.1575  0.3568 -0.3933
 4938TIP3   OH239008   2.002   6.447   8.338  0.6303  0.5041  0.3533
 4938TIP3    H139009   2.013   6.459   8.432  0.4107  1.7827  0.2356
 4938TIP3    H239010   2.037   6.360   8.320 -1.3786 -0.7244  1.9651
 4939TIP3   OH239011   0.292   2.031   9.351  0.4438  0.0732 -0.0517
 4939TIP3    H139012   0.364   2.066   9.403  0.3478 -1.4352  1.1567
 4939TIP3    H239013   0.326   1.951   9.311 -0.5342 -0.6645  0.5406
 4940TIP3   OH239014   7.310   3.165   8.471 -0.1858  0.2452  0.4904
 4940TIP3    H139015   7.344   3.253   8.455 -1.6088  0.4720 -1.7425
 4940TIP3    H239016   7.237   3.179   8.532  0.1336  0.4868  0.8207
 4941TIP3   OH239017   6.340   7.389   8.673  0.6320 -0.5334 -0.1316
 4941TIP3    H139018   6.347   7.438   8.592  0.7761 -1.8123 -0.9120
 4941TIP3    H239019   6.291   7.447   8.732  0.6455  0.4599 -1.0769
 4942TIP3   OH239020   7.419   3.327   7.852 -0.2948 -0.5435  0.0602
 4942TIP3    H139021   7.382   3.242   7.874 -1.3394  0.0379  0.6146
 4942TIP3    H239022   7.372   3.389   7.908  0.1253  0.4540 -0.6608
 4943TIP3   OH239023   4.690   0.121   8.246 -0.2057 -0.4416  0.1387
 4943TIP3    H139024   4.646   0.206   8.246  0.7906  0.1032  1.2331
 4943TIP3    H239025   4.732   0.115   8.160  0.8750  0.8131  0.5522
 4944TIP3   OH239026   7.254   3.432   7.245  0.2862 -0.2493 -0.0648
 4944TIP3    H139027   7.270   3.501   7.310  0.4953 -0.7783  0.4531
 4944TIP3    H239028   7.160   3.413   7.254 -0.0232  0.7296 -0.9846
 4945TIP3   OH239029   1.771   1.998   8.863 -0.4655 -0.0237  0.4009
 4945TIP3    H139030   1.702   2.047   8.907  0.3755  2.0181 -0.4437
 4945TIP3    H239031   1.742   1.992   8.772  0.3260  0.6326  0.0908
 4946TIP3   OH239032   0.251   0.266   8.346 -0.0159 -0.5791  0.6052
 4946TIP3    H139033   0.208   0.189   8.309  0.2302 -1.4993  2.1621
 4946TIP3    H239034   0.245   0.254   8.441  0.5332  1.0473  0.8792
 4947TIP3   OH239035   1.703   2.466   7.004 -0.1234 -0.1952  0.2435
 4947TIP3    H139036   1.749   2.527   7.062  0.1094 -0.8323  0.7431
 4947TIP3    H239037   1.628   2.516   6.972  1.3293  1.1532 -1.2777
 4948TIP3   OH239038   0.527   3.925   7.370 -0.3813  0.3375 -0.1532
 4948TIP3    H139039   0.444   3.956   7.406 -1.1166 -0.9086 -0.7198
 4948TIP3    H239040   0.584   3.913   7.447 -0.0714  2.8930  0.1077
 4949TIP3   OH239041   2.535   2.013   8.942  0.0712  0.4766 -0.1565
 4949TIP3    H139042   2.520   1.934   8.890 -2.4940 -0.7507  2.2262
 4949TIP3    H239043   2.458   2.067   8.927 -0.6443  0.1725  2.1163
 4950TIP3   OH239044   2.899   6.060   8.573  0.1367  0.0542 -0.0770
 4950TIP3    H139045   2.813   6.079   8.535 -0.1358 -0.3630  0.3185
 4950TIP3    H239046   2.928   6.144   8.610 -0.3026  0.0981  0.1768
 4951TIP3   OH239047   5.742   1.833   8.132  0.3135  0.3278 -0.4719
 4951TIP3    H139048   5.714   1.790   8.051  2.2099  0.6616 -1.3424
 4951TIP3    H239049   5.821   1.786   8.158  0.1216  0.6886  0.8188
 4952TIP3   OH239050   6.000   3.316   8.801  0.5772  0.0611 -0.2655
 4952TIP3    H139051   5.971   3.238   8.755 -0.5523  0.3847 -0.1243
 4952TIP3    H239052   6.026   3.286   8.887 -0.8896 -0.0305  0.1700
 4953TIP3   OH239053   5.143   3.790   8.338  0.2385 -0.0826  0.0102
 4953TIP3    H139054   5.180   3.712   8.296 -2.6194 -1.4024 -0.3117
 4953TIP3    H239055   5.090   3.831   8.270  1.0194  1.7013  0.4397
 4954TIP3   OH239056   5.304   2.213   8.321 -0.0037 -0.1419  0.0586
 4954TIP3    H139057   5.301   2.294   8.372 -1.9033 -0.5119  0.6374
 4954TIP3    H239058   5.379   2.165   8.356  0.0591  0.6011  0.9801
 4955TIP3   OH239059   3.059   0.905   7.389 -0.0634  0.1582  0.5949
 4955TIP3    H139060   3.052   0.893   7.294  1.6349 -0.7538  0.5563
 4955TIP3    H239061   3.015   0.828   7.426 -0.3250  0.2842  0.5500
 4956TIP3   OH239062   6.704   3.967   9.128 -0.1243  0.0073  0.2467
 4956TIP3    H139063   6.724   3.877   9.102  0.3576  0.4919 -1.1741
 4956TIP3    H239064   6.785   4.015   9.110 -1.1276  1.1778 -1.3946
 4957TIP3   OH239065   0.522   1.781   7.131  0.0662 -0.3493 -0.2359
 4957TIP3    H139066   0.573   1.702   7.116  1.5752  0.7520 -1.2208
 4957TIP3    H239067   0.521   1.791   7.227  3.1527  0.4090 -0.1734
 4958TIP3   OH239068   4.811   5.250   8.071  0.2484  0.4049 -0.2297
 4958TIP3    H139069   4.735   5.199   8.099  0.3933  0.2330 -0.1512
 4958TIP3    H239070   4.775   5.316   8.012 -0.2814  1.7117  1.4642
 4959TIP3   OH239071   1.110   3.393   8.459  0.1807  0.6211  0.2392
 4959TIP3    H139072   1.178   3.336   8.423  1.2777  1.1279  1.4159
 4959TIP3    H239073   1.145   3.419   8.545 -1.1072  1.6171  0.4750
 4960TIP3   OH239074   7.671   5.720   9.134  0.1094 -0.6167 -0.0979
 4960TIP3    H139075   7.627   5.755   9.057  0.6108 -0.0539 -0.1349
 4960TIP3    H239076   7.600   5.695   9.193 -0.2646  0.3405 -0.1253
 4961TIP3   OH239077   4.872   6.743   8.149  0.2594 -0.1878 -0.2911
 4961TIP3    H139078   4.960   6.780   8.143  0.6854 -1.2567 -0.8535
 4961TIP3    H239079   4.882   6.652   8.122 -1.1777 -0.0911 -1.2516
 4962TIP3   OH239080   0.637   4.764   8.043  0.0120  0.0413 -0.3997
 4962TIP3    H139081   0.588   4.777   8.124 -0.3780  0.0518 -0.6333
 4962TIP3    H239082   0.658   4.853   8.014  1.2572 -0.0005  0.3505
 4963TIP3   OH239083   0.580   5.577   8.639  0.5954  0.7414 -0.1081
 4963TIP3    H139084   0.643   5.614   8.576  1.6811  0.2729  0.6720
 4963TIP3    H239085   0.618   5.493   8.664 -0.1609  0.6256  0.6811
 4964TIP3   OH239086   1.375   1.164   8.453 -0.2741  0.1001 -0.7287
 4964TIP3    H139087   1.309   1.233   8.460 -1.0939 -0.6803 -0.5132
 4964TIP3    H239088   1.337   1.102   8.391 -1.2148 -1.9265  1.7229
 4965TIP3   OH239089   2.860   4.498   7.734  0.0672  0.8216 -0.1326
 4965TIP3    H139090   2.906   4.458   7.659 -0.5875 -0.2122  0.0036
 4965TIP3    H239091   2.931   4.524   7.793  0.5150 -0.3042 -0.1498
 4966TIP3   OH239092   6.984   2.287   6.345  0.1510  0.0453 -0.0478
 4966TIP3    H139093   7.012   2.379   6.342 -2.4651  0.9573  0.8938
 4966TIP3    H239094   6.893   2.290   6.373 -0.5805 -2.7617 -1.6738
 4967TIP3   OH239095   6.765   4.746   9.048  0.6389 -0.1506 -0.2897
 4967TIP3    H139096   6.728   4.755   9.136 -0.2273 -1.2167 -0.5323
 4967TIP3    H239097   6.710   4.800   8.992  0.9595  0.2217 -0.2549
 4968TIP3   OH239098   2.931   0.300   8.078 -0.1071 -0.3716  0.4596
 4968TIP3    H139099   2.960   0.213   8.108  1.2982 -0.3942 -0.8046
 4968TIP3    H239100   2.977   0.361   8.135  0.9134 -0.4483 -0.2448
 4969TIP3   OH239101   4.265   5.343   9.408  1.0015  0.3191  0.5317
 4969TIP3    H139102   4.309   5.258   9.414  1.1066  0.3469  0.1638
 4969TIP3    H239103   4.315   5.400   9.466  1.6999  0.4554 -0.1955
 4970TIP3   OH239104   0.269   7.522   9.082 -0.3358  0.1172  0.0869
 4970TIP3    H139105   0.246   7.487   9.167  0.7996 -1.7739 -0.3251
 4970TIP3    H239106   0.230   7.461   9.019  0.8575  0.0835 -0.6720
 4971TIP3   OH239107   5.463   1.779   8.401 -0.3387 -0.3118  0.0282
 4971TIP3    H139108   5.554   1.766   8.430 -0.0902 -1.4642 -1.1312
 4971TIP3    H239109   5.454   1.873   8.390  0.6878 -0.1699  0.2866
 4972TIP3   OH239110   5.208   3.827   6.843  0.4182  0.1694 -0.0720
 4972TIP3    H139111   5.180   3.772   6.917  1.5138  1.0762  1.0574
 4972TIP3    H239112   5.286   3.784   6.809  2.0802  1.6471  1.6702
 4973TIP3   OH239113   0.886   4.590   9.235 -0.1779  0.0850  0.2292
 4973TIP3    H139114   0.835   4.660   9.276 -0.9645 -0.1649 -0.3009
 4973TIP3    H239115   0.842   4.509   9.260 -0.1411 -0.1237 -0.3622
 4974TIP3   OH239116   4.501   5.338   7.692 -0.2524  0.6865  0.3400
 4974TIP3    H139117   4.465   5.258   7.731  1.4958 -0.6924 -0.7110
 4974TIP3    H239118   4.539   5.386   7.767 -0.5981  0.1298  0.8804
 4975TIP3   OH239119   2.278   1.706   9.095 -0.0586  0.9268 -0.1142
 4975TIP3    H139120   2.351   1.673   9.043 -1.3996  0.6240 -1.9144
 4975TIP3    H239121   2.301   1.797   9.113  0.6868  0.8963 -0.8220
 4976TIP3   OH239122   3.264   6.915   9.219 -0.1352 -0.0184  0.3028
 4976TIP3    H139123   3.233   6.850   9.157  1.1766 -0.2295 -0.1492
 4976TIP3    H239124   3.193   6.923   9.283 -0.6548 -1.2804 -0.0906
 4977TIP3   OH239125   7.317   2.748   9.024 -0.0786  0.1605 -0.3134
 4977TIP3    H139126   7.395   2.704   9.055 -0.2790 -0.5779 -0.8324
 4977TIP3    H239127   7.337   2.773   8.933 -0.6443 -0.5559 -0.6480
 4978TIP3   OH239128   6.699   2.443   9.172 -0.4162  0.4625  0.5209
 4978TIP3    H139129   6.794   2.450   9.176 -0.2871 -1.2020  1.3232
 4978TIP3    H239130   6.677   2.461   9.081  0.8985 -1.3046 -0.1926
 4979TIP3   OH239131   6.289   1.082   7.643  0.3975 -0.1268 -0.5395
 4979TIP3    H139132   6.246   1.158   7.604 -1.1919 -0.6179  0.1466
 4979TIP3    H239133   6.265   1.008   7.587 -1.1136 -0.6777  0.7372
 4980TIP3   OH239134   4.928   1.537   9.068 -0.3003 -0.1708 -0.4995
 4980TIP3    H139135   4.869   1.467   9.039  0.7685 -0.7002 -1.5167
 4980TIP3    H239136   4.956   1.578   8.986  2.9133 -1.7644 -0.3567
 4981TIP3   OH239137   6.735   7.314   8.328 -0.1704 -0.7353 -0.1060
 4981TIP3    H139138   6.791   7.239   8.347  1.9919  0.4132 -1.5942
 4981TIP3    H239139   6.760   7.342   8.240 -2.9468  0.0192 -0.7721
 4982TIP3   OH239140   6.883   2.602   9.444  0.2978  0.3417 -0.1990
 4982TIP3    H139141   6.801   2.579   9.487  0.0823 -0.3790 -0.9619
 4982TIP3    H239142   6.880   2.697   9.436 -0.0633  0.3973  0.5552
 4983TIP3   OH239143   1.332   0.796   7.042 -0.2455  0.0122 -0.3299
 4983TIP3    H139144   1.425   0.800   7.020 -0.0014  0.3253  0.7057
 4983TIP3    H239145   1.320   0.708   7.080 -0.7285 -0.6456 -1.9155
 4984TIP3   OH239146   2.566   1.283   9.436 -0.4050 -0.2728 -0.3973
 4984TIP3    H139147   2.561   1.321   9.523 -0.5574 -0.2672 -0.4080
 4984TIP3    H239148   2.528   1.195   9.445 -0.8299 -0.1078 -0.5500
 4985TIP3   OH239149   7.319   4.959   9.775 -0.0496  0.2165 -0.3325
 4985TIP3    H139150   7.246   5.007   9.735 -1.1236 -0.2973  0.9724
 4985TIP3    H239151   7.305   4.967   9.869  2.3213  1.2249  0.0065
 4986TIP3   OH239152   7.507   0.969   8.180  0.2150 -0.0083 -0.1662
 4986TIP3    H139153   7.450   1.031   8.135  0.0330  0.2950  0.4728
 4986TIP3    H239154   7.509   0.892   8.122 -0.2678  0.2486 -0.5333
 4987TIP3   OH239155   0.051   2.752   8.519 -0.0799 -0.1054  0.2561
 4987TIP3    H139156   0.097   2.724   8.598 -1.2712 -1.4083  0.5254
 4987TIP3    H239157   0.118   2.796   8.467  0.6569  1.1469  2.1317
 4988TIP3   OH239158   0.590   5.269   8.359  0.1391 -0.0223  0.2925
 4988TIP3    H139159   0.544   5.252   8.276  0.9770 -0.4114 -0.1060
 4988TIP3    H239160   0.521   5.263   8.425 -0.6789  1.0341 -0.4358
 4989TIP3   OH239161   3.378   7.078   7.549  0.7716 -0.8636 -0.1459
 4989TIP3    H139162   3.451   7.111   7.496 -0.7668 -0.4375 -2.1103
 4989TIP3    H239163   3.347   7.001   7.503 -0.6333 -0.4797  0.1045
 4990TIP3   OH239164   5.768   6.273   8.225  0.2226 -0.3669  0.2685
 4990TIP3    H139165   5.764   6.230   8.140 -0.5598 -0.7088  0.4701
 4990TIP3    H239166   5.738   6.363   8.208  1.0427 -0.1349  0.0056
 4991TIP3   OH239167   3.558   2.052   7.398 -0.2485  0.6767  0.1230
 4991TIP3    H139168   3.639   2.042   7.347  0.4145 -1.0389  1.4401
 4991TIP3    H239169   3.586   2.101   7.476 -0.4989  0.1494  0.5427
 4992TIP3   OH239170   5.026   2.969   6.907 -0.1667 -0.0120  0.6279
 4992TIP3    H139171   4.973   3.000   6.980 -0.8378 -0.3115  0.2696
 4992TIP3    H239172   5.003   2.877   6.898 -0.2914  0.0914 -0.1391
 4993TIP3   OH239173   3.408   1.169   8.566  0.0424  0.0738  0.0563
 4993TIP3    H139174   3.426   1.136   8.653  0.2264  1.2724  0.4955
 4993TIP3    H239175   3.485   1.146   8.515 -1.4075 -3.6391 -0.7695
 4994TIP3   OH239176   7.463   5.966   8.707 -0.2916 -0.1503 -0.6279
 4994TIP3    H139177   7.471   6.053   8.748 -0.0260  0.2762 -1.5691
 4994TIP3    H239178   7.429   5.984   8.619 -0.9343 -1.0652 -0.5810
 4995TIP3   OH239179   2.715   3.073   8.439  0.3268  0.4804  0.1368
 4995TIP3    H139180   2.702   3.125   8.360  0.6241  0.9908  0.4187
 4995TIP3    H239181   2.783   3.119   8.488 -1.2012  1.3079  1.6270
 4996TIP3   OH239182   1.012   4.457   9.007  0.3602  0.0500 -0.0756
 4996TIP3    H139183   1.009   4.508   8.927 -0.4173 -0.0319 -0.1027
 4996TIP3    H239184   1.005   4.521   9.078  1.4459  0.1609 -0.0479
 4997TIP3   OH239185   2.429   5.292   8.689  0.2994  0.5049 -0.3089
 4997TIP3    H139186   2.359   5.316   8.628 -0.0877  0.5591  0.1569
 4997TIP3    H239187   2.500   5.263   8.632 -0.9378 -1.9035 -0.7626
 4998TIP3   OH239188   3.432   0.771   7.664  0.6666  0.1143 -0.3378
 4998TIP3    H139189   3.512   0.784   7.715 -0.0778  0.8527  0.6577
 4998TIP3    H239190   3.419   0.853   7.617 -0.3821  0.6065  0.7693
 4999TIP3   OH239191   1.669   0.574   7.583  0.1764 -0.4519  0.5006
 4999TIP3    H139192   1.615   0.640   7.628  1.2253  1.0205 -0.3312
 4999TIP3    H239193   1.737   0.624   7.539  0.7262 -2.0683 -0.5897
 5000TIP3   OH239194   1.409   3.446   8.051 -0.7523  0.2632 -0.1235
 5000TIP3    H139195   1.481   3.476   7.996 -0.9905  0.0919 -0.5345
 5000TIP3    H239196   1.428   3.483   8.137  0.1315 -0.2598 -0.0811
 5001TIP3   OH239197   3.577   2.989   8.081  0.0741  0.3851  0.6181
 5001TIP3    H139198   3.669   3.012   8.093 -0.2446  1.7873  0.4432
 5001TIP3    H239199   3.528   3.062   8.118 -0.9612  0.5303 -0.9408
 5002TIP3   OH239200   0.753   2.687   8.858 -0.0867  0.5431  0.3123
 5002TIP3    H139201   0.845   2.700   8.880 -0.1294  0.1682  0.7290
 5002TIP3    H239202   0.705   2.722   8.934 -0.2795  0.4680  0.2266
 5003TIP3   OH239203   6.836   0.411   7.271  0.2522 -0.0741 -0.2777
 5003TIP3    H139204   6.866   0.477   7.334 -3.4419 -0.7282  2.5015
 5003TIP3    H239205   6.895   0.337   7.284  0.9970  0.6624  0.6985
 5004TIP3   OH239206   7.352   2.857   8.760 -0.0609  0.2988 -0.1532
 5004TIP3    H139207   7.390   2.792   8.700  0.0644 -0.3043  0.5535
 5004TIP3    H239208   7.424   2.917   8.780  0.5107 -0.7206  1.0166
 5005TIP3   OH239209   2.001   7.378   7.741  0.0941  0.7967 -0.1324
 5005TIP3    H139210   2.069   7.355   7.804  0.0873 -0.6783 -0.6191
 5005TIP3    H239211   1.928   7.409   7.795  0.6001  0.9076  0.4910
 5006TIP3   OH239212   4.630   2.374   8.921 -0.1076  0.0055 -0.2362
 5006TIP3    H139213   4.597   2.372   9.010 -1.8047  0.0526 -0.8329
 5006TIP3    H239214   4.578   2.442   8.878  1.2095  0.5222 -1.0751
 5007TIP3   OH239215   1.367   2.288   8.873  0.2974 -0.0494 -0.1867
 5007TIP3    H139216   1.307   2.214   8.861  0.4953 -0.1086 -0.8727
 5007TIP3    H239217   1.360   2.338   8.792 -0.0517  0.8577  0.3891
 5008TIP3   OH239218   3.604   6.633   9.180 -0.1117 -0.6607 -0.2436
 5008TIP3    H139219   3.631   6.625   9.271 -1.1408 -0.6247  0.0851
 5008TIP3    H239220   3.645   6.713   9.149  0.7742 -1.0149 -0.0114
 5009TIP3   OH239221   6.333   2.888   9.251  0.1068 -0.8275  0.0781
 5009TIP3    H139222   6.341   2.922   9.340  0.2001 -0.7954  0.0574
 5009TIP3    H239223   6.376   2.803   9.253  0.9593 -0.4222 -0.1660
 5010TIP3   OH239224   3.206   4.294   8.212  0.2596 -0.0493 -0.0828
 5010TIP3    H139225   3.168   4.372   8.172 -3.0434 -1.3046  0.3109
 5010TIP3    H239226   3.186   4.223   8.151  2.8708 -0.7354 -0.2586
 5011TIP3   OH239227   2.510   0.116   7.323 -0.7339 -0.2874  0.0019
 5011TIP3    H139228   2.514   0.090   7.231  0.2497 -0.1219 -0.0214
 5011TIP3    H239229   2.517   0.034   7.371 -0.8867 -0.3435 -0.0712
 5012TIP3   OH239230   5.931   2.321   9.614  0.6082 -0.0709  0.7341
 5012TIP3    H139231   5.940   2.245   9.557  0.7093  0.8174 -0.4768
 5012TIP3    H239232   5.840   2.319   9.641  0.1394  0.3140 -0.7023
 5013TIP3   OH239233   0.608   5.411   7.378  0.2032 -0.1016  0.4149
 5013TIP3    H139234   0.563   5.330   7.355  0.8879 -0.2918 -0.2969
 5013TIP3    H239235   0.562   5.479   7.328  0.2316 -0.1940  0.2604
 5014TIP3   OH239236   6.262   0.669   8.351  0.2971 -0.6156 -0.0518
 5014TIP3    H139237   6.207   0.733   8.396 -1.6676 -3.0415  1.2392
 5014TIP3    H239238   6.260   0.696   8.259 -3.5556 -0.7991 -0.1619
 5015TIP3   OH239239   4.005   2.491   8.450 -0.0138  0.0861  0.5647
 5015TIP3    H139240   3.988   2.582   8.427 -0.6786 -0.3111 -0.5939
 5015TIP3    H239241   3.919   2.454   8.470 -0.3440 -1.2387 -2.6938
 5016TIP3   OH239242   3.493   7.642   8.026 -0.5401  0.0644 -0.0875
 5016TIP3    H139243   3.426   7.687   8.078  0.9594  2.9009 -0.3897
 5016TIP3    H239244   3.576   7.670   8.065  0.5346 -1.4297 -1.2002
 5017TIP3   OH239245   2.081   4.857   9.217  0.7657 -0.5601 -0.5804
 5017TIP3    H139246   2.086   4.952   9.209  0.4781 -0.4586  0.2995
 5017TIP3    H239247   2.017   4.842   9.287  1.3698 -1.3833 -0.1837
 5018TIP3   OH239248   5.769   3.422   7.695  0.6890 -0.4399 -0.7475
 5018TIP3    H139249   5.864   3.426   7.712  1.0083 -2.9352 -1.5475
 5018TIP3    H239250   5.730   3.425   7.782  1.4131  1.1505 -0.4201
 5019TIP3   OH239251   4.839   3.961   7.716 -0.2106  0.0787  0.3436
 5019TIP3    H139252   4.909   3.919   7.766 -0.3529  0.2106  0.6573
 5019TIP3    H239253   4.758   3.934   7.759 -0.3224  0.3852  0.3330
 5020TIP3   OH239254   2.513   5.345   7.945 -0.1359  0.5987 -0.0781
 5020TIP3    H139255   2.540   5.274   8.003  0.1437  0.2556 -0.6271
 5020TIP3    H239256   2.506   5.421   8.002 -1.9093 -0.1740  0.8342
 5021TIP3   OH239257   1.338   1.636   8.137 -0.3418 -0.4659  0.5254
 5021TIP3    H139258   1.330   1.545   8.111  2.2082 -0.8570  0.9220
 5021TIP3    H239259   1.397   1.635   8.212  0.0816  1.5537  0.2735
 5022TIP3   OH239260   1.952   3.011   9.224  0.7086 -0.1305  0.4354
 5022TIP3    H139261   1.995   3.096   9.220 -1.1080  0.9023  1.4210
 5022TIP3    H239262   1.958   2.977   9.135  1.1973  1.1636 -0.0513
 5023TIP3   OH239263   1.992   6.943   8.327  0.2036  0.6564  0.3316
 5023TIP3    H139264   1.905   6.977   8.350  0.7791  1.0691  2.0080
 5023TIP3    H239265   2.041   7.020   8.299  0.2656  0.5450  0.1336
 5024TIP3   OH239266   2.101   1.588   8.714 -0.1366 -0.6443  0.1947
 5024TIP3    H139267   2.115   1.610   8.622 -1.9507 -1.4677 -0.3329
 5024TIP3    H239268   2.092   1.672   8.757  1.2284 -0.2322 -0.2605
 5025TIP3   OH239269   1.898   7.321   8.347  0.5256 -0.0430  0.8008
 5025TIP3    H139270   1.870   7.336   8.437 -1.8434 -0.1173  0.1295
 5025TIP3    H239271   1.993   7.330   8.350  0.4468  0.6111  3.1715
 5026TIP3   OH239272   2.555   6.429   9.020  0.5357 -0.8762  0.7001
 5026TIP3    H139273   2.564   6.518   8.987  0.5434 -0.7043  1.1630
 5026TIP3    H239274   2.505   6.438   9.101 -0.6607 -1.4391  0.0496
 5027TIP3   OH239275   6.655   2.964   8.562 -0.5335  0.0975 -0.5004
 5027TIP3    H139276   6.629   3.048   8.602  1.5344  0.2219  0.6806
 5027TIP3    H239277   6.628   2.898   8.626  0.1263  0.0679 -0.2487
 5028TIP3   OH239278   1.442   3.884   7.131 -0.3490  0.3585  0.1946
 5028TIP3    H139279   1.388   3.957   7.101 -0.3643  1.5100  2.7507
 5028TIP3    H239280   1.521   3.926   7.165  0.6009 -1.0269 -0.2495
 5029TIP3   OH239281   2.110   1.464   6.775 -0.0470 -0.0702  0.5272
 5029TIP3    H139282   2.104   1.518   6.696  1.0111  1.0824  1.1876
 5029TIP3    H239283   2.201   1.475   6.804 -0.3158 -0.7635  1.6920
 5030TIP3   OH239284   0.911   5.280   9.018  0.2664  0.0374 -0.2108
 5030TIP3    H139285   0.959   5.240   8.946 -1.2045 -2.7470  0.2296
 5030TIP3    H239286   0.819   5.266   8.997 -0.2086 -0.9871  2.2178
 5031TIP3   OH239287   1.078   5.560   8.606 -0.6606 -0.2481  0.1187
 5031TIP3    H139288   1.039   5.549   8.520 -1.1742  2.9024 -0.1691
 5031TIP3    H239289   1.150   5.497   8.608 -0.7608 -0.5665 -2.5442
 5032TIP3   OH239290   3.661   0.325   9.022  0.2063 -0.4094  0.5669
 5032TIP3    H139291   3.728   0.368   8.970  1.0333 -1.8223  0.4276
 5032TIP3    H239292   3.704   0.248   9.060 -0.8802 -0.4432  1.8276
 5033TIP3   OH239293   0.662   5.924   7.852  0.1259 -0.1738  0.1682
 5033TIP3    H139294   0.649   5.869   7.774  0.1428  0.8619 -0.5878
 5033TIP3    H239295   0.631   5.870   7.925  0.3865 -1.2813 -0.5149
 5034TIP3   OH239296   2.554   2.731   7.005 -0.0971 -0.4734  0.0823
 5034TIP3    H139297   2.547   2.641   7.036 -1.4391 -1.4564 -2.7446
 5034TIP3    H239298   2.463   2.760   6.995  0.1217 -0.4585 -3.1041
 5035TIP3   OH239299   6.020   0.564   9.170 -0.0151  0.0391  0.0807
 5035TIP3    H139300   6.009   0.565   9.075  2.4402  1.6177 -0.2634
 5035TIP3    H239301   5.931   0.557   9.205 -1.6605  4.8850 -2.2989
 5036TIP3   OH239302   7.007   3.448   8.916  0.7786 -0.4809 -1.0070
 5036TIP3    H139303   6.919   3.451   8.880 -0.2251  2.1150  1.3161
 5036TIP3    H239304   7.056   3.512   8.864  0.0927  1.1543  0.2622
 5037TIP3   OH239305   4.724   1.258   8.417  0.0725 -0.3107  0.0064
 5037TIP3    H139306   4.673   1.178   8.425 -0.1623 -0.0632  1.0332
 5037TIP3    H239307   4.722   1.278   8.323 -0.8290 -0.8741 -0.1055
 5038TIP3   OH239308   5.576   3.973   8.481  0.5815 -0.9591 -0.7699
 5038TIP3    H139309   5.516   3.926   8.423  0.5236  0.5573 -1.9874
 5038TIP3    H239310   5.520   4.032   8.531  1.0134  0.4728 -1.9207
 5039TIP3   OH239311   5.583   2.730   9.008  0.1159  0.4081  0.1129
 5039TIP3    H139312   5.545   2.773   8.931 -1.7420  0.1787  0.8379
 5039TIP3    H239313   5.654   2.788   9.035 -0.0284  1.1517 -1.0159
 5040TIP3   OH239314   0.190   1.363   8.430  0.7761  1.0422  0.1152
 5040TIP3    H139315   0.123   1.330   8.371 -0.2056  1.5447  0.9074
 5040TIP3    H239316   0.164   1.330   8.516  0.8061  2.2915  0.6321
 5041TIP3   OH239317   4.500   7.222   7.563  0.5315 -0.0240 -0.3895
 5041TIP3    H139318   4.470   7.187   7.647  0.6566  0.9315  0.0617
 5041TIP3    H239319   4.464   7.310   7.559 -2.3936 -1.1703 -2.9024
 5042TIP3   OH239320   7.546   7.245   7.129 -0.1992  0.6845  0.4288
 5042TIP3    H139321   7.456   7.213   7.140 -0.0337 -0.0694 -0.3137
 5042TIP3    H239322   7.601   7.174   7.161  0.1551  0.6369 -0.2695
 5043TIP3   OH239323   5.543   4.777   7.178 -0.0450  0.2304 -0.3514
 5043TIP3    H139324   5.449   4.795   7.179  0.2016  1.6200 -0.5682
 5043TIP3    H239325   5.567   4.779   7.085  0.2436  0.1549 -0.2793
 5044TIP3   OH239326   5.775   0.735   7.331 -0.0073 -0.7070 -0.1504
 5044TIP3    H139327   5.756   0.790   7.407  0.0138 -0.3493 -0.4003
 5044TIP3    H239328   5.696   0.740   7.277  0.2339 -0.3869 -0.4879
 5045TIP3   OH239329   4.897   2.810   8.817 -0.2348 -0.0302 -0.0413
 5045TIP3    H139330   4.900   2.741   8.750 -0.8226  0.9170 -1.0722
 5045TIP3    H239331   4.931   2.768   8.896 -0.2848 -1.4104 -0.7246
 5046TIP3   OH239332   4.094   3.259   7.105 -0.1625 -0.5225  0.1190
 5046TIP3    H139333   4.176   3.219   7.075  0.3310 -1.1272  2.1009
 5046TIP3    H239334   4.030   3.188   7.098 -0.1642 -0.5151  0.0519
 5047TIP3   OH239335   2.407   5.939   7.773  0.8527  0.1698 -0.0047
 5047TIP3    H139336   2.314   5.958   7.762  0.8095  0.3074  0.5241
 5047TIP3    H239337   2.449   5.975   7.695  0.3314 -0.9483 -0.8155
 5048TIP3   OH239338   4.335   6.946   9.135  0.7278  0.3258 -0.0667
 5048TIP3    H139339   4.293   6.928   9.050  1.2580  1.8143 -0.6840
 5048TIP3    H239340   4.376   6.863   9.160 -2.8448 -1.3986  0.7973
 5049TIP3   OH239341   4.175   5.990   8.655  0.1671 -0.8197 -0.0941
 5049TIP3    H139342   4.270   5.985   8.639  0.2159  0.5780 -0.4112
 5049TIP3    H239343   4.166   6.063   8.716 -0.7094 -0.9940 -0.0127
 5050TIP3   OH239344   1.644   0.328   7.669 -0.0844 -0.4843 -0.5485
 5050TIP3    H139345   1.731   0.299   7.698 -0.2138  1.5055  2.2424
 5050TIP3    H239346   1.658   0.417   7.637 -1.2940  0.6387  1.8204
 5051TIP3   OH239347   2.738   5.582   7.862 -0.6294 -0.1192 -0.6629
 5051TIP3    H139348   2.744   5.539   7.947 -2.4819 -2.3661 -1.5564
 5051TIP3    H239349   2.644   5.594   7.848 -0.3818  0.0111 -2.4811
 5052TIP3   OH239350   6.722   3.973   7.264  1.0658  0.0217 -0.3974
 5052TIP3    H139351   6.742   3.898   7.208  0.7899 -0.8202  0.6012
 5052TIP3    H239352   6.665   4.029   7.210  0.2344 -1.1104 -0.7289
 5053TIP3   OH239353   0.047   3.195   9.668  0.4893  0.1957 -0.2075
 5053TIP3    H139354  -0.042   3.168   9.646  0.3026  0.9220 -0.3531
 5053TIP3    H239355   0.036   3.263   9.734  0.9358  0.3563 -0.2970
 5054TIP3   OH239356   2.737   7.241   8.774  0.1898 -0.1287 -0.0927
 5054TIP3    H139357   2.667   7.176   8.766  0.3508 -0.6376  2.1113
 5054TIP3    H239358   2.701   7.320   8.733 -0.5990 -1.1410 -1.4297
 5055TIP3   OH239359   3.662   4.330   8.969  0.2981 -0.9733  0.6095
 5055TIP3    H139360   3.722   4.264   8.932 -1.5673 -2.0660 -0.6537
 5055TIP3    H239361   3.615   4.283   9.037  0.5634 -0.2311  1.3213
 5056TIP3   OH239362   7.304   1.240   9.142  0.1796  0.2197 -0.3260
 5056TIP3    H139363   7.387   1.202   9.113  0.7093  0.7309  0.4486
 5056TIP3    H239364   7.238   1.173   9.124  1.2038 -1.5182  1.8346
 5057TIP3   OH239365   1.560   1.233   9.157 -0.1835  0.2812 -0.4857
 5057TIP3    H139366   1.655   1.226   9.162 -0.3102 -1.0779  0.6679
 5057TIP3    H239367   1.543   1.327   9.158  1.1128  0.5374  0.2100
 5058TIP3   OH239368   3.453   2.396   7.519 -0.0451 -0.3952  0.2030
 5058TIP3    H139369   3.504   2.346   7.583  0.9573  0.9281  0.4915
 5058TIP3    H239370   3.487   2.368   7.434  0.3243 -0.4076  0.3524
 5059TIP3   OH239371   7.560   7.236   8.380 -0.0976  0.6659  0.2849
 5059TIP3    H139372   7.535   7.234   8.472 -0.9558  1.7123  0.0979
 5059TIP3    H239373   7.642   7.187   8.376 -1.7061 -2.3262  1.0528
 5060TIP3   OH239374   5.437   3.679   6.792 -0.3001  0.1503 -0.1481
 5060TIP3    H139375   5.488   3.744   6.744 -1.2929  0.8228 -0.3134
 5060TIP3    H239376   5.478   3.595   6.769 -0.8471  0.4215 -2.3518
 5061TIP3   OH239377   0.266   3.965   8.837  0.4083 -0.0542  0.1430
 5061TIP3    H139378   0.174   3.939   8.845  0.3473  0.0919 -0.0692
 5061TIP3    H239379   0.308   3.892   8.792 -0.2478  1.1941 -2.6676
 5062TIP3   OH239380   4.628   3.132   9.262 -0.3615  0.3637 -0.6121
 5062TIP3    H139381   4.588   3.088   9.187 -0.4185  0.3656 -0.5827
 5062TIP3    H239382   4.564   3.199   9.287  0.3691  1.4349 -1.5591
 5063TIP3   OH239383   2.143   2.391   8.666  0.1530 -0.2079  0.2491
 5063TIP3    H139384   2.096   2.470   8.638  2.5213  1.1865 -0.0109
 5063TIP3    H239385   2.190   2.362   8.588 -0.1163 -1.4898  0.5330
 5064TIP3   OH239386   5.466   5.037   9.298  0.6102  0.0749 -0.4730
 5064TIP3    H139387   5.525   5.018   9.372  1.6293  0.4402 -1.1711
 5064TIP3    H239388   5.512   5.003   9.221 -0.6928 -0.8008 -0.8963
 5065TIP3   OH239389   7.121   0.869   8.376  0.2135 -0.1411 -0.3389
 5065TIP3    H139390   7.182   0.806   8.416  0.5583  0.4779  0.1334
 5065TIP3    H239391   7.071   0.903   8.450  1.8505  2.1066 -0.1624
 5066TIP3   OH239392   4.797   1.891   7.636 -0.7936  0.0276 -0.2205
 5066TIP3    H139393   4.861   1.948   7.680 -1.2678 -0.2294  0.8115
 5066TIP3    H239394   4.755   1.842   7.706 -2.0243  0.0717 -0.8977
 5067TIP3   OH239395   6.005   6.580   8.843  0.5926  0.3618 -0.2048
 5067TIP3    H139396   5.942   6.552   8.909  0.6903  1.2829  0.2976
 5067TIP3    H239397   5.966   6.553   8.760 -0.5616  1.0473  0.0846
 5068TIP3   OH239398   2.378   4.474   8.175  0.3955  0.2140  0.2433
 5068TIP3    H139399   2.360   4.427   8.256  0.8241  1.2462  0.9589
 5068TIP3    H239400   2.399   4.406   8.111  0.9734 -0.5619  1.2433
 5069TIP3   OH239401   4.744   1.343   8.993  0.3551 -0.1468  0.3833
 5069TIP3    H139402   4.680   1.383   8.935 -0.9642 -1.0061  1.2099
 5069TIP3    H239403   4.715   1.366   9.081  1.2463 -0.4531  0.7704
 5070TIP3   OH239404   3.580   7.062   8.440  0.4493 -0.2088  0.2137
 5070TIP3    H139405   3.484   7.054   8.434  0.5436 -0.4914 -1.3926
 5070TIP3    H239406   3.611   7.034   8.355  2.0449 -0.8887  0.9905
 5071TIP3   OH239407   4.460   2.656   8.004 -0.0970  0.3069 -0.4287
 5071TIP3    H139408   4.372   2.646   7.968  0.1105  1.5424 -1.3794
 5071TIP3    H239409   4.516   2.664   7.927  0.7485  0.2878  0.1706
 5072TIP3   OH239410   4.802   4.183   7.312  0.2918 -0.6806 -0.4285
 5072TIP3    H139411   4.897   4.181   7.306  0.3484  0.9072 -0.2724
 5072TIP3    H239412   4.784   4.199   7.405 -0.0673  1.0440 -0.7671
 5073TIP3   OH239413   2.674   7.387   6.388 -0.4270  0.7881 -0.2920
 5073TIP3    H139414   2.594   7.397   6.441 -0.1518  0.3637  0.2089
 5073TIP3    H239415   2.683   7.293   6.375  0.1143  0.8173 -0.1532
 5074TIP3   OH239416   5.304   7.162   7.577 -0.1332  0.2582 -0.1886
 5074TIP3    H139417   5.392   7.131   7.599 -0.3118  1.3099  2.3858
 5074TIP3    H239418   5.316   7.255   7.557 -0.5996  0.3084 -0.2373
 5075TIP3   OH239419   5.392   5.912   7.168 -0.9944  0.1175 -0.2036
 5075TIP3    H139420   5.306   5.947   7.189 -0.1933  1.1639  1.5692
 5075TIP3    H239421   5.444   5.989   7.144  0.2234 -0.0415  1.6799
 5076TIP3   OH239422   1.536   1.366   8.359 -0.6549  0.1843  0.2401
 5076TIP3    H139423   1.443   1.350   8.344 -0.3242 -1.4802 -0.2307
 5076TIP3    H239424   1.577   1.359   8.273 -0.0695  0.8148  0.4528
 5077TIP3   OH239425   3.646   2.979   7.786  0.2661 -0.7912 -0.0251
 5077TIP3    H139426   3.577   3.020   7.734 -1.4383 -2.0734  1.1286
 5077TIP3    H239427   3.654   3.035   7.863 -0.3589 -1.2777  0.4046
 5078TIP3   OH239428   2.969   0.560   8.956 -0.9339 -0.1799  0.3596
 5078TIP3    H139429   2.906   0.496   8.922 -0.6550  1.0136 -2.7630
 5078TIP3    H239430   2.938   0.644   8.923  0.7662  0.8203  1.1675
 5079TIP3   OH239431   3.448   7.545   7.617 -0.2837  0.0221  0.6753
 5079TIP3    H139432   3.358   7.568   7.594  0.2831  0.7960 -0.8771
 5079TIP3    H239433   3.499   7.623   7.596  1.0589 -1.1222 -0.5047
 5080TIP3   OH239434   4.622   3.847   7.369 -0.0376 -0.6408  0.3326
 5080TIP3    H139435   4.613   3.922   7.427  0.5950  0.5188 -1.0188
 5080TIP3    H239436   4.556   3.861   7.302  0.7892 -0.7294 -0.5130
 5081TIP3   OH239437   7.422   5.242   7.472 -0.0006  0.0805  0.1480
 5081TIP3    H139438   7.472   5.171   7.511  1.2957  1.1088  0.4022
 5081TIP3    H239439   7.438   5.234   7.378  2.7827  1.8769  0.3582
 5082TIP3   OH239440   0.175   5.343   8.470 -0.6979 -0.0302  0.0465
 5082TIP3    H139441   0.155   5.435   8.457  0.5919  0.3707  0.7301
 5082TIP3    H239442   0.093   5.305   8.502 -1.6560  0.5539 -1.5919
 5083TIP3   OH239443   7.009   2.231   6.758  0.0835 -0.0212 -0.1225
 5083TIP3    H139444   7.104   2.242   6.760  0.0647  0.1460 -0.1211
 5083TIP3    H239445   6.981   2.253   6.847  0.0149  0.1960 -0.1972
 5084TIP3   OH239446   0.335   0.485   8.841  0.0255 -0.5632 -0.2992
 5084TIP3    H139447   0.373   0.420   8.899 -1.3598  0.3648  1.7559
 5084TIP3    H239448   0.242   0.464   8.838 -1.0118  2.7019  2.5867
 5085TIP3   OH239449   4.917   1.791   8.256 -0.0978 -0.3783 -0.2177
 5085TIP3    H139450   4.883   1.874   8.223 -0.3300 -0.3329  0.1335
 5085TIP3    H239451   5.006   1.812   8.285 -0.1978 -0.2229 -0.0168
 5086TIP3   OH239452   1.961   2.116   7.365 -0.3987  0.4006  0.6368
 5086TIP3    H139453   2.020   2.070   7.424  0.2736  1.7431  1.0361
 5086TIP3    H239454   1.998   2.204   7.356 -1.8175  0.9870  0.1523
 5087TIP3   OH239455   5.018   2.772   8.039 -0.0194  0.2325  0.2150
 5087TIP3    H139456   5.083   2.741   8.101 -0.9816 -1.0280  0.6309
 5087TIP3    H239457   4.944   2.801   8.093 -0.3621  0.3253 -0.2909
 5088TIP3   OH239458   4.771   0.511   6.869  0.7721  0.5592  0.2171
 5088TIP3    H139459   4.832   0.466   6.811  0.2011  1.3457 -1.0271
 5088TIP3    H239460   4.770   0.458   6.949  2.2800 -0.0380 -0.1222
 5089TIP3   OH239461   0.081   1.074   9.183  0.3661  0.2294 -0.3600
 5089TIP3    H139462   0.137   0.998   9.200 -2.2183 -1.6994  0.2023
 5089TIP3    H239463   0.062   1.109   9.270  0.5024  0.7353 -0.5324
 5090TIP3   OH239464   5.054   4.521   9.148  0.0130 -0.0984 -0.1017
 5090TIP3    H139465   5.074   4.528   9.241 -0.8042 -1.5040  0.2187
 5090TIP3    H239466   5.102   4.593   9.107 -0.1117  0.9283  1.4707
 5091TIP3   OH239467   3.905   1.872   7.673  0.7599 -0.2193 -0.3063
 5091TIP3    H139468   3.813   1.853   7.691  0.9508 -0.4551  0.4481
 5091TIP3    H239469   3.910   1.874   7.577 -0.1268  0.3038 -0.3549
 5092TIP3   OH239470   7.254   6.734   8.025 -0.1084  0.1369  0.0734
 5092TIP3    H139471   7.281   6.825   8.032 -0.9931  0.3046  1.9585
 5092TIP3    H239472   7.334   6.684   8.041  0.0589  0.5953  0.6935
 5093TIP3   OH239473   2.818   3.709   8.811  0.1441  0.4196  0.3436
 5093TIP3    H139474   2.776   3.770   8.871  1.7963  0.4207  1.5718
 5093TIP3    H239475   2.888   3.760   8.769  1.3947 -0.5023  1.2148
 5094TIP3   OH239476   1.866   6.210   8.662  0.5106  0.1487 -0.4020
 5094TIP3    H139477   1.785   6.236   8.705  0.9940  0.4744  0.3351
 5094TIP3    H239478   1.857   6.116   8.648 -0.4363  0.3474 -1.3213
 5095TIP3   OH239479   2.681   3.288   8.262  0.1414 -0.2161 -0.4570
 5095TIP3    H139480   2.592   3.271   8.295  0.2423 -1.6856 -0.8823
 5095TIP3    H239481   2.734   3.296   8.341 -0.1850 -0.3984 -0.2152
 5096TIP3   OH239482   1.407   1.029   7.696  0.3262  0.1338 -0.4163
 5096TIP3    H139483   1.401   1.125   7.700  1.7169  0.6829 -5.2851
 5096TIP3    H239484   1.493   1.009   7.731 -1.0610  0.0890  3.4922
 5097TIP3   OH239485   0.112   3.866   8.123  0.1175 -0.5138 -0.7958
 5097TIP3    H139486   0.052   3.896   8.192 -0.1671  1.1475 -1.7146
 5097TIP3    H239487   0.092   3.773   8.112 -1.2982 -0.3100 -0.1038
 5098TIP3   OH239488   0.524   5.360   7.673  0.3368 -0.0472  0.3119
 5098TIP3    H139489   0.572   5.384   7.594  1.8712 -4.2979 -0.3028
 5098TIP3    H239490   0.454   5.425   7.680  0.4374  0.8332 -4.2346
 5099TIP3   OH239491   0.773   4.198   8.994 -0.4717 -0.2518  0.0020
 5099TIP3    H139492   0.806   4.135   9.057  1.2309 -0.2687 -0.8577
 5099TIP3    H239493   0.756   4.277   9.045  1.3283 -0.1145  0.4406
 5100TIP3   OH239494   2.474   0.685   8.587  0.4221  0.2828  0.2417
 5100TIP3    H139495   2.393   0.637   8.607  1.3780 -1.2995  0.5189
 5100TIP3    H239496   2.478   0.684   8.492 -0.8848  2.1813  0.1152
 5101TIP3   OH239497   1.288   7.070   8.458  0.4308 -0.0817  0.2205
 5101TIP3    H139498   1.317   7.029   8.540  1.8229 -0.4000 -0.4172
 5101TIP3    H239499   1.352   7.139   8.442  0.6044 -0.5061 -0.9857
 5102TIP3   OH239500   3.222   3.738   8.603  0.1017  0.0780  1.0867
 5102TIP3    H139501   3.234   3.693   8.686  0.5707 -1.7222  0.0939
 5102TIP3    H239502   3.311   3.757   8.572  0.0455 -1.3779 -0.0673
 5103TIP3   OH239503   5.468   1.107   9.078  0.2448 -0.6256 -0.4014
 5103TIP3    H139504   5.372   1.108   9.081  0.2608 -0.6687  0.4339
 5103TIP3    H239505   5.495   1.188   9.122  0.5883 -0.3652 -1.0806
 5104TIP3   OH239506   5.189   4.038   8.035 -0.0115  0.0337 -0.4091
 5104TIP3    H139507   5.220   3.993   7.956  0.1612 -3.3923  1.4384
 5104TIP3    H239508   5.265   4.088   8.065  0.6630 -0.5158 -1.1362
 5105TIP3   OH239509   7.288   0.861   8.746 -0.2084  0.2063 -0.0374
 5105TIP3    H139510   7.310   0.813   8.666 -0.3802 -1.6836  0.9728
 5105TIP3    H239511   7.372   0.889   8.782  0.0244 -0.5540  0.0366
 5106TIP3   OH239512   0.923   0.403   7.563  0.0530 -0.1087  0.2497
 5106TIP3    H139513   0.858   0.420   7.631  2.1429 -0.7598  2.5417
 5106TIP3    H239514   0.927   0.484   7.513 -0.0724  1.1989  2.2399
 5107TIP3   OH239515   1.112   5.807   8.555 -0.0689 -0.6047  0.1772
 5107TIP3    H139516   1.111   5.712   8.563  0.2414 -0.6136  0.1249
 5107TIP3    H239517   1.027   5.829   8.519 -0.3681 -0.8123  0.7372
 5108TIP3   OH239518   1.741   1.969   8.063  0.4714 -0.2566 -0.0950
 5108TIP3    H139519   1.767   2.042   8.006 -0.4466  0.4954  0.4239
 5108TIP3    H239520   1.663   1.933   8.022  1.0375 -1.1172 -0.4629
 5109TIP3   OH239521   4.626   0.867   8.946  0.9654  0.5556  0.3371
 5109TIP3    H139522   4.575   0.921   9.006 -0.6158 -0.0687 -0.3956
 5109TIP3    H239523   4.621   0.779   8.982  1.7148  0.5184  0.3640
 5110TIP3   OH239524   2.055   3.043   8.457 -0.6961 -0.3442  0.0502
 5110TIP3    H139525   2.029   2.981   8.525 -0.9767  1.2922  1.5194
 5110TIP3    H239526   1.989   3.112   8.461 -0.1196  0.3110 -1.1789
 5111TIP3   OH239527   3.236   7.043   8.866  0.2320  0.0680 -0.0380
 5111TIP3    H139528   3.253   7.082   8.780 -2.6460 -2.5815 -2.0248
 5111TIP3    H239529   3.148   7.075   8.890  1.0636  0.9305  2.1306
 5112TIP3   OH239530   0.820   3.176   7.323  0.5782 -0.1420  0.1609
 5112TIP3    H139531   0.832   3.086   7.355  2.3570  0.3056  0.8980
 5112TIP3    H239532   0.905   3.199   7.284  0.3161  1.3804  0.4260
 5113TIP3   OH239533   0.503   0.682   8.485  0.1225  0.2197  0.0038
 5113TIP3    H139534   0.491   0.597   8.526 -2.5609 -0.0304 -1.0681
 5113TIP3    H239535   0.467   0.745   8.548 -2.4707 -0.0100 -1.1062
 5114TIP3   OH239536   6.070   2.212   7.011  0.3700 -0.1760  0.7056
 5114TIP3    H139537   5.994   2.161   7.038 -0.0102 -0.1011 -0.1772
 5114TIP3    H239538   6.044   2.250   6.927  2.1956 -2.0454 -0.8277
 5115TIP3   OH239539   0.219   0.720   7.284  0.0722  0.0046 -0.4536
 5115TIP3    H139540   0.163   0.710   7.206  0.4962 -0.1445 -0.7395
 5115TIP3    H239541   0.308   0.714   7.251  0.4145  3.3268 -0.4870
 5116TIP3   OH239542   5.487   3.274   7.686  0.3178 -0.0393  0.0049
 5116TIP3    H139543   5.450   3.197   7.643  1.3881 -0.9492  0.6485
 5116TIP3    H239544   5.573   3.246   7.715  0.6182  1.3285  0.5116
 5117TIP3   OH239545   2.610   6.708   8.360  0.0946  0.5459  0.1056
 5117TIP3    H139546   2.528   6.662   8.339  0.6759 -0.6055  0.2802
 5117TIP3    H239547   2.620   6.772   8.289  0.4527 -1.1902 -1.4980
 5118TIP3   OH239548   6.803   2.039   7.211  0.2462 -0.2123  0.0659
 5118TIP3    H139549   6.895   2.057   7.226  0.4882 -1.7568  0.6907
 5118TIP3    H239550   6.793   1.946   7.231 -1.0098 -0.6217 -2.0477
 5119TIP3   OH239551   5.576   5.506   9.287  0.2693 -0.0205 -0.3302
 5119TIP3    H139552   5.600   5.467   9.371 -1.7267 -1.5777 -0.3928
 5119TIP3    H239553   5.509   5.570   9.308 -0.3657 -0.5382 -0.7084
 5120TIP3   OH239554   4.684   1.976   8.924  0.0272  0.1168 -0.3457
 5120TIP3    H139555   4.759   1.916   8.924 -0.9321 -1.1296 -0.8423
 5120TIP3    H239556   4.641   1.961   9.009 -0.1444  0.1933 -0.4173
 5121TIP3   OH239557   5.573   2.715   8.422 -0.4429 -0.6180  0.2295
 5121TIP3    H139558   5.487   2.734   8.459 -0.8321 -2.5226  0.4186
 5121TIP3    H239559   5.631   2.782   8.459 -1.6992  0.2508  0.6731
 5122TIP3   OH239560   6.437   3.557   8.729 -1.1015 -0.0897 -0.8861
 5122TIP3    H139561   6.379   3.609   8.672 -0.6507 -0.0119 -1.2841
 5122TIP3    H239562   6.508   3.617   8.751 -0.4951 -0.5679 -1.4721
 5123TIP3   OH239563   3.434   5.920   9.014  0.3031 -0.0893 -0.3875
 5123TIP3    H139564   3.455   5.988   9.077  0.1439  0.9087 -1.3707
 5123TIP3    H239565   3.491   5.847   9.037 -0.1893  0.0050  1.2806
 5124TIP3   OH239566   4.747   7.375   8.992 -0.1894  0.5061 -0.5667
 5124TIP3    H139567   4.772   7.336   8.908  1.1636  1.2331 -0.5287
 5124TIP3    H239568   4.684   7.313   9.029 -1.8377  0.7818 -2.6653
 5125TIP3   OH239569   0.334   1.574   8.344 -0.1354  0.5597 -0.4889
 5125TIP3    H139570   0.291   1.495   8.376 -0.4990  0.9650  0.0539
 5125TIP3    H239571   0.288   1.646   8.388  2.3286  0.9573  1.6547
 5126TIP3   OH239572   2.975   4.342   7.512  0.0609  0.1872 -0.1960
 5126TIP3    H139573   3.047   4.385   7.465 -0.8924  0.3320 -1.5754
 5126TIP3    H239574   3.001   4.250   7.516  0.2057  0.1879 -0.9377
 5127TIP3   OH239575   3.564   1.133   9.181 -0.5303 -0.0627  0.2303
 5127TIP3    H139576   3.652   1.110   9.151 -0.5029  2.3172 -1.8985
 5127TIP3    H239577   3.510   1.057   9.160  0.6115 -0.6485 -0.6625
 5128TIP3   OH239578   3.205   6.720   9.056 -0.5216  0.1415 -0.1483
 5128TIP3    H139579   3.215   6.634   9.097  0.7295 -0.1669 -1.0543
 5128TIP3    H239580   3.136   6.706   8.990 -1.2359  0.1802  0.5713
 5129TIP3   OH239581   7.412   1.261   7.858  0.1521  0.5611 -0.1128
 5129TIP3    H139582   7.502   1.237   7.835  0.1314 -2.4444  2.2859
 5129TIP3    H239583   7.419   1.299   7.946 -0.8857  0.2644  0.1144
 5130TIP3   OH239584   5.636   7.395   6.667  0.1601  0.6318  0.1138
 5130TIP3    H139585   5.720   7.413   6.709 -1.0169  0.8865  2.5118
 5130TIP3    H239586   5.588   7.478   6.672 -0.4661  0.3399 -0.7341
 5131TIP3   OH239587   3.405   1.341   9.044  0.1401  0.7288 -0.0144
 5131TIP3    H139588   3.434   1.432   9.054 -0.0135  0.8639 -0.7564
 5131TIP3    H239589   3.461   1.292   9.104  0.5137  1.2578  0.0803
 5132TIP3   OH239590   5.124   5.488   8.691  0.7756 -0.0403  0.2550
 5132TIP3    H139591   5.121   5.406   8.740  1.9893 -0.3165 -0.0979
 5132TIP3    H239592   5.032   5.506   8.668  0.5269 -1.4702  0.0417
 5133TIP3   OH239593   3.216   6.721   7.716  0.3877  0.1158 -0.0649
 5133TIP3    H139594   3.269   6.740   7.793  0.0043 -1.3578  0.5877
 5133TIP3    H239595   3.140   6.674   7.749  0.4155 -0.9191 -1.3685
 5134TIP3   OH239596   0.029   5.434   7.272  0.1778 -0.6360  0.0545
 5134TIP3    H139597   0.004   5.490   7.346 -0.6619  0.6337 -1.1470
 5134TIP3    H239598   0.100   5.380   7.306 -1.3824 -1.3976  2.3565
 5135TIP3   OH239599   7.612   4.680   8.063  0.1599 -0.0663  0.1381
 5135TIP3    H139600   7.550   4.610   8.043 -0.0089 -0.4955  1.9443
 5135TIP3    H239601   7.633   4.667   8.156  1.8029  0.9755 -0.0463
 5136TIP3   OH239602   4.123   0.839   9.252  0.2079  0.4767  0.0481
 5136TIP3    H139603   4.118   0.796   9.167 -0.5336  0.5204  0.0683
 5136TIP3    H239604   4.033   0.839   9.286  0.2417  1.7098  0.2123
 5137TIP3   OH239605   6.981   5.903   6.449 -0.5600  0.2199  0.1438
 5137TIP3    H139606   7.024   5.817   6.457 -0.1164  0.5538  1.7888
 5137TIP3    H239607   6.893   5.889   6.482 -0.9123  0.1144 -0.8229
 5138TIP3   OH239608   5.262   2.822   6.966 -0.5516 -0.5911  0.2223
 5138TIP3    H139609   5.193   2.888   6.961 -1.7388 -1.8412 -4.1438
 5138TIP3    H239610   5.216   2.740   6.985  0.0444 -1.0917 -0.4362
 5139TIP3   OH239611   0.247   4.859   6.832  0.5666  0.1927 -0.2441
 5139TIP3    H139612   0.298   4.834   6.755  1.2492  0.8398 -0.0210
 5139TIP3    H239613   0.282   4.944   6.857 -0.2116  0.3643  0.2946
 5140TIP3   OH239614   0.700   6.138   9.105  0.2256  0.1225 -0.3605
 5140TIP3    H139615   0.677   6.182   9.187  0.4755 -0.4533  0.0233
 5140TIP3    H239616   0.708   6.046   9.128  0.6489  0.0024 -0.9618
 5141TIP3   OH239617   2.777   7.114   6.360 -0.1813  0.1725 -0.0184
 5141TIP3    H139618   2.810   7.105   6.450 -1.2781 -0.3971  0.3449
 5141TIP3    H239619   2.761   7.025   6.331  0.3278  0.3504 -0.8516
 5142TIP3   OH239620   3.027   3.115   9.159  0.4089  0.6122  0.2312
 5142TIP3    H139621   3.117   3.133   9.131  0.2756  1.1593  0.1425
 5142TIP3    H239622   2.999   3.043   9.103  0.8174  0.3916  0.3067
 5143TIP3   OH239623   5.772   7.595   7.493  0.4998  0.2087  0.3054
 5143TIP3    H139624   5.759   7.545   7.574 -0.3645 -0.2386 -0.0942
 5143TIP3    H239625   5.693   7.649   7.485  1.7341  2.2642  1.1229
 5144TIP3   OH239626   1.003   6.741   8.651 -0.3457 -0.2167 -0.3168
 5144TIP3    H139627   0.997   6.797   8.574 -3.5339  2.8129  1.8454
 5144TIP3    H239628   1.049   6.795   8.716  1.4676 -2.3488  0.3167
 5145TIP3   OH239629   5.773   5.163   9.092 -0.2543 -0.2375 -0.2203
 5145TIP3    H139630   5.718   5.086   9.083  0.6472 -0.9470  0.1888
 5145TIP3    H239631   5.773   5.181   9.186 -0.9734  0.6600 -0.3772
 5146TIP3   OH239632   2.172   2.413   7.606  0.5149  0.0285  0.3021
 5146TIP3    H139633   2.233   2.344   7.632  1.5203  0.5626 -0.5779
 5146TIP3    H239634   2.173   2.410   7.510 -1.2549 -0.3026  0.2639
 5147TIP3   OH239635   1.497   3.073   9.009  0.0270 -0.1436 -0.3827
 5147TIP3    H139636   1.547   3.127   8.949  0.6100 -0.1609  0.0716
 5147TIP3    H239637   1.563   3.025   9.059 -0.4275  0.1040  0.4812
 5148TIP3   OH239638   7.674   6.700   6.859  0.0311  0.4060 -0.3199
 5148TIP3    H139639   7.606   6.686   6.794  0.5746 -0.8538 -0.6500
 5148TIP3    H239640   7.756   6.681   6.813  0.5199  0.7296  0.3936
 5149TIP3   OH239641   5.974   0.588   8.001  0.3772 -0.3492 -0.0272
 5149TIP3    H139642   5.894   0.549   8.037  0.0276 -0.1898 -0.6134
 5149TIP3    H239643   5.983   0.549   7.914 -1.1923  2.3886 -1.5697
 5150TIP3   OH239644   4.580   6.419   8.337 -0.4340 -0.2631  0.0589
 5150TIP3    H139645   4.598   6.366   8.260  1.5634 -0.5817  0.7064
 5150TIP3    H239646   4.518   6.485   8.306 -0.0715 -0.6889 -1.6844
 5151TIP3   OH239647   5.967   0.584   7.453  0.1071 -0.0787 -0.1202
 5151TIP3    H139648   5.903   0.631   7.401  0.5412  0.1084 -0.4941
 5151TIP3    H239649   6.047   0.586   7.401  0.8812  1.1095  1.0323
 5152TIP3   OH239650   7.597   5.342   6.444  0.3290  0.0076 -0.0580
 5152TIP3    H139651   7.527   5.335   6.379  0.8864  0.0947 -0.6833
 5152TIP3    H239652   7.661   5.275   6.416  0.3925 -0.2222  0.6307
 5153TIP3   OH239653   1.566   5.099   8.929 -0.8050 -0.3273  0.2645
 5153TIP3    H139654   1.635   5.056   8.979  0.8849 -0.0374 -1.6626
 5153TIP3    H239655   1.508   5.027   8.901 -0.2367 -0.8337  0.3687
 5154TIP3   OH239656   0.623   1.241   7.505 -0.0040  0.4296 -0.2497
 5154TIP3    H139657   0.558   1.210   7.569 -0.1489 -0.0090 -0.6065
 5154TIP3    H239658   0.707   1.216   7.542 -0.1086 -0.1831 -0.4233
 5155TIP3   OH239659   3.754   0.626   8.246 -0.2739  0.2620 -0.4402
 5155TIP3    H139660   3.673   0.624   8.297 -1.0245  0.3091 -1.6025
 5155TIP3    H239661   3.769   0.535   8.221  0.6809  0.0636  0.7036
 5156TIP3   OH239662   1.618   7.258   7.250  0.4461 -0.3447 -0.4492
 5156TIP3    H139663   1.681   7.198   7.210  1.0862  0.5784 -0.8585
 5156TIP3    H239664   1.585   7.310   7.177  0.1628  0.0442 -0.0487
 5157TIP3   OH239665   6.020   6.210   8.006  0.1634 -0.2803  0.0882
 5157TIP3    H139666   5.966   6.285   7.982 -0.3912 -0.7821 -0.2431
 5157TIP3    H239667   6.110   6.240   7.991 -0.0181  0.5152  0.5204
 5158TIP3   OH239668   1.254   3.957   8.100  0.2318 -0.0091  0.0027
 5158TIP3    H139669   1.258   4.029   8.036 -0.4180  0.3915  0.4057
 5158TIP3    H239670   1.314   3.984   8.169  0.2280 -0.0027  0.0032
 5159TIP3   OH239671   1.879   3.518   9.273 -0.1898  0.1616  0.7832
 5159TIP3    H139672   1.924   3.587   9.225  0.2382  0.1564  1.1727
 5159TIP3    H239673   1.814   3.565   9.327 -1.7795  0.0719 -0.9301
 5160TIP3   OH239674   0.849   5.552   9.378 -0.1360  0.6210 -0.2332
 5160TIP3    H139675   0.781   5.616   9.399  0.1864  0.5293  1.1716
 5160TIP3    H239676   0.816   5.469   9.413  0.1220  0.3108 -0.7074
 5161TIP3   OH239677   7.041   1.444   6.888  0.0494 -0.1951  0.3798
 5161TIP3    H139678   7.125   1.398   6.882 -0.3739 -0.9781  0.3595
 5161TIP3    H239679   7.055   1.526   6.841  0.8223 -0.2861  0.4366
 5162TIP3   OH239680   4.728   4.425   6.959 -0.1050 -0.2230 -0.2855
 5162TIP3    H139681   4.815   4.385   6.957  0.0564  0.0392  0.6915
 5162TIP3    H239682   4.746   4.519   6.969 -0.4969 -0.1189 -0.5458
 5163TIP3   OH239683   5.441   5.352   9.118  0.2376 -0.1241 -0.7510
 5163TIP3    H139684   5.453   5.406   9.040 -1.0276  1.7095  0.2312
 5163TIP3    H239685   5.506   5.387   9.180 -0.2408 -0.0599 -0.2783
 5164TIP3   OH239686   1.476   4.943   7.956 -0.6054 -0.3505 -0.3759
 5164TIP3    H139687   1.412   5.012   7.974  0.7705  0.4124  2.0979
 5164TIP3    H239688   1.557   4.991   7.936  0.5525 -1.1546  2.0595
 5165TIP3   OH239689   5.967   4.796   8.157 -0.7125 -0.1522  0.0683
 5165TIP3    H139690   5.885   4.800   8.205  0.5318 -0.0030  2.3297
 5165TIP3    H239691   5.958   4.720   8.099 -2.3591 -0.2286  0.3956
 5166TIP3   OH239692   1.765   0.862   9.348 -0.2853 -0.3506  0.2219
 5166TIP3    H139693   1.706   0.790   9.373  0.1953 -0.2911  1.6427
 5166TIP3    H239694   1.838   0.818   9.305  0.5565 -0.8768  2.1027
 5167TIP3   OH239695   3.461   2.515   9.071  0.6022 -0.1175 -1.2248
 5167TIP3    H139696   3.507   2.456   9.011  1.4219 -0.0900 -0.6440
 5167TIP3    H239697   3.530   2.550   9.128 -0.2673 -0.8915  0.3881
 5168TIP3   OH239698   2.992   5.808   7.769  0.3680  0.0385 -0.7838
 5168TIP3    H139699   2.954   5.800   7.682 -1.6786  0.3026  0.0355
 5168TIP3    H239700   3.034   5.723   7.785  0.2642 -0.2061 -1.7970
 5169TIP3   OH239701   5.319   3.618   9.391 -0.1299 -0.3068  0.3862
 5169TIP3    H139702   5.253   3.550   9.405 -1.6718  0.9524 -0.3837
 5169TIP3    H239703   5.388   3.575   9.341 -0.7130 -1.4735  0.5534
 5170TIP3   OH239704   1.330   3.623   9.128 -0.4099 -0.2050 -0.2888
 5170TIP3    H139705   1.291   3.704   9.097  0.6066  0.3737 -0.0883
 5170TIP3    H239706   1.395   3.650   9.193 -0.7038 -1.2359  0.4682
 5171TIP3   OH239707   3.131   5.134   7.828 -0.6273 -0.1348  0.2370
 5171TIP3    H139708   3.143   5.039   7.834 -1.6826 -0.3682 -0.8764
 5171TIP3    H239709   3.220   5.169   7.819 -0.2370 -1.0220  0.5212
 5172TIP3   OH239710   5.795   3.156   8.145  0.2582  0.0243  0.4288
 5172TIP3    H139711   5.832   3.142   8.058  1.2368 -1.9286  1.0958
 5172TIP3    H239712   5.700   3.148   8.132  0.0588  3.1814 -0.9744
 5173TIP3   OH239713   2.960   3.659   7.629 -0.3769 -0.1598  0.0455
 5173TIP3    H139714   2.973   3.574   7.585 -0.9286 -0.6197  0.7477
 5173TIP3    H239715   3.048   3.693   7.641 -0.2241  0.1970 -1.8199
 5174TIP3   OH239716   7.454   5.633   7.678 -0.1248  0.2555  0.1352
 5174TIP3    H139717   7.409   5.549   7.686  0.8460 -0.1204  2.3111
 5174TIP3    H239718   7.496   5.646   7.763 -0.3067  2.9940 -0.1193
 5175TIP3   OH239719   0.454   5.254   7.225  0.0514  0.3962 -0.2163
 5175TIP3    H139720   0.502   5.172   7.237 -1.3450 -0.5250 -0.5799
 5175TIP3    H239721   0.477   5.282   7.136  0.6643  0.4874 -0.0313
 5176TIP3   OH239722   4.440   6.153   8.608  0.2676  0.6194  0.6134
 5176TIP3    H139723   4.436   6.235   8.658  1.5114  1.5290 -0.7026
 5176TIP3    H239724   4.525   6.156   8.565 -1.6487  1.1400 -3.5867
 5177TIP3   OH239725   5.029   5.285   8.894 -0.1806  0.1423 -0.4785
 5177TIP3    H139726   4.954   5.304   8.838 -0.9915 -0.9443  0.1982
 5177TIP3    H239727   5.015   5.195   8.924 -0.0603  0.8325  1.8741
 5178TIP3   OH239728   7.264   4.140   6.583 -0.1650  0.0813 -0.2683
 5178TIP3    H139729   7.344   4.170   6.625  0.1355  0.2337 -0.9342
 5178TIP3    H239730   7.219   4.221   6.557 -1.2637  0.0552  1.3904
 5179TIP3   OH239731   2.242   4.558   6.983  0.0837 -0.2822 -0.0879
 5179TIP3    H139732   2.326   4.597   7.009  0.7653 -0.1919 -2.2223
 5179TIP3    H239733   2.186   4.633   6.962  0.2123 -0.3662 -0.7588
 5180TIP3   OH239734   3.943   6.002   9.257  1.0814  0.2478  0.5423
 5180TIP3    H139735   3.880   6.001   9.329  0.7291  1.3686  0.2715
 5180TIP3    H239736   4.024   5.970   9.296  0.5891 -0.3309  1.1244
 5181TIP3   OH239737   6.828   4.701   7.101  0.0303 -0.1408 -0.5638
 5181TIP3    H139738   6.770   4.776   7.116 -0.2020 -0.1194 -1.5382
 5181TIP3    H239739   6.770   4.631   7.073  0.2009 -0.8252  0.7322
 5182TIP3   OH239740   1.538   4.399   7.225  0.5809  0.4201 -0.2593
 5182TIP3    H139741   1.562   4.345   7.151 -0.2502 -0.6182  0.2092
 5182TIP3    H239742   1.591   4.366   7.298 -0.8214 -0.6375  0.3275
 5183TIP3   OH239743   7.534   4.982   9.341  0.8416  0.2704 -0.2834
 5183TIP3    H139744   7.578   4.907   9.303  1.7639 -0.7154  2.5249
 5183TIP3    H239745   7.602   5.049   9.350  1.4613 -0.6037  2.3416
 5184TIP3   OH239746   0.378   6.692   7.263 -0.3332 -0.7058 -0.7266
 5184TIP3    H139747   0.369   6.661   7.172  1.1096 -0.1831 -1.0788
 5184TIP3    H239748   0.329   6.774   7.265  1.9501  0.8079 -1.8968
 5185TIP3   OH239749   5.256   3.305   8.411 -0.3253 -0.7013  0.2160
 5185TIP3    H139750   5.275   3.224   8.364  1.7133 -0.4386  0.5036
 5185TIP3    H239751   5.322   3.308   8.481 -1.3651  0.4336  1.1954
 5186TIP3   OH239752   0.288   3.806   7.857 -0.0198  0.0653  0.2128
 5186TIP3    H139753   0.213   3.747   7.845 -0.2399  0.0656  1.4223
 5186TIP3    H239754   0.347   3.785   7.785 -0.6406 -0.7952 -0.0651
 5187TIP3   OH239755   3.929   7.258   6.618  0.5208  0.1883  0.4120
 5187TIP3    H139756   3.951   7.165   6.616  0.8907  0.2424 -2.6725
 5187TIP3    H239757   3.995   7.300   6.563 -1.5026  1.7456 -1.0187
 5188TIP3   OH239758   6.692   5.253   7.362 -0.0158  0.1030 -0.7871
 5188TIP3    H139759   6.627   5.209   7.416 -0.4134 -0.1584 -1.4564
 5188TIP3    H239760   6.691   5.204   7.279  0.2765  0.7354 -1.1743
 5189TIP3   OH239761   1.452   0.295   7.887 -0.3609  0.3000 -0.3186
 5189TIP3    H139762   1.548   0.298   7.883 -0.2689  1.2903  1.6147
 5189TIP3    H239763   1.426   0.262   7.801  1.6759  0.6443 -1.1274
 5190TIP3   OH239764   7.215   2.295   7.115 -0.1085  0.4328 -0.2344
 5190TIP3    H139765   7.232   2.329   7.027  0.6990  0.8996  0.0908
 5190TIP3    H239766   7.149   2.353   7.151 -1.0045 -0.2082 -0.7900
 5191TIP3   OH239767   4.653   6.986   8.687 -0.4202 -0.0594 -0.2704
 5191TIP3    H139768   4.621   7.076   8.678  3.7485  1.6054 -0.5569
 5191TIP3    H239769   4.656   6.971   8.782  0.1779  0.6573 -0.1726
 5192TIP3   OH239770   1.843   1.511   8.980 -0.3567  0.4633  0.5518
 5192TIP3    H139771   1.876   1.587   8.933  1.3761 -0.5092  0.1254
 5192TIP3    H239772   1.748   1.526   8.987 -0.4786  1.2837 -2.0300
 5193TIP3   OH239773   2.403   1.892   7.885 -0.6315  0.0473  0.1184
 5193TIP3    H139774   2.498   1.884   7.877 -0.3685  1.5910  1.1765
 5193TIP3    H239775   2.385   1.984   7.865 -1.8609 -0.1396  0.2837
 5194TIP3   OH239776   3.279   4.647   7.202 -0.0534  0.0091  0.0681
 5194TIP3    H139777   3.352   4.704   7.226 -0.8011  1.2951 -0.6000
 5194TIP3    H239778   3.320   4.562   7.185  1.2779  0.6677 -0.1872
 5195TIP3   OH239779   0.306   7.037   8.664 -0.1539 -0.2966  0.7182
 5195TIP3    H139780   0.294   7.116   8.611  0.5878  0.7766  2.0760
 5195TIP3    H239781   0.218   7.001   8.674 -0.6471  0.8627  0.7845
 5196TIP3   OH239782   7.461   2.446   8.828 -0.0794  0.0238  0.2065
 5196TIP3    H139783   7.541   2.498   8.841  0.9673 -0.8236 -2.2827
 5196TIP3    H239784   7.492   2.357   8.812 -1.4722 -0.2348 -1.3262
 5197TIP3   OH239785   0.625   2.634   9.176 -0.3928 -0.0581  0.7254
 5197TIP3    H139786   0.704   2.687   9.171  0.8969 -1.7200  2.3792
 5197TIP3    H239787   0.597   2.641   9.267 -1.9442  0.1551  0.2663
 5198TIP3   OH239788   4.897   3.391   8.897  0.0586 -0.1022 -0.3171
 5198TIP3    H139789   4.824   3.435   8.853 -0.1292 -0.1938 -0.0981
 5198TIP3    H239790   4.918   3.317   8.841  0.0479 -0.0192 -0.4314
 5199TIP3   OH239791   0.877   5.157   8.586 -0.4133  0.3726  0.0197
 5199TIP3    H139792   0.786   5.129   8.575 -0.5120  0.5413  0.3695
 5199TIP3    H239793   0.902   5.193   8.501 -0.3154 -0.6699 -0.4069
 5200TIP3   OH239794   5.638   6.388   9.143 -0.3769 -0.5054 -0.2389
 5200TIP3    H139795   5.598   6.382   9.230 -0.1901 -1.3979 -0.2047
 5200TIP3    H239796   5.576   6.440   9.092 -0.2265  0.4925  0.5672
 5201TIP3   OH239797   6.601   2.359   6.679 -0.0339 -0.4924 -0.3356
 5201TIP3    H139798   6.671   2.364   6.743 -0.4170 -1.5431  0.1902
 5201TIP3    H239799   6.559   2.445   6.683  0.5268 -0.2364  0.1577
 5202TIP3   OH239800   6.265   5.116   9.033 -0.3667 -0.2518  0.2560
 5202TIP3    H139801   6.186   5.128   9.085 -1.1470  0.6709 -1.1019
 5202TIP3    H239802   6.314   5.197   9.046 -1.8840  1.2566 -2.5732
 5203TIP3   OH239803   3.888   4.367   8.006  0.2782 -0.1959 -0.1389
 5203TIP3    H139804   3.822   4.392   8.071  0.3394 -0.3341 -0.0234
 5203TIP3    H239805   3.955   4.320   8.056 -0.0286 -0.9373 -0.4156
 5204TIP3   OH239806   4.440   5.144   9.449 -0.4557  0.1116 -0.4889
 5204TIP3    H139807   4.516   5.086   9.448  2.1995  3.2511  1.3390
 5204TIP3    H239808   4.383   5.107   9.516 -0.0766 -1.7027 -1.1046
 5205TIP3   OH239809   7.512   6.309   7.975  0.4380  0.0043  0.5539
 5205TIP3    H139810   7.563   6.301   7.894  1.4367 -0.2237  1.1810
 5205TIP3    H239811   7.531   6.229   8.023 -0.4635 -0.0446  0.8468
 5206TIP3   OH239812   2.994   2.077   9.176  0.6319  0.3029 -0.3792
 5206TIP3    H139813   3.036   2.118   9.252  1.0292  1.5504 -1.2351
 5206TIP3    H239814   2.958   1.995   9.210 -0.4861  1.5017  1.5135
 5207TIP3   OH239815   5.672   4.360   7.499 -0.3352 -0.1656 -0.8625
 5207TIP3    H139816   5.669   4.453   7.478 -1.1621 -0.4043 -1.8945
 5207TIP3    H239817   5.650   4.356   7.592  0.1723  0.7030 -0.6951
 5208TIP3   OH239818   6.039   5.967   9.369 -0.0212  0.0139  0.1894
 5208TIP3    H139819   5.993   5.919   9.439 -0.8403 -1.0736 -1.0496
 5208TIP3    H239820   5.972   5.982   9.303  0.8597  0.5902 -0.5882
 5209TIP3   OH239821   5.872   2.687   9.352  0.4368 -0.1536 -0.0344
 5209TIP3    H139822   5.929   2.644   9.416  0.6681  2.0525  1.3249
 5209TIP3    H239823   5.928   2.704   9.277  0.3799 -1.9854 -0.5444
 5210TIP3   OH239824   1.384   4.596   8.210 -0.1393  0.0854 -0.2970
 5210TIP3    H139825   1.396   4.642   8.127 -2.1691  1.1533 -0.0665
 5210TIP3    H239826   1.338   4.515   8.186 -1.2597  0.6654 -0.2155
 5211TIP3   OH239827   3.618   2.653   7.479  0.0363  0.3421  0.2189
 5211TIP3    H139828   3.689   2.675   7.539  0.7174 -0.9517 -0.0884
 5211TIP3    H239829   3.582   2.571   7.513 -1.7337  1.2711  0.7211
 5212TIP3   OH239830   1.263   4.645   8.613 -0.2912 -0.2699  0.1673
 5212TIP3    H139831   1.183   4.599   8.640 -0.3115  0.6287  1.7933
 5212TIP3    H239832   1.232   4.725   8.571 -0.2678 -0.1139  0.4395
 5213TIP3   OH239833   7.359   7.063   8.740  0.1880  0.3220 -0.0289
 5213TIP3    H139834   7.364   7.026   8.828  1.6530  0.2298 -0.1312
 5213TIP3    H239835   7.266   7.056   8.716  0.2642 -2.7755  0.1876
 5214TIP3   OH239836   1.634   7.139   8.815 -0.4534  0.2978  0.1899
 5214TIP3    H139837   1.682   7.219   8.834  1.2539 -0.2158 -1.6838
 5214TIP3    H239838   1.607   7.107   8.901  1.4422  1.3123  1.2268
 5215TIP3   OH239839   4.161   7.228   7.971  0.0452  0.2976  0.0379
 5215TIP3    H139840   4.097   7.235   7.900 -1.0664  0.7616  1.0676
 5215TIP3    H239841   4.219   7.304   7.959 -0.3505  0.5692 -0.1645
 5216TIP3   OH239842   2.174   2.555   8.047  0.2992  0.2350  0.1422
 5216TIP3    H139843   2.104   2.504   8.009  0.4816 -0.3671  0.6058
 5216TIP3    H239844   2.153   2.646   8.025 -0.0729 -0.0287 -0.5963
 5217TIP3   OH239845   7.070   2.079   7.989  0.1083  0.3114 -0.2374
 5217TIP3    H139846   7.011   2.143   8.028  0.7330  0.9748 -0.3653
 5217TIP3    H239847   7.112   2.035   8.063  1.0250  1.3165 -0.1416
 5218TIP3   OH239848   5.326   0.924   7.749 -0.1612  0.6809  0.2612
 5218TIP3    H139849   5.415   0.889   7.740 -0.1410  0.3731  1.4959
 5218TIP3    H239850   5.328   1.008   7.702  0.6841  0.5108 -0.0178
 5219TIP3   OH239851   3.957   1.309   8.335 -0.0472  0.1765 -0.0479
 5219TIP3    H139852   4.041   1.293   8.376  0.4748  0.8475 -0.8232
 5219TIP3    H239853   3.952   1.405   8.326 -1.0719  0.1703  0.3750
 5220TIP3   OH239854   4.233   1.741   9.241  0.0934  0.5054 -0.3740
 5220TIP3    H139855   4.268   1.661   9.203 -1.0370  0.1587 -0.7108
 5220TIP3    H239856   4.241   1.728   9.336 -0.4835 -0.1956 -0.4144
 5221TIP3   OH239857   7.209   7.527   8.387 -0.3961  0.1143 -0.3238
 5221TIP3    H139858   7.122   7.539   8.350  0.4072  0.8218 -2.0799
 5221TIP3    H239859   7.229   7.434   8.371 -0.0641  0.4087 -1.7198
 5222TIP3   OH239860   6.665   3.563   7.083  0.4240 -0.4728 -0.2429
 5222TIP3    H139861   6.718   3.642   7.086  0.4255 -0.4596 -0.5740
 5222TIP3    H239862   6.574   3.595   7.090  0.4473 -0.4777  0.0855
 5223TIP3   OH239863   6.762   6.542   8.792 -0.3982  0.7184 -0.5940
 5223TIP3    H139864   6.726   6.619   8.837 -2.7227  0.2873 -1.5674
 5223TIP3    H239865   6.759   6.473   8.858  0.4408  1.1261 -0.1143
 5224TIP3   OH239866   5.377   6.351   8.986 -0.1407 -0.5361  0.1376
 5224TIP3    H139867   5.462   6.309   8.991 -0.0971 -0.3422  4.6232
 5224TIP3    H239868   5.316   6.286   9.020 -1.5475  0.0004 -1.2253
 5225TIP3   OH239869   7.092   3.273   8.259  0.5327  0.1187 -0.3369
 5225TIP3    H139870   7.105   3.199   8.318 -2.5093  1.0640  1.7863
 5225TIP3    H239871   7.155   3.339   8.288  0.4202 -0.1668  0.5930
 5226TIP3   OH239872   3.564   4.785   8.854 -0.2338 -0.0037  0.1114
 5226TIP3    H139873   3.635   4.733   8.892  0.3660  1.6648  1.3815
 5226TIP3    H239874   3.484   4.744   8.888  0.1449 -1.0934 -0.2671
 5227TIP3   OH239875   3.579   7.080   7.384  0.1022 -0.2506  0.1461
 5227TIP3    H139876   3.579   6.989   7.356  0.7726 -0.1727 -0.1308
 5227TIP3    H239877   3.667   7.094   7.420  0.1702  0.4139 -0.2530
 5228TIP3   OH239878   6.617   5.448   8.946  0.0539 -0.4419 -0.1991
 5228TIP3    H139879   6.593   5.538   8.922  0.0379 -0.2335  0.5425
 5228TIP3    H239880   6.711   5.453   8.966  0.2067 -0.7458 -0.8345
 5229TIP3   OH239881   3.340   4.971   8.830  0.5022 -0.7161  0.3516
 5229TIP3    H139882   3.435   4.976   8.822  0.5812  0.1705  1.5691
 5229TIP3    H239883   3.313   5.059   8.857 -0.3984 -1.5277  2.2904
 5230TIP3   OH239884   1.143   3.565   8.873 -0.0542 -0.0706  0.1659
 5230TIP3    H139885   1.113   3.640   8.822 -0.2909  0.2348  0.7418
 5230TIP3    H239886   1.064   3.514   8.890 -0.1160  0.2383  0.8771
 5231TIP3   OH239887   0.359   5.158   9.624 -0.0336  0.3693 -0.4067
 5231TIP3    H139888   0.408   5.100   9.566 -0.0207 -0.9592  0.8735
 5231TIP3    H239889   0.301   5.207   9.566  0.5998 -0.2699 -1.6205
 5232TIP3   OH239890   0.417   3.767   8.133  0.1693 -0.2124  0.4506
 5232TIP3    H139891   0.416   3.695   8.071  0.8780 -0.2228  0.4471
 5232TIP3    H239892   0.357   3.832   8.096 -1.3188 -1.2272  0.9853
 5233TIP3   OH239893   5.837   7.101   6.874  0.5533 -0.2164 -0.1552
 5233TIP3    H139894   5.922   7.146   6.875  1.2613 -1.5016 -0.2443
 5233TIP3    H239895   5.783   7.152   6.934  1.4525  0.5172  0.0569
 5234TIP3   OH239896   6.003   0.931   7.318 -0.2610  0.5739  0.3436
 5234TIP3    H139897   5.923   0.882   7.297 -0.7249  0.6496  1.8509
 5234TIP3    H239898   6.016   0.990   7.244 -0.3810 -0.9462 -0.9400
 5235TIP3   OH239899   0.643   7.197   9.148  0.3347  0.2108  0.1750
 5235TIP3    H139900   0.635   7.154   9.063  0.2008 -0.9965  0.7790
 5235TIP3    H239901   0.735   7.187   9.171 -0.0747 -1.5754  1.2151
 5236TIP3   OH239902   1.746   1.788   8.377 -0.2277  0.0794 -0.4306
 5236TIP3    H139903   1.702   1.708   8.407 -0.8946  0.6081  0.0224
 5236TIP3    H239904   1.836   1.760   8.360 -0.1097 -0.5103  0.9887
 5237TIP3   OH239905   7.341   4.841   9.474 -0.5094  0.9236  0.2040
 5237TIP3    H139906   7.389   4.915   9.437 -0.9755  0.5965 -1.1269
 5237TIP3    H239907   7.355   4.847   9.568  3.1426  0.2091 -0.1173
 5238TIP3   OH239908   3.462   0.428   8.133  0.0038  0.1015 -0.1899
 5238TIP3    H139909   3.386   0.397   8.181 -0.1499 -0.2201 -0.6319
 5238TIP3    H239910   3.514   0.475   8.198 -0.1776 -0.3576  0.2976
 5239TIP3   OH239911   3.460   1.380   7.587 -0.4917  0.2699  0.1436
 5239TIP3    H139912   3.533   1.320   7.600 -0.8510 -0.4412 -0.9717
 5239TIP3    H239913   3.421   1.354   7.503 -2.2206  0.4046  0.8511
 5240TIP3   OH239914   4.037   5.374   8.229  0.5422 -0.5033 -0.0367
 5240TIP3    H139915   3.950   5.412   8.236  0.4043  0.3135 -3.9244
 5240TIP3    H239916   4.021   5.283   8.205  0.7427 -0.4233 -0.4824
 5241TIP3   OH239917   5.249   5.363   7.639 -0.1860 -0.0119  0.0641
 5241TIP3    H139918   5.221   5.271   7.631 -0.5716  0.1614 -0.6187
 5241TIP3    H239919   5.315   5.374   7.571  0.9094 -0.1652  1.0765
 5242TIP3   OH239920   4.975   5.750   8.213  0.5414  0.5492 -0.3518
 5242TIP3    H139921   4.901   5.690   8.212 -0.3385  1.6094 -2.2961
 5242TIP3    H239922   5.031   5.720   8.142  0.8765  1.0931 -0.3200
 5243TIP3   OH239923   6.628   7.657   7.984 -0.0743 -0.1261 -0.2026
 5243TIP3    H139924   6.677   7.575   7.987 -0.5833 -0.4243  0.1022
 5243TIP3    H239925   6.585   7.657   7.898 -0.0504 -0.1675 -0.2142
 5244TIP3   OH239926   1.176   2.866   9.222  0.2709  0.3362  0.3270
 5244TIP3    H139927   1.237   2.893   9.290  1.5473  0.6055 -0.8730
 5244TIP3    H239928   1.149   2.949   9.181  0.8288  0.0788 -0.5747
 5245TIP3   OH239929   5.086   4.904   7.846  0.2186  0.0287 -0.0412
 5245TIP3    H139930   5.147   4.917   7.919  0.2291 -1.2332  0.1965
 5245TIP3    H239931   4.999   4.913   7.886  0.2071  2.3937 -0.4875
 5246TIP3   OH239932   2.836   6.815   7.994 -0.9299  0.3936  0.0677
 5246TIP3    H139933   2.911   6.871   7.974  0.3999 -1.1075  0.6172
 5246TIP3    H239934   2.808   6.843   8.081  0.4549 -0.4861  0.8374
 5247TIP3   OH239935   4.817   5.303   8.696 -0.5950  0.5719 -0.2577
 5247TIP3    H139936   4.808   5.297   8.601 -2.3945  0.2711 -0.1059
 5247TIP3    H239937   4.750   5.366   8.723  0.5741  1.4343  0.7268
 5248TIP3   OH239938   1.680   0.614   9.404  0.9344 -0.2476  0.2273
 5248TIP3    H139939   1.641   0.552   9.342  0.2601 -0.3698  0.7657
 5248TIP3    H239940   1.747   0.562   9.449  0.3706 -0.5959  0.6780
 5249TIP3   OH239941   4.541   3.329   8.907 -0.2270 -0.4757 -0.5844
 5249TIP3    H139942   4.463   3.354   8.857 -0.3905 -0.5092 -0.3480
 5249TIP3    H239943   4.554   3.401   8.968 -1.9467 -1.8544  1.5788
 5250TIP3   OH239944   2.992   6.077   9.239 -0.1878 -0.1223  0.6287
 5250TIP3    H139945   3.045   6.130   9.300  0.4289  1.3304 -1.0770
 5250TIP3    H239946   3.057   6.031   9.186 -0.5239  1.4856 -1.3241
 5251TIP3   OH239947   6.977   0.483   9.054  0.2534 -0.3198  0.0610
 5251TIP3    H139948   7.021   0.556   9.009  0.7743  0.8766  2.3834
 5251TIP3    H239949   7.038   0.455   9.121 -1.0268 -1.1124  0.9418
 5252TIP3   OH239950   0.417   3.170   6.686 -0.2528 -0.1067  0.7644
 5252TIP3    H139951   0.438   3.080   6.712  1.1721 -0.4056 -1.1852
 5252TIP3    H239952   0.502   3.210   6.666 -1.0172  0.9198 -0.6502
 5253TIP3   OH239953   3.081   2.267   9.382  0.4657  0.1995 -0.2668
 5253TIP3    H139954   3.148   2.233   9.441 -0.2557  1.7045  1.5173
 5253TIP3    H239955   3.122   2.343   9.340  0.2606  0.4049 -0.0909
 5254TIP3   OH239956   2.492   5.501   7.686 -0.0622 -0.3116  0.8302
 5254TIP3    H139957   2.434   5.544   7.749  0.0940 -0.5941  1.1679
 5254TIP3    H239958   2.560   5.460   7.739  2.0521  2.2767  0.3387
 5255TIP3   OH239959   6.166   2.736   8.925 -0.2387 -0.3753  0.1201
 5255TIP3    H139960   6.145   2.647   8.897  0.7149 -0.6918  0.3670
 5255TIP3    H239961   6.129   2.792   8.856  1.1253 -1.0933 -1.2547
 5256TIP3   OH239962   5.132   7.414   8.188 -0.8750 -0.3172  0.0981
 5256TIP3    H139963   5.151   7.449   8.101 -1.1227 -1.4995 -0.4383
 5256TIP3    H239964   5.211   7.434   8.239 -1.2047  1.4620 -0.0346
 5257TIP3   OH239965   5.373   4.214   8.172  0.0293  0.5100  0.3825
 5257TIP3    H139966   5.438   4.146   8.161 -0.9179 -0.4405  0.5229
 5257TIP3    H239967   5.424   4.293   8.192  1.0900 -0.3339  1.1041
 5258TIP3   OH239968   2.466   5.905   8.158 -0.1075 -0.2944 -0.0599
 5258TIP3    H139969   2.557   5.881   8.140  0.4894 -0.8496  3.0536
 5258TIP3    H239970   2.471   5.989   8.204 -1.0016 -0.8988  1.2284
 5259TIP3   OH239971   1.688   4.598   8.939 -0.2651  0.1486 -0.0451
 5259TIP3    H139972   1.749   4.667   8.914 -0.3524 -0.2787 -1.5224
 5259TIP3    H239973   1.617   4.604   8.875 -0.4862 -1.0200  0.0695
 5260TIP3   OH239974   2.179   0.685   9.460  0.1738  0.0299  0.2836
 5260TIP3    H139975   2.127   0.608   9.437 -0.2381  0.9544 -2.2006
 5260TIP3    H239976   2.255   0.650   9.506 -1.7295 -1.5058  2.4917
 5261TIP3   OH239977   5.663   7.234   8.538  0.0405  0.0776  0.0100
 5261TIP3    H139978   5.677   7.328   8.533 -1.5427  0.5016  2.1526
 5261TIP3    H239979   5.714   7.206   8.614 -1.7736 -0.2280  1.1836
 5262TIP3   OH239980   0.873   3.953   7.817  0.7605 -0.0941 -0.3892
 5262TIP3    H139981   0.789   3.923   7.782 -0.2390  3.2613 -1.3395
 5262TIP3    H239982   0.879   3.913   7.904 -0.1030 -3.1103 -1.5941
 5263TIP3   OH239983   2.800   2.325   6.928 -0.1398  0.1958  0.1132
 5263TIP3    H139984   2.750   2.250   6.961 -2.4770  1.6291  0.0457
 5263TIP3    H239985   2.769   2.337   6.838 -0.1054  1.4643  0.2547
 5264TIP3   OH239986   4.607   0.704   6.766 -0.1985 -0.0710  0.2191
 5264TIP3    H139987   4.666   0.766   6.721 -1.0153  1.2179  0.8601
 5264TIP3    H239988   4.666   0.648   6.816  0.5378  0.6160  0.1520
 5265TIP3   OH239989   5.414   7.248   7.301  0.1081 -0.2125  0.4322
 5265TIP3    H139990   5.363   7.291   7.234  1.2158  2.6157  1.2488
 5265TIP3    H239991   5.354   7.185   7.341 -1.7542  0.8173 -0.6191
 5266TIP3   OH239992   5.700   7.663   8.411  0.0463  0.5108  0.2636
 5266TIP3    H139993   5.639   7.610   8.360  0.5126 -0.6162  0.8369
 5266TIP3    H239994   5.645   7.717   8.468 -0.4231 -0.1314  0.4259
 5267TIP3   OH239995   4.880   0.321   8.791 -0.1446  0.2441 -0.1137
 5267TIP3    H139996   4.973   0.304   8.801  0.0930 -0.3889 -2.6298
 5267TIP3    H239997   4.871   0.414   8.810  0.3719 -0.2951  3.3329
 5268TIP3   OH239998   2.733   3.995   8.870 -0.3506  0.1861 -0.2904
 5268TIP3    H139999   2.648   4.031   8.847  0.0219  0.6457 -0.9695
 5268TIP3    H240000   2.796   4.052   8.827  0.3629  0.6115  1.2341
 5269TIP3   OH240001   6.665   0.227   8.700  0.0077  0.0549  0.2873
 5269TIP3    H140002   6.733   0.239   8.766  0.4514  0.0374 -0.1597
 5269TIP3    H240003   6.713   0.212   8.619 -0.5219  0.9670 -0.2078
 5270TIP3   OH240004   0.673   5.750   9.649 -0.0121 -0.0676  0.2087
 5270TIP3    H140005   0.661   5.657   9.631 -0.0926 -0.2090  0.9572
 5270TIP3    H240006   0.748   5.776   9.594  0.9393 -0.9137  1.0700
 5271TIP3   OH240007   6.432   5.543   9.341  0.1262 -0.4907 -0.0692
 5271TIP3    H140008   6.391   5.628   9.328  0.0147 -0.6671 -0.9420
 5271TIP3    H240009   6.417   5.496   9.258  0.9970 -1.0129  0.0544
 5272TIP3   OH240010   1.846   2.486   7.353 -0.0100  0.1998  0.3152
 5272TIP3    H140011   1.938   2.508   7.361  0.5847 -1.3044 -1.5814
 5272TIP3    H240012   1.812   2.548   7.289 -0.3239  0.7148  0.9686
 5273TIP3   OH240013   0.299   3.752   6.307  0.2196  0.1369 -0.3285
 5273TIP3    H140014   0.379   3.797   6.335 -0.2469  0.3788  0.6680
 5273TIP3    H240015   0.240   3.823   6.279 -0.0864  0.0698  0.1231
 5274TIP3   OH240016   1.054   0.924   6.585  0.0188  0.3306 -0.1912
 5274TIP3    H140017   1.097   0.964   6.661  1.8602 -1.5216 -0.1803
 5274TIP3    H240018   1.093   0.969   6.510  0.6295 -0.0724 -0.1213
 5275TIP3   OH240019   5.333   1.071   6.611 -0.7971 -0.4865  0.1997
 5275TIP3    H140020   5.296   1.020   6.539 -1.2134 -1.2387  0.9339
 5275TIP3    H240021   5.392   1.010   6.655 -0.8079 -0.1322  0.7062
 5276TIP3   OH240022   2.111   6.428   7.542 -0.5206  0.3071 -0.5675
 5276TIP3    H140023   2.042   6.362   7.535  0.1330 -0.5313  0.5984
 5276TIP3    H240024   2.064   6.510   7.552 -1.3838 -0.3566  1.0826
 5277TIP3   OH240025   7.474   7.525   7.173 -0.3507  0.7578  0.6502
 5277TIP3    H140026   7.531   7.448   7.169 -0.0823  1.0036 -0.5833
 5277TIP3    H240027   7.462   7.541   7.266 -0.2023 -0.6239  0.9292
 5278TIP3   OH240028   4.914   2.190   8.489 -0.4690 -0.0742  0.0459
 5278TIP3    H140029   4.860   2.113   8.509 -1.9894  1.3092  1.5522
 5278TIP3    H240030   4.863   2.264   8.521  1.4876  1.4952 -0.2817
 5279TIP3   OH240031   3.056   2.283   6.859  0.3598 -0.2087 -0.0441
 5279TIP3    H140032   2.973   2.295   6.905 -0.4827 -0.4443 -1.4673
 5279TIP3    H240033   3.070   2.365   6.813  0.8754 -0.2138  0.0974
 5280TIP3   OH240034   2.142   3.765   8.159  0.4724  0.1352  0.2680
 5280TIP3    H140035   2.203   3.814   8.214  0.1787 -1.2684  1.9673
 5280TIP3    H240036   2.079   3.728   8.221  0.4356 -1.9893 -0.9435
 5281TIP3   OH240037   0.272   7.326   8.113  0.0198 -0.0229 -0.9451
 5281TIP3    H140038   0.341   7.347   8.050 -1.1686 -0.4632 -2.4418
 5281TIP3    H240039   0.303   7.247   8.157  0.5499 -0.1340 -1.5082
 5282TIP3   OH240040   2.462   5.576   7.083 -0.0555 -0.0377 -0.0765
 5282TIP3    H140041   2.440   5.580   6.990  1.8109  0.9654 -0.5280
 5282TIP3    H240042   2.505   5.659   7.102  0.8187 -0.7585  1.3365
 5283TIP3   OH240043   6.443   0.242   8.940 -0.3338 -0.2200  0.0601
 5283TIP3    H140044   6.449   0.304   8.867 -0.1543 -0.9701 -0.5755
 5283TIP3    H240045   6.527   0.249   8.985  0.2385 -1.0309 -0.8635
 5284TIP3   OH240046   3.244   2.697   6.985 -0.1439 -0.4718  0.0024
 5284TIP3    H140047   3.179   2.767   6.979 -0.3107 -0.6821 -0.6628
 5284TIP3    H240048   3.327   2.739   6.963 -0.2838 -0.5384 -0.6646
 5285TIP3   OH240049   0.749   7.616   8.663  0.3354  0.6154 -0.7750
 5285TIP3    H140050   0.811   7.666   8.609 -1.1701  2.1573 -1.1765
 5285TIP3    H240051   0.684   7.681   8.690 -0.0218 -0.5371  1.3039
 5286TIP3   OH240052   0.826   0.863   7.873 -0.5431  0.4552 -0.4855
 5286TIP3    H140053   0.765   0.850   7.800 -0.6802  0.0061 -0.2947
 5286TIP3    H240054   0.870   0.779   7.883  1.6540  1.3309 -1.9879
 5287TIP3   OH240055   3.709   2.395   9.133  0.1508 -0.0969  0.0351
 5287TIP3    H140056   3.689   2.430   9.220 -0.5587  0.6829 -0.4281
 5287TIP3    H240057   3.789   2.440   9.106  0.8616 -0.9640  0.6145
 5288TIP3   OH240058   0.767   5.546   8.929 -0.3504 -0.4522 -0.0180
 5288TIP3    H140059   0.683   5.569   8.968 -0.4201  1.5556 -1.2290
 5288TIP3    H240060   0.747   5.472   8.871 -1.2959  0.0044 -0.2917
 5289TIP3   OH240061   4.722   4.091   9.051  0.2608 -0.4745 -0.2508
 5289TIP3    H140062   4.779   4.165   9.028  1.1814 -1.1129 -0.1007
 5289TIP3    H240063   4.774   4.040   9.114 -0.7341 -0.7448  0.3768
 5290TIP3   OH240064   1.350   6.552   9.172  0.2330  0.5963 -0.2997
 5290TIP3    H140065   1.407   6.513   9.239  1.2633  1.2581 -0.7617
 5290TIP3    H240066   1.274   6.493   9.168  1.7608 -1.4742 -1.0423
 5291TIP3   OH240067   1.259   3.805   8.532 -0.1799 -0.8137  0.0369
 5291TIP3    H140068   1.179   3.804   8.479  1.1415 -1.2160 -2.0488
 5291TIP3    H240069   1.267   3.895   8.562 -1.8481 -0.9547  1.0298
 5292TIP3   OH240070   5.048   5.718   9.226 -0.4824 -0.2591 -0.7054
 5292TIP3    H140071   5.013   5.647   9.172  0.0707 -2.1896  1.3126
 5292TIP3    H240072   5.133   5.739   9.187 -1.7528  1.2535 -2.8929
 5293TIP3   OH240073   3.936   2.465   8.921  0.1201  0.1576 -0.5792
 5293TIP3    H140074   3.922   2.546   8.873 -0.4399  0.7076  0.4757
 5293TIP3    H240075   4.031   2.454   8.923  0.1547 -0.9919 -3.5492
 5294TIP3   OH240076   5.586   4.442   8.883 -0.0302  0.1820 -0.2427
 5294TIP3    H140077   5.608   4.356   8.917  1.8334  0.7169  0.0147
 5294TIP3    H240078   5.658   4.498   8.910 -0.4958  1.5266 -1.5974
 5295TIP3   OH240079   0.776   7.660   7.517 -0.2679  0.1033  0.3148
 5295TIP3    H140080   0.769   7.748   7.481 -0.7554  0.0617  0.2980
 5295TIP3    H240081   0.685   7.629   7.522 -0.1838 -0.0279  1.2415
 5296TIP3   OH240082   3.363   0.129   9.369  0.0308 -0.4670 -0.2210
 5296TIP3    H140083   3.443   0.102   9.323  0.9295 -0.9829  1.5626
 5296TIP3    H240084   3.354   0.067   9.440 -1.5337  0.0841  0.0967
 5297TIP3   OH240085   1.265   3.234   7.930  0.3469  0.0267 -0.1660
 5297TIP3    H140086   1.200   3.299   7.903  0.9990  0.2616 -1.2459
 5297TIP3    H240087   1.329   3.284   7.981  0.0081 -0.0807  0.3625
 5298TIP3   OH240088   5.212   7.102   7.916 -0.4979 -0.1470  0.1704
 5298TIP3    H140089   5.265   7.180   7.902  0.3096 -0.6862  0.1607
 5298TIP3    H240090   5.236   7.073   8.004 -0.2022 -0.8210 -0.1259
 5299TIP3   OH240091   4.875   1.283   8.142  0.1464  0.4542  0.1732
 5299TIP3    H140092   4.935   1.353   8.165 -1.9191  2.1199  0.7831
 5299TIP3    H240093   4.854   1.298   8.050  0.6965 -0.1815 -0.0667
 5300TIP3   OH240094   5.663   2.864   9.326 -0.0327  0.1911  0.0323
 5300TIP3    H140095   5.711   2.891   9.248  1.6575  1.2952  1.3539
 5300TIP3    H240096   5.716   2.792   9.363 -0.9520 -0.5001  0.0385
 5301TIP3   OH240097   2.881   4.157   8.140  0.0950 -0.0733 -0.3674
 5301TIP3    H140098   2.948   4.090   8.154 -0.6946 -0.9850 -0.8466
 5301TIP3    H240099   2.913   4.208   8.066  0.4281 -0.2739 -0.3637
 5302TIP3   OH240100   1.360   0.014   7.989  0.0223  0.2397 -0.2272
 5302TIP3    H140101   1.327   0.075   8.055  2.8195  1.8846 -0.2109
 5302TIP3    H240102   1.321   0.045   7.907  1.5511  2.3157 -0.2558
 5303TIP3   OH240103   1.747   7.362   7.467  0.3196  0.6048 -0.1919
 5303TIP3    H140104   1.808   7.427   7.432  1.3128  0.7623  1.6981
 5303TIP3    H240105   1.678   7.356   7.400  1.2236  2.1030 -1.3425
 5304TIP3   OH240106   3.626   1.894   7.688 -0.4100  0.6503 -0.2192
 5304TIP3    H140107   3.563   1.895   7.761  0.9715 -0.4755  1.0528
 5304TIP3    H240108   3.577   1.854   7.616 -0.6887 -2.0532  1.3083
 5305TIP3   OH240109   2.797   2.514   8.171  0.0054 -0.5475  0.1583
 5305TIP3    H140110   2.843   2.431   8.182  0.2523 -0.3127  0.9415
 5305TIP3    H240111   2.866   2.579   8.155 -0.1428 -0.3907  0.1466
 5306TIP3   OH240112   1.911   7.119   7.453  0.1937 -0.2274  0.2705
 5306TIP3    H140113   1.890   7.100   7.361  0.8205  0.3837 -0.0077
 5306TIP3    H240114   1.826   7.133   7.494 -0.0861 -0.3315 -0.2534
 5307TIP3   OH240115   6.079   4.119   9.725 -0.0312  0.6828 -0.3026
 5307TIP3    H140116   6.105   4.137   9.815  0.2330  1.8696 -0.5993
 5307TIP3    H240117   6.107   4.196   9.675 -0.6420  0.2854 -1.3105
 5308TIP3   OH240118   2.700   0.871   7.636 -0.2742  0.3218  0.0315
 5308TIP3    H140119   2.648   0.835   7.564 -0.6103  1.6994 -0.4610
 5308TIP3    H240120   2.643   0.937   7.676  1.7169  3.4560 -1.8830
 5309TIP3   OH240121   2.006   4.183   7.508  0.2860 -0.2309  0.4236
 5309TIP3    H140122   2.051   4.194   7.424 -1.0748 -1.6840 -0.5882
 5309TIP3    H240123   1.946   4.109   7.492 -0.4414 -0.1445  2.5070
 5310TIP3   OH240124   2.202   5.633   7.383  0.1824 -0.6483 -0.1381
 5310TIP3    H140125   2.235   5.560   7.434 -1.3287 -0.7251  0.7856
 5310TIP3    H240126   2.187   5.597   7.296  1.1126 -0.9646 -0.1789
 5311TIP3   OH240127   2.540   2.293   9.435  0.1542 -0.4617 -0.7400
 5311TIP3    H140128   2.619   2.242   9.454  0.0668  0.2001  1.8929
 5311TIP3    H240129   2.470   2.228   9.428  0.1845 -0.8655  1.7625
 5312TIP3   OH240130   6.681   1.520   8.445  0.3012  0.3459 -0.2208
 5312TIP3    H140131   6.625   1.583   8.491  1.0782 -1.8109  4.2269
 5312TIP3    H240132   6.628   1.440   8.441  1.6793 -0.6539  0.6735
 5313TIP3   OH240133   0.560   4.059   8.869  0.2928 -0.8210  0.0419
 5313TIP3    H140134   0.480   4.113   8.865 -0.3230 -1.7368 -0.5491
 5313TIP3    H240135   0.621   4.110   8.920 -0.4791  0.1803 -0.0040
 5314TIP3   OH240136   3.563   6.652   6.570 -0.4435 -0.1224 -0.1000
 5314TIP3    H140137   3.474   6.665   6.601 -1.1443 -1.4369 -1.4606
 5314TIP3    H240138   3.568   6.703   6.489 -0.3892 -1.1135 -0.7290
 5315TIP3   OH240139   4.914   2.750   6.597  0.0425 -0.5324  0.0149
 5315TIP3    H140140   4.888   2.730   6.687  0.8719 -0.6320  0.2383
 5315TIP3    H240141   4.926   2.664   6.557  0.6465 -0.4875  0.0973
 5316TIP3   OH240142   0.463   5.701   7.528 -1.0467 -0.2576 -0.4130
 5316TIP3    H140143   0.397   5.631   7.527 -2.8577  1.3686 -1.3040
 5316TIP3    H240144   0.469   5.730   7.438 -0.7292  1.0879  0.0218
 5317TIP3   OH240145   1.571   4.091   9.317 -0.1648 -0.2078 -0.2375
 5317TIP3    H140146   1.657   4.056   9.337  0.0705  0.6029  0.2255
 5317TIP3    H240147   1.579   4.127   9.229 -0.7753 -2.4176 -1.2735
 5318TIP3   OH240148   3.235   1.624   8.530 -0.3759 -0.0834  0.6698
 5318TIP3    H140149   3.208   1.646   8.619 -1.1924 -0.2495  0.4741
 5318TIP3    H240150   3.319   1.579   8.540 -0.3726  0.0677  1.3347
 5319TIP3   OH240151   0.039   2.527   6.756 -0.2618 -0.1106  0.0599
 5319TIP3    H140152  -0.038   2.475   6.779 -0.8270  0.8054  0.3010
 5319TIP3    H240153   0.003   2.605   6.714  0.5666  0.0798 -0.3020
 5320TIP3   OH240154   1.477   4.767   7.678 -0.2630  0.0971 -0.5462
 5320TIP3    H140155   1.435   4.790   7.595 -2.2798 -0.0704  0.3661
 5320TIP3    H240156   1.482   4.850   7.726  0.5940  0.1369 -0.6974
 5321TIP3   OH240157   1.845   6.086   8.969  0.6563 -0.0534 -0.0456
 5321TIP3    H140158   1.848   6.009   8.911 -0.9370 -0.5032  0.4317
 5321TIP3    H240159   1.792   6.058   9.043  1.1305  1.1161  0.7592
 5322TIP3   OH240160   3.093   4.557   8.179  0.1592 -0.0772 -0.1426
 5322TIP3    H140161   3.094   4.620   8.251 -0.9698 -1.2868  0.9775
 5322TIP3    H240162   3.007   4.568   8.138 -0.6824 -1.8933  1.0357
 5323TIP3   OH240163   1.673   5.730   7.141  0.3441 -0.0436 -0.0381
 5323TIP3    H140164   1.731   5.718   7.066  2.7196 -0.4685  1.7507
 5323TIP3    H240165   1.730   5.719   7.217 -2.0241  0.0253  1.8522
 5324TIP3   OH240166   4.141   4.963   7.359  0.0973  0.1699 -0.3823
 5324TIP3    H140167   4.054   4.991   7.331  0.1818 -0.4517 -1.3395
 5324TIP3    H240168   4.173   4.909   7.287  1.9933  1.7776 -0.8499
 5325TIP3   OH240169   4.173   4.794   8.669 -0.2593 -0.6520 -0.2031
 5325TIP3    H140170   4.211   4.874   8.634 -0.0270 -1.3116 -1.4982
 5325TIP3    H240171   4.156   4.814   8.761  3.0975 -0.2611  0.4683
 5326TIP3   OH240172   5.287   1.902   7.186  0.8372  0.0080 -0.4350
 5326TIP3    H140173   5.376   1.874   7.163  0.5665  0.0910 -1.6566
 5326TIP3    H240174   5.269   1.974   7.125  0.0491  0.1942  0.0131
 5327TIP3   OH240175   2.372   2.706   8.496  0.4498 -0.1777 -0.0799
 5327TIP3    H140176   2.381   2.650   8.419  2.0869  0.8592 -0.6971
 5327TIP3    H240177   2.350   2.645   8.567  0.2304 -1.3282 -1.0979
 5328TIP3   OH240178   5.597   2.592   7.382 -0.2207  0.6338 -0.3848
 5328TIP3    H140179   5.563   2.640   7.307  1.5508  0.4399 -1.3466
 5328TIP3    H240180   5.668   2.646   7.415  2.3079 -1.5076 -1.9172
 5329TIP3   OH240181   4.792   4.743   8.276 -1.3013  0.1041 -0.0668
 5329TIP3    H140182   4.848   4.815   8.248 -2.3160  0.3198 -1.6890
 5329TIP3    H240183   4.809   4.734   8.369  2.0200 -0.3956 -0.6076
 5330TIP3   OH240184   4.762   0.341   7.098  0.1190 -0.0713 -0.2101
 5330TIP3    H140185   4.700   0.322   7.168  1.5162  0.1245  1.1540
 5330TIP3    H240186   4.761   0.263   7.043  1.0700 -1.5153  1.6953
 5331TIP3   OH240187   3.454   2.557   9.514  0.3259  0.2094 -0.0091
 5331TIP3    H140188   3.448   2.461   9.513  0.3921  0.1719 -2.0373
 5331TIP3    H240189   3.411   2.583   9.595 -1.3078 -1.4689 -0.2646
 5332TIP3   OH240190   7.044   4.074   8.155 -0.0358  0.4707  0.1731
 5332TIP3    H140191   7.072   3.996   8.107  2.5187  0.1740  1.9646
 5332TIP3    H240192   7.075   4.147   8.101  0.9157  0.1688  0.2851
 5333TIP3   OH240193   6.290   2.446   9.091  0.5688 -0.3349  0.5935
 5333TIP3    H140194   6.258   2.359   9.066 -0.2320 -0.1897  1.0732
 5333TIP3    H240195   6.348   2.472   9.019 -1.8874  0.2116 -1.3689
 5334TIP3   OH240196   1.051   3.281   9.649  0.1118  0.1287 -0.2422
 5334TIP3    H140197   1.042   3.255   9.557  1.2274 -0.5601 -0.1839
 5334TIP3    H240198   1.145   3.292   9.661 -0.0177  0.1378  0.8366
 5335TIP3   OH240199   5.004   1.228   7.747 -0.1936 -0.6475 -0.2315
 5335TIP3    H140200   4.990   1.221   7.652  0.4888 -2.0350 -0.2573
 5335TIP3    H240201   4.971   1.315   7.770 -0.2763 -0.2454 -1.7616
 5336TIP3   OH240202   4.091   0.018   8.043 -0.1258  0.1387 -0.2295
 5336TIP3    H140203   4.012   0.051   8.085  0.6560  2.0516 -0.1332
 5336TIP3    H240204   4.144  -0.016   8.115 -0.2763  0.1192 -0.1267
 5337TIP3   OH240205   7.021   4.835   8.076  0.8142 -0.4776 -0.7294
 5337TIP3    H140206   7.025   4.754   8.127  0.8985 -0.4207 -0.6479
 5337TIP3    H240207   7.053   4.903   8.134 -1.2780 -0.0057 -0.0485
 5338TIP3   OH240208   0.805   3.601   8.918 -0.2838  0.2588 -0.7051
 5338TIP3    H140209   0.762   3.583   8.834 -0.1762 -0.5932 -0.5898
 5338TIP3    H240210   0.779   3.690   8.940  0.6464  0.9468 -2.2260
 5339TIP3   OH240211   4.618   5.379   9.346 -0.1488  0.1599 -0.0213
 5339TIP3    H140212   4.561   5.308   9.314 -0.1872 -0.2485  0.9336
 5339TIP3    H240213   4.659   5.343   9.424  1.2582  0.5345 -0.5660
 5340TIP3   OH240214   4.987   4.615   7.226  0.2802  0.9532  0.2235
 5340TIP3    H140215   4.921   4.615   7.156 -0.1756  1.9553  0.6332
 5340TIP3    H240216   4.936   4.606   7.306  0.2791  4.5745  0.7997
 5341TIP3   OH240217   7.011   1.558   8.448 -0.6031 -1.1116  0.0943
 5341TIP3    H140218   6.951   1.540   8.521 -0.8888  0.0737  0.1842
 5341TIP3    H240219   7.096   1.529   8.480 -0.7966 -0.9919  0.7468
 5342TIP3   OH240220   5.915   5.511   8.213  0.2681 -0.0323  0.3212
 5342TIP3    H140221   5.840   5.531   8.156  0.7468  3.5283  0.7318
 5342TIP3    H240222   5.906   5.572   8.286  1.8308 -1.7982  2.0950
 5343TIP3   OH240223   5.332   6.848   8.919  0.4050 -0.8398 -0.5277
 5343TIP3    H140224   5.404   6.809   8.968  0.0985 -0.7978 -0.0273
 5343TIP3    H240225   5.356   6.837   8.827  0.4319 -2.0184 -0.4039
 5344TIP3   OH240226   5.376   0.346   7.543 -0.0889 -0.2710  0.0312
 5344TIP3    H140227   5.427   0.376   7.618  2.9772  1.3075 -2.4606
 5344TIP3    H240228   5.317   0.420   7.524  1.6102  0.8567 -1.1172
 5345TIP3   OH240229   0.127   4.432   8.944  0.8145  0.4717 -0.3044
 5345TIP3    H140230   0.137   4.527   8.935 -0.0028  0.4500 -1.7994
 5345TIP3    H240231   0.069   4.422   9.019 -1.8433  1.3812 -2.0774
 5346TIP3   OH240232   3.546   4.163   8.113 -0.0765 -0.2428 -0.2105
 5346TIP3    H140233   3.619   4.101   8.113  1.5255  1.5392  0.8586
 5346TIP3    H240234   3.538   4.191   8.204 -2.1824 -0.3990 -0.2792
 5347TIP3   OH240235   1.759   3.766   7.249  0.1264 -0.0749 -0.5533
 5347TIP3    H140236   1.836   3.817   7.222 -0.3513 -0.4286 -2.7640
 5347TIP3    H240237   1.770   3.682   7.204  0.8449 -2.0267  2.9165
 5348TIP3   OH240238   6.833   3.434   7.320 -0.0774  0.0443 -0.3693
 5348TIP3    H140239   6.888   3.377   7.374 -0.3745 -1.3982 -1.5224
 5348TIP3    H240240   6.895   3.490   7.275  0.4915 -1.3950 -1.4641
 5349TIP3   OH240241   4.834   2.983   8.462  0.2006 -0.8517 -0.0749
 5349TIP3    H140242   4.811   3.075   8.450 -1.4272 -1.4673 -2.6643
 5349TIP3    H240243   4.926   2.984   8.490  0.2086  1.5351 -0.0183
 5350TIP3   OH240244   1.064   6.399   7.714  0.0744 -0.1507 -0.1942
 5350TIP3    H140245   1.016   6.316   7.717 -0.5084  0.1866  0.0711
 5350TIP3    H240246   1.044   6.435   7.628 -0.5336  0.2089  0.0936
 5351TIP3   OH240247   2.511   3.790   8.647 -0.3573 -0.4920  0.1102
 5351TIP3    H140248   2.578   3.785   8.580 -0.6880 -0.8063 -0.2018
 5351TIP3    H240249   2.443   3.846   8.609 -0.3298 -0.2747  0.3746
 5352TIP3   OH240250   2.028   1.863   8.509  0.0590 -0.4085 -0.1830
 5352TIP3    H140251   2.071   1.852   8.424  2.9087  1.6326  0.8423
 5352TIP3    H240252   2.100   1.868   8.572 -1.9012 -0.3621  2.1859
 5353TIP3   OH240253   6.704   7.581   7.101  0.0929  0.1835 -0.0825
 5353TIP3    H140254   6.752   7.624   7.171  0.6560  0.9904 -0.9484
 5353TIP3    H240255   6.735   7.490   7.104 -0.1564  0.1109  0.9266
 5354TIP3   OH240256   0.756   1.868   7.570  0.5295  0.2726 -0.1910
 5354TIP3    H140257   0.810   1.835   7.642  0.4141 -0.7189 -0.5315
 5354TIP3    H240258   0.788   1.822   7.493 -0.4483  0.0497 -0.4857
 5355TIP3   OH240259   6.118   5.549   8.574 -0.5365 -0.2290  0.8225
 5355TIP3    H140260   6.116   5.601   8.655 -0.7259  0.1308  0.5894
 5355TIP3    H240261   6.027   5.548   8.544 -0.1526  1.4626 -0.5367
 5356TIP3   OH240262   4.106   1.284   9.152 -0.2971  0.2670 -0.2805
 5356TIP3    H140263   4.056   1.295   9.233  0.2493  1.3319 -0.0748
 5356TIP3    H240264   4.148   1.368   9.138  0.2576 -0.1568 -1.2504
 5357TIP3   OH240265   4.530   2.360   9.190  0.0761  0.1839 -0.9239
 5357TIP3    H140266   4.563   2.448   9.211 -1.0579  0.3414  0.2882
 5357TIP3    H240267   4.608   2.305   9.192  0.7955  1.1329 -1.6256
 5358TIP3   OH240268   1.330   2.406   8.084  0.1803  0.1574  0.3048
 5358TIP3    H140269   1.417   2.445   8.082 -0.1316  0.8872  0.8703
 5358TIP3    H240270   1.270   2.480   8.087 -0.5228 -0.3055 -1.3479
 5359TIP3   OH240271   5.608   6.986   9.324 -0.1745  0.3648  0.4254
 5359TIP3    H140272   5.648   7.002   9.409 -0.3482  1.6089  0.2882
 5359TIP3    H240273   5.578   6.895   9.329  0.8393  0.0544  1.2583
 5360TIP3   OH240274   1.821   2.045   6.577  0.3407  0.2535 -0.3323
 5360TIP3    H140275   1.790   2.135   6.568  2.4943  1.4060  2.4493
 5360TIP3    H240276   1.741   1.995   6.596 -0.9185  1.4496 -2.0823
 5361TIP3   OH240277   6.109   1.379   8.157  0.1751  0.3131 -0.2409
 5361TIP3    H140278   6.106   1.286   8.134  2.7812 -0.1130  0.8737
 5361TIP3    H240279   6.026   1.395   8.203 -1.8509 -0.5475 -3.2513
 5362TIP3   OH240280   2.729   0.473   7.530 -0.1861  0.1569 -0.2367
 5362TIP3    H140281   2.647   0.428   7.512  1.6371 -3.6433 -0.1495
 5362TIP3    H240282   2.758   0.504   7.444 -1.3848  0.9899 -0.3602
 5363TIP3   OH240283   0.249   3.217   9.434 -0.2008 -0.1345  0.1289
 5363TIP3    H140284   0.218   3.202   9.524 -0.0730 -1.5436 -0.0443
 5363TIP3    H240285   0.203   3.296   9.406 -1.2880 -0.4409  0.9631
 5364TIP3   OH240286   4.592   7.616   9.581  0.4370 -0.1861 -0.3625
 5364TIP3    H140287   4.560   7.561   9.653  0.1436 -0.1323 -0.4497
 5364TIP3    H240288   4.531   7.690   9.578  1.0102  0.3151 -0.0381
 5365TIP3   OH240289   6.602   2.186   8.310  0.2971 -0.1529 -0.3782
 5365TIP3    H140290   6.552   2.227   8.240 -0.2229  1.5445  0.9096
 5365TIP3    H240291   6.543   2.189   8.386  0.8179 -1.9947  0.1343
 5366TIP3   OH240292   2.048   1.111   9.065 -0.1184 -0.5422 -0.6825
 5366TIP3    H140293   1.967   1.160   9.064  0.8464  1.1138 -0.8138
 5366TIP3    H240294   2.022   1.021   9.085 -1.8873  0.0848 -0.0419
 5367TIP3   OH240295   5.241   2.169   7.756  0.3071 -0.0018  0.3125
 5367TIP3    H140296   5.243   2.076   7.738 -0.2234 -0.0667  0.5685
 5367TIP3    H240297   5.180   2.205   7.692 -0.7537 -0.0793  1.2473
 5368TIP3   OH240298   2.205   7.156   9.327 -0.2423 -0.4299  0.7433
 5368TIP3    H140299   2.274   7.216   9.298  0.0114 -1.1197 -0.1059
 5368TIP3    H240300   2.131   7.213   9.349  0.1593  0.2220  0.4222
 5369TIP3   OH240301   3.153   6.830   6.832 -0.9436 -0.0329  0.0143
 5369TIP3    H140302   3.132   6.922   6.813 -1.1178 -0.2932 -1.1254
 5369TIP3    H240303   3.096   6.807   6.905 -2.2950  0.2290 -0.9188
 5370TIP3   OH240304   3.097   7.399   8.824 -0.1569  0.0933 -0.2232
 5370TIP3    H140305   3.105   7.391   8.729 -1.1528 -0.4782 -0.2697
 5370TIP3    H240306   3.178   7.442   8.851  1.0314 -1.4674 -1.1105
 5371TIP3   OH240307   2.919   4.918   9.463 -0.0960 -0.3178 -0.1695
 5371TIP3    H140308   3.003   4.891   9.426  0.2793 -0.3211  0.6623
 5371TIP3    H240309   2.875   4.835   9.483 -0.1224 -0.3166 -0.2246
 5372TIP3   OH240310   2.435   2.500   8.036  0.2123 -0.2430  0.0349
 5372TIP3    H140311   2.342   2.520   8.045  0.5147  0.5606  1.5172
 5372TIP3    H240312   2.474   2.524   8.120  2.3071  2.5179 -1.5439
 5373TIP3   OH240313   4.499   4.889   8.575 -0.5707 -0.1152  0.3085
 5373TIP3    H140314   4.466   4.799   8.566  0.6982 -0.4635 -1.3924
 5373TIP3    H240315   4.564   4.897   8.505  1.3770  1.2316  2.1769
 5374TIP3   OH240316   2.728   2.798   6.783  0.5198  0.3794 -0.3579
 5374TIP3    H140317   2.795   2.735   6.810  1.8999  2.3875  1.3071
 5374TIP3    H240318   2.653   2.779   6.839  0.3036 -0.8131 -1.0357
 5375TIP3   OH240319   5.144   0.435   8.971 -0.1464  0.6066  0.3107
 5375TIP3    H140320   5.106   0.460   9.054  0.6993 -0.3744  1.0206
 5375TIP3    H240321   5.233   0.470   8.973 -0.2769  1.0049 -0.3944
 5376TIP3   OH240322   0.443   6.619   8.645  0.9231 -0.0307 -0.3673
 5376TIP3    H140323   0.431   6.701   8.692 -0.1687 -0.2137 -0.2898
 5376TIP3    H240324   0.397   6.632   8.562 -0.5384 -1.0392  0.2403
 5377TIP3   OH240325   5.525   4.893   7.740 -0.3961  0.5160  0.0656
 5377TIP3    H140326   5.522   4.944   7.659 -0.0078  1.8561  0.8621
 5377TIP3    H240327   5.445   4.840   7.738  0.5188 -0.9094 -2.0687
 5378TIP3   OH240328   1.387   5.168   7.201 -0.3051  0.0750  0.2616
 5378TIP3    H140329   1.340   5.100   7.248  1.3298 -0.2730  1.4961
 5378TIP3    H240330   1.472   5.128   7.181  0.1548  1.2782 -0.2542
 5379TIP3   OH240331   6.933   4.992   9.053 -0.0698  0.6937  0.0800
 5379TIP3    H140332   6.872   5.064   9.066 -0.5812  0.5265 -1.2022
 5379TIP3    H240333   6.953   4.994   8.959  2.2031  0.9717  0.5141
 5380TIP3   OH240334   3.652   2.715   7.778  0.3653  0.3574  0.0318
 5380TIP3    H140335   3.638   2.703   7.872 -1.0052  0.9911 -0.0644
 5380TIP3    H240336   3.639   2.809   7.764 -0.5109  0.1062 -0.9496
 5381TIP3   OH240337   2.006   6.461   8.733  0.3655  0.3574 -0.4801
 5381TIP3    H140338   2.011   6.437   8.826 -0.6414  2.1261  0.0737
 5381TIP3    H240339   1.997   6.377   8.687 -0.7645 -0.4642  1.1542
 5382TIP3   OH240340   0.061   5.461   7.718  0.2686 -0.5167 -0.0452
 5382TIP3    H140341   0.020   5.473   7.632  0.6711  0.7934 -0.0717
 5382TIP3    H240342  -0.013   5.442   7.777 -0.2196  0.3578 -0.3597
 5383TIP3   OH240343   5.827   6.356   8.931  0.0292 -0.0973 -0.4855
 5383TIP3    H140344   5.778   6.385   9.007 -1.7101 -0.6526 -1.3356
 5383TIP3    H240345   5.858   6.269   8.954 -1.8362 -0.9254 -0.9368
 5384TIP3   OH240346   6.167   3.663   8.821 -0.3586  0.3241  0.0915
 5384TIP3    H140347   6.188   3.629   8.908  1.5823 -2.2438 -1.2525
 5384TIP3    H240348   6.227   3.736   8.809  1.1829 -0.9136 -0.0020
 5385TIP3   OH240349   6.508   3.929   8.573 -0.0250  0.1868  0.9003
 5385TIP3    H140350   6.452   3.852   8.566 -0.4127  0.2637  2.7876
 5385TIP3    H240351   6.448   4.002   8.584  0.3882  0.5065  1.0618
 5386TIP3   OH240352   3.546   0.333   9.422  0.4753 -0.8898 -0.8615
 5386TIP3    H140353   3.481   0.289   9.368 -1.3704  1.1068 -0.4197
 5386TIP3    H240354   3.584   0.264   9.476 -2.3264 -2.0030 -0.1244
 5387TIP3   OH240355   4.641   7.476   9.350 -0.5614 -0.2881  0.0798
 5387TIP3    H140356   4.634   7.521   9.434  1.8192 -0.1845  0.2862
 5387TIP3    H240357   4.603   7.537   9.287 -0.5116  0.5020  0.8012
 5388TIP3   OH240358   0.912   0.213   8.972 -0.9881 -0.0682 -0.1713
 5388TIP3    H140359   0.949   0.135   8.930 -0.5977  0.4722 -0.8560
 5388TIP3    H240360   0.902   0.276   8.900 -0.7715  0.7070  0.4640
 5389TIP3   OH240361   5.832   1.279   7.435 -0.1822 -0.1126 -0.4352
 5389TIP3    H140362   5.768   1.208   7.439 -1.2132  0.7896 -0.4675
 5389TIP3    H240363   5.794   1.342   7.374 -1.2646  2.3628  2.5648
 5390TIP3   OH240364   3.048   4.864   7.593 -0.0001  0.1927 -0.2182
 5390TIP3    H140365   3.059   4.877   7.687  0.4298  0.2076 -0.2693
 5390TIP3    H240366   2.972   4.918   7.570 -0.0317  0.2836  0.0986
 5391TIP3   OH240367   1.551   5.376   1.556 -0.4599  0.1092  0.5086
 5391TIP3    H140368   1.620   5.440   1.574 -0.5218  0.5256 -0.6325
 5391TIP3    H240369   1.593   5.291   1.572  1.1955  0.2126 -2.5620
 5392TIP3   OH240370   4.668   2.758   2.276  0.2058 -0.6501  0.1027
 5392TIP3    H140371   4.737   2.818   2.249 -0.7753  0.0366 -0.9838
 5392TIP3    H240372   4.674   2.756   2.371  1.4276 -0.2583  0.0488
 5393TIP3   OH240373   3.195   1.908   2.466 -0.5731  0.2208  0.0560
 5393TIP3    H140374   3.173   1.819   2.437 -1.5927 -0.0718  1.6037
 5393TIP3    H240375   3.119   1.960   2.439 -0.2537  0.5008 -0.3004
 5394TIP3   OH240376   6.544   1.833   2.280  0.5257 -0.2650 -0.4444
 5394TIP3    H140377   6.590   1.836   2.364  0.4805  3.5075 -0.3717
 5394TIP3    H240378   6.607   1.869   2.217 -0.2033 -0.9427 -1.5859
 5395TIP3   OH240379   5.616   5.838   2.025  0.0819  0.3674  0.2614
 5395TIP3    H140380   5.650   5.751   2.004 -0.2252  0.0477  1.0408
 5395TIP3    H240381   5.663   5.897   1.966  0.0259 -0.3607 -0.5404
 5396TIP3   OH240382   6.883   0.771   1.518 -0.0462  0.7501  0.5195
 5396TIP3    H140383   6.949   0.724   1.468 -0.4064 -0.2929  0.9873
 5396TIP3    H240384   6.923   0.856   1.537  2.1493 -0.6308  2.7429
 5397TIP3   OH240385   2.051   5.079   2.063  0.2670 -0.5314 -0.3064
 5397TIP3    H140386   2.073   5.016   2.132 -0.0166 -0.2778  0.0157
 5397TIP3    H240387   2.078   5.164   2.098 -0.5118 -0.3172 -0.2261
 5398TIP3   OH240388   3.391   0.843   3.225  0.2092  0.5084  0.1816
 5398TIP3    H140389   3.434   0.772   3.272  0.3883 -0.2233 -1.0694
 5398TIP3    H240390   3.436   0.922   3.255  0.6214  0.0121  0.8950
 5399TIP3   OH240391   2.024   3.026   1.482 -0.4822  0.0222 -0.1426
 5399TIP3    H140392   2.070   3.109   1.496 -0.3702 -0.2134  0.9500
 5399TIP3    H240393   1.931   3.050   1.480 -0.3638  0.4941 -2.3221
 5400TIP3   OH240394   3.981   2.830   0.904  0.1250 -0.3152 -0.1683
 5400TIP3    H140395   4.075   2.834   0.919  0.0513 -1.3726  0.7026
 5400TIP3    H240396   3.969   2.862   0.814  1.4883 -1.6375 -0.8675
 5401TIP3   OH240397   4.753   5.299   2.289 -0.4935  0.0241 -0.5899
 5401TIP3    H140398   4.747   5.381   2.240 -1.3623  1.6508  2.0187
 5401TIP3    H240399   4.827   5.312   2.348 -0.1513 -1.4309 -0.6703
 5402TIP3   OH240400   4.196   2.149   2.276 -0.0901  0.2694  0.0462
 5402TIP3    H140401   4.183   2.130   2.369  1.0240  1.8117  0.5657
 5402TIP3    H240402   4.272   2.095   2.252 -0.2359  0.0420  0.0932
 5403TIP3   OH240403   5.058   2.826   2.058  0.1598 -0.4687  0.0756
 5403TIP3    H140404   5.124   2.853   1.993  0.8565  0.0246  0.9711
 5403TIP3    H240405   5.032   2.908   2.100  0.6363 -0.9089  1.2676
 5404TIP3   OH240406   7.013   7.475   0.712  0.0416  0.2370 -0.2831
 5404TIP3    H140407   6.948   7.455   0.778 -0.4200  2.6983  0.1074
 5404TIP3    H240408   7.006   7.569   0.698  0.7714 -0.0218 -3.1705
 5405TIP3   OH240409   2.161   7.503   1.193 -0.2816  0.2562  0.8577
 5405TIP3    H140410   2.145   7.433   1.130 -1.3192  1.4376 -0.2314
 5405TIP3    H240411   2.193   7.457   1.272  0.0506 -1.3315 -0.1538
 5406TIP3   OH240412   1.984   4.067   1.988  0.2099 -0.4205 -0.7562
 5406TIP3    H140413   2.074   4.035   1.985  0.2424 -0.5595  0.9787
 5406TIP3    H240414   1.946   4.026   2.066 -0.5158  1.7814  0.1250
 5407TIP3   OH240415   5.254   4.806   1.705 -0.5151  0.4130  0.1270
 5407TIP3    H140416   5.332   4.751   1.712 -0.4818  0.3239 -0.7596
 5407TIP3    H240417   5.286   4.890   1.671 -0.8669  0.1592 -0.8894
 5408TIP3   OH240418   0.737   4.209   1.197 -0.7009  0.2047  0.1109
 5408TIP3    H140419   0.649   4.172   1.200 -1.3860  1.8032  0.1874
 5408TIP3    H240420   0.725   4.300   1.172  0.9307  0.4917  0.2396
 5409TIP3   OH240421   0.452   6.095   1.522 -0.0501 -0.4734 -0.3879
 5409TIP3    H140422   0.399   6.103   1.443 -0.1571 -0.7551 -0.3459
 5409TIP3    H240423   0.394   6.055   1.586 -0.2329  0.5588  0.1036
 5410TIP3   OH240424   2.898   2.229   1.151 -0.1181 -0.2303 -0.1572
 5410TIP3    H140425   2.925   2.233   1.059  1.9856  1.3449  0.4265
 5410TIP3    H240426   2.854   2.145   1.160  0.1935 -0.7086 -2.4647
 5411TIP3   OH240427   2.535   6.527   1.858 -0.2171  0.1424 -0.7344
 5411TIP3    H140428   2.490   6.471   1.794 -0.2414 -0.0372 -0.5602
 5411TIP3    H240429   2.603   6.471   1.895 -0.1884  0.2545 -0.6187
 5412TIP3   OH240430   2.244   4.090   0.797  0.0432 -0.4218 -0.6673
 5412TIP3    H140431   2.154   4.115   0.780  0.3011  0.6933 -0.4368
 5412TIP3    H240432   2.237   4.010   0.849 -0.8578  0.6160  0.8801
 5413TIP3   OH240433   6.621   1.526   3.580 -0.0598  0.1870  0.1378
 5413TIP3    H140434   6.658   1.612   3.599 -0.9310  0.3538  1.2048
 5413TIP3    H240435   6.687   1.482   3.527  1.9061  0.2804  2.3509
 5414TIP3   OH240436   6.070   4.772   0.768  0.6158  0.3878  0.0624
 5414TIP3    H140437   6.138   4.714   0.734  0.8184  0.3241  0.5686
 5414TIP3    H240438   6.008   4.781   0.696  0.5243 -0.5525  0.0130
 5415TIP3   OH240439   5.109   4.021   2.172  0.3531  0.2739  0.3942
 5415TIP3    H140440   5.171   4.066   2.115 -0.5082  2.8488  1.3411
 5415TIP3    H240441   5.032   4.006   2.116  0.4935  0.3406  0.1813
 5416TIP3   OH240442   4.097   4.225   1.529  0.0736 -0.0356  0.5835
 5416TIP3    H140443   4.068   4.310   1.562 -0.7225 -0.0798  0.0372
 5416TIP3    H240444   4.023   4.194   1.476  0.7144 -0.6559  0.0408
 5417TIP3   OH240445   3.631   3.464   2.491 -0.2941 -0.2332 -0.1837
 5417TIP3    H140446   3.662   3.554   2.498 -1.5024  0.1785  0.1814
 5417TIP3    H240447   3.648   3.425   2.577  0.2275 -0.3599 -0.3419
 5418TIP3   OH240448   6.895   4.113   1.511  0.4880  0.4709 -0.2050
 5418TIP3    H140449   6.915   4.204   1.488  1.3565  0.5352  0.7152
 5418TIP3    H240450   6.974   4.082   1.555  0.3130 -0.8328 -0.7551
 5419TIP3   OH240451   4.061   6.395   2.430 -0.2940 -0.0222  0.1042
 5419TIP3    H140452   4.005   6.347   2.490 -1.1316  0.2293 -0.4695
 5419TIP3    H240453   4.007   6.466   2.397  0.1855 -0.0859 -0.8587
 5420TIP3   OH240454   4.204   4.683   1.617 -0.0765 -0.2385 -0.5493
 5420TIP3    H140455   4.296   4.667   1.635 -0.1131  0.7096  0.5929
 5420TIP3    H240456   4.204   4.753   1.552  0.0036 -0.7918 -1.1576
 5421TIP3   OH240457   2.280   2.258   3.056  0.1909  0.2392  0.4230
 5421TIP3    H140458   2.301   2.308   3.135 -0.5663 -0.0078  0.7877
 5421TIP3    H240459   2.244   2.176   3.088  1.5228 -0.6018 -0.1751
 5422TIP3   OH240460   5.549   2.446   0.642 -0.0806 -0.3470 -0.5543
 5422TIP3    H140461   5.485   2.377   0.661  1.1355 -1.4638 -0.3495
 5422TIP3    H240462   5.538   2.509   0.713 -0.8576 -0.5748 -0.4589
 5423TIP3   OH240463   0.419   6.212   2.161 -0.4825  0.4267 -0.1809
 5423TIP3    H140464   0.328   6.223   2.189 -0.9462 -0.1220 -1.4077
 5423TIP3    H240465   0.422   6.249   2.073  0.6283  0.9283  0.0371
 5424TIP3   OH240466   4.042   3.949   1.373  0.3875 -0.1496 -0.9866
 5424TIP3    H140467   3.990   3.951   1.292 -0.5021  0.0243 -0.4210
 5424TIP3    H240468   3.989   3.998   1.436  1.5726  0.6396 -0.5862
 5425TIP3   OH240469   7.433   2.913   2.675 -0.2475 -0.5831  0.7003
 5425TIP3    H140470   7.521   2.888   2.704 -0.2460  0.5029  1.6961
 5425TIP3    H240471   7.390   2.830   2.653  1.0908 -1.1065 -0.0202
 5426TIP3   OH240472   2.823   2.287   2.476 -0.0450  0.1241  0.1107
 5426TIP3    H140473   2.727   2.284   2.481 -0.1362  1.2990 -0.5365
 5426TIP3    H240474   2.843   2.379   2.458  1.2127 -0.1071  0.2415
 5427TIP3   OH240475   0.658   0.744   2.670 -0.0545  0.0098 -0.2440
 5427TIP3    H140476   0.715   0.745   2.594  1.6971  1.2023  1.0240
 5427TIP3    H240477   0.592   0.812   2.652  1.3432  1.4776 -0.0108
 5428TIP3   OH240478   1.005   4.575   1.284 -0.2555  0.1629  0.6730
 5428TIP3    H140479   1.028   4.586   1.192 -1.3977 -0.5409  0.2810
 5428TIP3    H240480   1.074   4.620   1.332  1.2576 -0.8651 -0.4656
 5429TIP3   OH240481   4.695   2.309   1.348 -0.4407 -0.5810  0.1654
 5429TIP3    H140482   4.739   2.380   1.301 -2.4141 -0.0033 -0.9031
 5429TIP3    H240483   4.716   2.231   1.298  1.0098 -0.6515  0.8385
 5430TIP3   OH240484   1.521   5.974   2.371 -0.2261 -0.4613  0.1654
 5430TIP3    H140485   1.467   5.898   2.394  0.2312 -0.5441  0.9936
 5430TIP3    H240486   1.560   6.001   2.454  1.5960 -0.8565 -0.5264
 5431TIP3   OH240487   1.324   0.978   2.041  0.2581 -0.2449 -0.2791
 5431TIP3    H140488   1.393   1.027   2.087  0.2506 -0.4967  0.0088
 5431TIP3    H240489   1.299   1.035   1.968 -1.6417  1.4483  1.5572
 5432TIP3   OH240490   0.320   0.706   0.970  0.0021  0.3814  0.3507
 5432TIP3    H140491   0.367   0.654   0.905  0.7543  0.1394  1.0763
 5432TIP3    H240492   0.273   0.642   1.023  0.9665  0.4260  1.2764
 5433TIP3   OH240493   0.597   5.351   2.116  0.3205 -0.0979  0.4595
 5433TIP3    H140494   0.546   5.271   2.117  1.2983 -0.7526  1.6992
 5433TIP3    H240495   0.544   5.414   2.067 -0.3099 -1.5777 -0.8186
 5434TIP3   OH240496   5.206   1.814   1.132 -0.2688 -0.2002  0.0364
 5434TIP3    H140497   5.146   1.757   1.083 -1.4380  0.1086  1.0614
 5434TIP3    H240498   5.271   1.754   1.167  0.1457 -0.5243 -1.2192
 5435TIP3   OH240499   6.289   5.352   1.520 -0.1637 -0.0793  0.3529
 5435TIP3    H140500   6.235   5.427   1.544 -1.1217 -0.8224  0.6404
 5435TIP3    H240501   6.288   5.297   1.599 -0.6196 -1.0215 -0.2877
 5436TIP3   OH240502   1.831   3.648   2.526  0.0526 -0.1632 -0.6076
 5436TIP3    H140503   1.738   3.659   2.546  0.0174 -0.7335 -0.4355
 5436TIP3    H240504   1.861   3.582   2.589  0.1770 -1.2469 -1.7634
 5437TIP3   OH240505   7.048   3.579   2.198 -0.3875  0.3219 -0.4084
 5437TIP3    H140506   7.112   3.649   2.183 -0.2125 -0.0162 -1.3181
 5437TIP3    H240507   7.071   3.512   2.134  2.2784 -2.6563  3.1871
 5438TIP3   OH240508   5.834   1.613   0.728  0.5167 -0.6261 -0.0346
 5438TIP3    H140509   5.785   1.666   0.790  1.3304 -1.1749  1.0972
 5438TIP3    H240510   5.915   1.591   0.773  0.8555 -1.5636 -1.0583
 5439TIP3   OH240511   2.002   5.800   0.992  0.2129  0.4096 -0.1307
 5439TIP3    H140512   1.919   5.775   0.953  1.0148 -0.1257 -1.5809
 5439TIP3    H240513   1.981   5.821   1.083 -1.4825  0.2519 -0.4611
 5440TIP3   OH240514   3.860   0.176   0.485 -0.3298 -0.3665 -0.0010
 5440TIP3    H140515   3.777   0.167   0.438 -1.4199 -1.6298  2.0418
 5440TIP3    H240516   3.882   0.087   0.513  1.4321  0.0298  0.0097
 5441TIP3   OH240517   1.919   3.554   2.139  0.0299 -0.1428  0.4721
 5441TIP3    H140518   1.899   3.643   2.111  0.4764  0.6387  2.4853
 5441TIP3    H240519   1.838   3.521   2.177  0.4729  0.2661  1.8072
 5442TIP3   OH240520   2.025   1.168   1.024 -0.1090 -0.4223  0.2414
 5442TIP3    H140521   2.107   1.218   1.016 -0.2522 -0.0908  0.8085
 5442TIP3    H240522   1.961   1.221   0.977 -0.6575  0.8599  2.3228
 5443TIP3   OH240523   5.325   3.674   1.569  0.2703 -0.3905 -0.0965
 5443TIP3    H140524   5.291   3.594   1.529  1.0990 -0.1825 -1.2679
 5443TIP3    H240525   5.298   3.744   1.509  2.8478 -0.2322 -1.2196
 5444TIP3   OH240526   2.574   5.728   3.372 -0.0114 -0.4750 -0.8556
 5444TIP3    H140527   2.528   5.810   3.352  1.1327  0.1324 -1.1115
 5444TIP3    H240528   2.543   5.666   3.306 -0.0862  0.0676 -1.3438
 5445TIP3   OH240529   2.790   2.604   0.474  0.0869 -0.4375  0.4070
 5445TIP3    H140530   2.735   2.666   0.426  0.4484 -0.1040  0.4177
 5445TIP3    H240531   2.729   2.554   0.528 -0.3113 -0.7351 -0.3089
 5446TIP3   OH240532   1.057   1.980   1.406 -0.0798 -0.2765 -0.0872
 5446TIP3    H140533   1.054   2.047   1.339  1.1541 -0.3853 -0.2681
 5446TIP3    H240534   1.106   2.020   1.478 -1.6784 -0.0327  0.9263
 5447TIP3   OH240535   4.259   3.559   0.503  0.5825 -0.0163  0.2475
 5447TIP3    H140536   4.200   3.612   0.556  1.5332  2.7638 -1.2714
 5447TIP3    H240537   4.337   3.613   0.491  1.5661 -1.6837 -1.5858
 5448TIP3   OH240538   1.945   6.337   1.188  0.5738 -0.0043  0.2449
 5448TIP3    H140539   1.962   6.288   1.268  0.0012 -0.5336  0.0605
 5448TIP3    H240540   1.928   6.427   1.217 -0.0816 -0.2858  0.7683
 5449TIP3   OH240541   3.950   5.934   0.780  0.1503  0.1664 -0.0370
 5449TIP3    H140542   3.894   5.992   0.727  1.4938  1.3519 -0.2164
 5449TIP3    H240543   3.963   5.982   0.862  0.1444 -0.5297  0.3757
 5450TIP3   OH240544   5.878   3.250   0.897  0.0026  0.0492  0.5957
 5450TIP3    H140545   5.901   3.204   0.817 -0.3416 -0.2634  0.6767
 5450TIP3    H240546   5.962   3.282   0.931  0.3248 -1.1363  0.9277
 5451TIP3   OH240547   3.800   4.663   2.607  0.5671 -0.0867 -0.9387
 5451TIP3    H140548   3.728   4.637   2.550 -0.1810  0.8030 -0.4043
 5451TIP3    H240549   3.852   4.723   2.554  1.6886 -1.7108 -1.7886
 5452TIP3   OH240550   4.467   4.398   1.985  0.1983  0.2882  0.9715
 5452TIP3    H140551   4.425   4.376   1.902 -0.6129  0.4711  1.3276
 5452TIP3    H240552   4.542   4.339   1.990 -0.6989 -0.8778  0.8922
 5453TIP3   OH240553   3.007   1.402   2.091  0.2943  0.0409 -0.1923
 5453TIP3    H140554   3.023   1.357   2.008 -1.4863  0.2868 -0.7049
 5453TIP3    H240555   3.083   1.459   2.103  0.9263 -0.5450 -1.2675
 5454TIP3   OH240556   0.499   2.640   0.756  0.3177 -0.9341  0.4365
 5454TIP3    H140557   0.554   2.637   0.677 -1.4453 -0.2010 -0.8896
 5454TIP3    H240558   0.542   2.704   0.812  2.2073 -2.2426  0.6147
 5455TIP3   OH240559   1.715   3.069   2.977  0.1300  0.4830  0.2354
 5455TIP3    H140560   1.635   3.020   2.960 -0.0846  1.0537 -0.4223
 5455TIP3    H240561   1.772   3.006   3.023 -0.4365 -0.1282  0.1148
 5456TIP3   OH240562   7.639   6.969   2.637  0.1113 -0.4254 -0.0971
 5456TIP3    H140563   7.658   7.029   2.709 -1.0466  1.7447 -1.5130
 5456TIP3    H240564   7.583   6.902   2.676  0.6351 -0.0783  1.3166
 5457TIP3   OH240565   0.559   7.160   1.020  0.4922  0.0334 -0.8104
 5457TIP3    H140566   0.485   7.211   1.053 -0.7429 -1.1727 -1.6185
 5457TIP3    H240567   0.544   7.072   1.054  2.1286 -0.0138 -0.1526
 5458TIP3   OH240568   1.333   2.345   2.322  0.3066  0.0027  0.1760
 5458TIP3    H140569   1.266   2.390   2.271  0.2515  0.0072  0.2523
 5458TIP3    H240570   1.357   2.407   2.390 -0.2239 -0.3164  0.6682
 5459TIP3   OH240571   3.765   3.620   2.034  0.1330 -0.0110  0.2262
 5459TIP3    H140572   3.799   3.677   2.102  0.0153 -0.6600  0.8398
 5459TIP3    H240573   3.829   3.626   1.963  0.1713  0.7946  0.3127
 5460TIP3   OH240574   7.141   1.609   0.542 -0.4137 -0.6433 -0.1506
 5460TIP3    H140575   7.200   1.664   0.594 -0.0648 -0.4040 -0.7951
 5460TIP3    H240576   7.104   1.668   0.477 -1.7380 -0.6812  0.5265
 5461TIP3   OH240577   0.477   1.409   1.915 -0.7222  0.2445  0.3347
 5461TIP3    H140578   0.457   1.489   1.962  0.5893 -0.0516  1.4775
 5461TIP3    H240579   0.398   1.356   1.922 -1.1670  0.9395  0.6546
 5462TIP3   OH240580   2.734   6.180   1.564 -0.0785  0.2489 -0.3447
 5462TIP3    H140581   2.659   6.139   1.605 -0.5002  0.4391 -0.9182
 5462TIP3    H240582   2.750   6.130   1.484 -0.8980  1.4445 -1.3061
 5463TIP3   OH240583   3.870   3.785   2.244 -0.2818 -0.5768  0.0752
 5463TIP3    H140584   3.925   3.860   2.221  0.9078 -1.8661 -1.4982
 5463TIP3    H240585   3.898   3.761   2.333  1.4796 -0.9772 -0.5497
 5464TIP3   OH240586   1.934   1.887   0.912 -0.6359  0.1702  0.0042
 5464TIP3    H140587   1.968   1.916   0.827  0.2779 -0.5566  0.1034
 5464TIP3    H240588   2.009   1.846   0.954 -1.3289 -0.3133  0.7794
 5465TIP3   OH240589   2.123   6.345   2.745 -0.3200 -0.0958  0.1090
 5465TIP3    H140590   2.187   6.385   2.804 -2.1675  0.9448  1.5514
 5465TIP3    H240591   2.158   6.359   2.657  2.4754 -1.5832  0.8899
 5466TIP3   OH240592   3.516   2.479   3.008 -0.0158  0.2744 -0.0746
 5466TIP3    H140593   3.495   2.472   2.915  0.6470  0.7230 -0.2639
 5466TIP3    H240594   3.430   2.482   3.051 -0.4142 -3.0780 -0.3755
 5467TIP3   OH240595   1.796   5.159   3.091 -0.0807 -0.0142  0.2244
 5467TIP3    H140596   1.727   5.119   3.144 -0.5862  0.9190  0.2857
 5467TIP3    H240597   1.756   5.237   3.054  0.5826 -0.1092 -0.7299
 5468TIP3   OH240598   7.083   5.636   1.596  0.8081 -0.6962  0.6633
 5468TIP3    H140599   7.026   5.595   1.531  1.4350 -0.8223  0.1963
 5468TIP3    H240600   7.120   5.712   1.552  0.5486 -0.2740  1.1606
 5469TIP3   OH240601   2.843   4.525   2.448 -0.3297  0.0455  0.1702
 5469TIP3    H140602   2.881   4.475   2.376  2.6653  0.0583  1.5958
 5469TIP3    H240603   2.874   4.614   2.434  0.1910  0.0684  1.3993
 5470TIP3   OH240604   4.181   3.428   2.464  0.3367 -0.4042  0.0773
 5470TIP3    H140605   4.140   3.342   2.456 -0.0741 -0.1529 -0.7360
 5470TIP3    H240606   4.152   3.461   2.549 -0.8956 -0.3814 -0.3245
 5471TIP3   OH240607   4.250   5.609   3.041 -0.1452  0.3072 -0.4089
 5471TIP3    H140608   4.241   5.526   2.994 -1.3156  0.8105 -1.0935
 5471TIP3    H240609   4.163   5.627   3.075  0.2391  0.9685  0.2551
 5472TIP3   OH240610   4.566   3.063   3.255  0.2558  0.2587 -0.2262
 5472TIP3    H140611   4.617   3.049   3.175  0.6309  0.6815 -0.0614
 5472TIP3    H240612   4.583   3.154   3.279  0.6630 -0.0556  0.7049
 5473TIP3   OH240613   5.539   5.432   1.600  0.6362  0.5554 -0.2354
 5473TIP3    H140614   5.525   5.505   1.539 -1.4776  1.6842  1.4264
 5473TIP3    H240615   5.585   5.471   1.674  0.8791 -0.1614 -0.0037
 5474TIP3   OH240616   0.681   7.550   2.092  0.4802 -0.3387 -0.6488
 5474TIP3    H140617   0.665   7.526   2.000 -0.0394 -0.5707 -0.4985
 5474TIP3    H240618   0.662   7.644   2.095  0.8962 -0.2440 -0.8672
 5475TIP3   OH240619   1.258   3.085   3.144  0.2349  0.4510  0.1266
 5475TIP3    H140620   1.343   3.073   3.187 -0.4060 -0.7766  1.1344
 5475TIP3    H240621   1.244   3.180   3.145 -0.1814  0.4996  3.6581
 5476TIP3   OH240622   5.704   3.982   0.595  0.2926  0.0051  0.1309
 5476TIP3    H140623   5.619   4.009   0.629 -0.7187 -1.6227 -0.9346
 5476TIP3    H240624   5.688   3.895   0.558  1.9846  0.4324 -1.7937
 5477TIP3   OH240625   2.341   6.416   1.732 -0.1541  0.0433 -0.4450
 5477TIP3    H140626   2.275   6.473   1.771 -0.1504  0.2037 -0.6713
 5477TIP3    H240627   2.305   6.392   1.647 -0.6641 -1.2111  0.1079
 5478TIP3   OH240628   3.617   1.886   0.908 -0.4136 -0.0734  0.6295
 5478TIP3    H140629   3.685   1.885   0.840 -0.6631 -0.6414  0.3776
 5478TIP3    H240630   3.588   1.795   0.913 -1.2384  0.1880  0.6563
 5479TIP3   OH240631   3.092   3.538   0.629 -0.3440 -0.3317 -0.1043
 5479TIP3    H140632   3.052   3.457   0.597 -0.5191 -0.3409  0.1307
 5479TIP3    H240633   3.020   3.600   0.635 -0.2057 -0.1510 -0.3039
 5480TIP3   OH240634   4.056   7.076   3.280 -0.3058  0.0989  0.2769
 5480TIP3    H140635   3.975   7.041   3.318 -0.8672 -0.5027 -1.3787
 5480TIP3    H240636   4.060   7.166   3.313 -1.1929 -0.1306  1.0765
 5481TIP3   OH240637   4.654   6.174   3.374 -0.3035 -0.2815 -0.1177
 5481TIP3    H140638   4.669   6.252   3.427 -1.6989 -0.5165  0.6685
 5481TIP3    H240639   4.732   6.167   3.319  0.0061  1.4550  0.0470
 5482TIP3   OH240640   3.979   5.937   1.056 -1.0202  0.0190  0.0852
 5482TIP3    H140641   3.908   5.995   1.084 -1.5043 -0.5329  0.0214
 5482TIP3    H240642   3.977   5.864   1.118  1.2759  1.2699  1.7936
 5483TIP3   OH240643   6.980   3.668   3.632  0.2634  0.6081  0.0275
 5483TIP3    H140644   6.993   3.664   3.538 -1.4145 -0.7717 -0.1911
 5483TIP3    H240645   6.890   3.638   3.646 -0.1995  2.5845  1.9322
 5484TIP3   OH240646   1.293   0.779   3.043  0.3832  0.8015  0.6849
 5484TIP3    H140647   1.318   0.709   3.104 -0.4961  1.1967  1.5204
 5484TIP3    H240648   1.376   0.805   3.002  0.4178 -2.9229 -2.1267
 5485TIP3   OH240649   4.672   4.574   2.414  0.2195 -0.1508  0.0124
 5485TIP3    H140650   4.634   4.591   2.500 -1.2695 -0.1461 -0.6080
 5485TIP3    H240651   4.686   4.661   2.376  2.9152 -0.0493  1.0270
 5486TIP3   OH240652   5.522   2.470   2.938 -0.3168 -0.1969  0.2444
 5486TIP3    H140653   5.573   2.551   2.930  0.9069 -0.9114  0.6647
 5486TIP3    H240654   5.471   2.481   3.018  0.9276 -0.4179  1.0832
 5487TIP3   OH240655   1.501   1.670   1.990 -0.1301 -0.2925 -0.0600
 5487TIP3    H140656   1.422   1.724   1.990  0.0018 -0.0643  1.3546
 5487TIP3    H240657   1.490   1.612   2.065  0.5731 -0.9717 -0.4730
 5488TIP3   OH240658   5.776   5.234   1.163  0.6691  0.2607 -0.3854
 5488TIP3    H140659   5.862   5.199   1.143  0.8306  0.1706  0.4393
 5488TIP3    H240660   5.719   5.200   1.094  0.8478 -1.4918  0.2848
 5489TIP3   OH240661   5.434   6.866   2.316  0.1822  0.1686 -0.5221
 5489TIP3    H140662   5.502   6.825   2.262  0.4738  1.5220 -1.2152
 5489TIP3    H240663   5.421   6.804   2.388  0.1331 -1.4651 -1.8599
 5490TIP3   OH240664   1.662   2.960   2.104 -0.5570 -0.3965 -0.5515
 5490TIP3    H140665   1.667   3.052   2.076 -1.0523 -0.5252 -1.0836
 5490TIP3    H240666   1.748   2.924   2.085  0.9560  0.8710  3.0633
 5491TIP3   OH240667   2.083   5.537   1.178  0.0697  0.6105  0.0947
 5491TIP3    H140668   2.119   5.534   1.089 -0.1312 -0.0216  0.0288
 5491TIP3    H240669   2.077   5.445   1.204 -2.0179  0.6374 -0.1140
 5492TIP3   OH240670   1.028   6.511   1.604  0.3878  0.0841 -0.7904
 5492TIP3    H140671   1.100   6.549   1.655  0.2531  0.8877 -1.1830
 5492TIP3    H240672   1.027   6.418   1.629 -0.4386  0.6560  1.5687
 5493TIP3   OH240673   0.945   6.248   0.786  0.5257 -0.5016 -0.6356
 5493TIP3    H140674   0.970   6.177   0.726  0.7207  0.9029 -2.3074
 5493TIP3    H240675   0.978   6.220   0.871  2.3863 -1.5201 -1.6273
 5494TIP3   OH240676   1.618   2.002   2.950 -0.2350 -0.0296  0.5691
 5494TIP3    H140677   1.603   2.026   3.041  0.6383  0.7547  0.5210
 5494TIP3    H240678   1.586   1.912   2.943 -1.6696  0.4038  1.2750
 5495TIP3   OH240679   6.502   0.911   2.518  0.0272 -0.2198 -0.2033
 5495TIP3    H140680   6.476   1.001   2.497  0.1167 -0.1998 -0.2297
 5495TIP3    H240681   6.439   0.882   2.584 -1.6367 -1.0536 -2.0525
 5496TIP3   OH240682   3.073   1.435   1.299 -0.4872 -0.0077  0.1199
 5496TIP3    H140683   3.002   1.499   1.293 -0.4648 -0.1130 -1.7203
 5496TIP3    H240684   3.142   1.469   1.242  0.0172 -1.0578  0.0773
 5497TIP3   OH240685   2.712   3.615   1.790  0.0509 -0.2265 -0.5934
 5497TIP3    H140686   2.668   3.537   1.823 -0.4560  0.1776 -0.3004
 5497TIP3    H240687   2.641   3.674   1.765  0.3892  0.9304  1.0400
 5498TIP3   OH240688   4.180   4.222   2.724  0.2093  0.0753 -0.2566
 5498TIP3    H140689   4.111   4.206   2.788  0.9351  1.0254  0.8053
 5498TIP3    H240690   4.147   4.295   2.671 -0.8913 -1.4534 -1.7749
 5499TIP3   OH240691   6.651   2.079   1.683 -0.6201  0.5890  0.1949
 5499TIP3    H140692   6.678   2.006   1.627  0.6414  0.9246  0.3368
 5499TIP3    H240693   6.624   2.147   1.622 -0.2708  0.5671  0.0104
 5500TIP3   OH240694   5.205   2.345   1.705 -0.3106 -0.0152  0.3324
 5500TIP3    H140695   5.184   2.307   1.619  0.6014 -2.1025  0.9577
 5500TIP3    H240696   5.127   2.327   1.758 -0.1521 -0.4296  0.4328
 5501TIP3   OH240697   2.763   0.725   2.267 -0.2996  0.2518  0.3756
 5501TIP3    H140698   2.829   0.679   2.215  0.0338 -0.8234  1.6869
 5501TIP3    H240699   2.806   0.806   2.294  0.1896 -0.0398  0.4925
 5502TIP3   OH240700   5.687   7.407   1.186  0.3146  0.1433  0.5345
 5502TIP3    H140701   5.638   7.427   1.266  0.4789  0.5857  0.5308
 5502TIP3    H240702   5.619   7.388   1.121  0.2006 -1.2619  1.0315
 5503TIP3   OH240703   7.312   0.180   1.463 -0.4786 -0.0984 -0.0621
 5503TIP3    H140704   7.348   0.126   1.534  0.6660 -0.4656 -0.8926
 5503TIP3    H240705   7.317   0.270   1.497 -1.6890 -0.4176  1.0342
 5504TIP3   OH240706   1.764   3.160   0.711 -0.0916  0.2912 -0.0797
 5504TIP3    H140707   1.717   3.244   0.710  1.9647  1.5199  0.0329
 5504TIP3    H240708   1.770   3.138   0.804 -0.4214  0.1403 -0.0933
 5505TIP3   OH240709   4.917   1.224   1.690 -0.0860  0.1888  0.0899
 5505TIP3    H140710   4.829   1.189   1.680 -0.0100 -0.1851  0.6922
 5505TIP3    H240711   4.969   1.180   1.622 -0.7623  1.8901 -1.6294
 5506TIP3   OH240712   2.095   3.666   3.162 -0.5329 -0.3744  0.1298
 5506TIP3    H140713   2.091   3.581   3.206 -2.5131 -0.4197 -0.0743
 5506TIP3    H240714   2.124   3.727   3.231 -1.5879 -0.7931  0.9634
 5507TIP3   OH240715   6.262   2.898   1.693  0.5070  0.8108  0.5761
 5507TIP3    H140716   6.352   2.912   1.663  0.9824 -0.3713  1.3858
 5507TIP3    H240717   6.224   2.842   1.625  0.6178  0.7180  0.5881
 5508TIP3   OH240718   7.435   6.985   1.053 -0.1293 -0.3825  0.0592
 5508TIP3    H140719   7.393   7.017   1.132 -2.0151 -1.5958 -0.3874
 5508TIP3    H240720   7.480   6.905   1.079  0.1750 -0.1940  0.1177
 5509TIP3   OH240721   1.910   1.769   2.236  0.6635  0.4118  0.0808
 5509TIP3    H140722   1.894   1.863   2.227 -1.4899 -0.1183 -4.6500
 5509TIP3    H240723   1.865   1.746   2.318 -1.0684  3.1187  0.0396
 5510TIP3   OH240724   4.482   2.101   2.281 -0.0911  0.5353  0.3841
 5510TIP3    H140725   4.530   2.065   2.206 -0.8786 -0.0413  0.1320
 5510TIP3    H240726   4.542   2.163   2.321  0.6999  0.1397 -0.1616
 5511TIP3   OH240727   6.220   2.072   1.037 -0.3585 -0.0022 -0.0654
 5511TIP3    H140728   6.256   2.072   1.126 -0.8298 -0.9253  0.1387
 5511TIP3    H240729   6.285   2.024   0.985  0.8050  2.0582 -0.6314
 5512TIP3   OH240730   1.712   3.595   1.736 -0.5835  0.0719  1.0929
 5512TIP3    H140731   1.739   3.542   1.810  0.4770  1.0956  1.4584
 5512TIP3    H240732   1.656   3.536   1.684  2.7806 -2.4220 -0.0542
 5513TIP3   OH240733   7.024   2.940   2.892  0.0821  0.2244  0.2573
 5513TIP3    H140734   6.987   2.852   2.885 -1.6829  0.8899  0.6303
 5513TIP3    H240735   6.981   2.989   2.821 -1.7601  1.6485  2.2391
 5514TIP3   OH240736   6.724   1.664   1.075  1.1304  0.1471  0.0649
 5514TIP3    H140737   6.708   1.647   1.168  1.9986  1.1111  0.4169
 5514TIP3    H240738   6.655   1.617   1.030  0.3757  0.0871  1.2300
 5515TIP3   OH240739   5.054   5.846   1.824 -0.4148 -0.0518  0.3772
 5515TIP3    H140740   5.077   5.793   1.748 -1.1081  0.7203 -0.4050
 5515TIP3    H240741   4.994   5.912   1.789 -0.1460  0.7926  1.4562
 5516TIP3   OH240742   4.776   4.563   1.377 -0.4448 -0.3017  0.1918
 5516TIP3    H140743   4.860   4.521   1.397 -0.4259  0.6023  2.2294
 5516TIP3    H240744   4.762   4.624   1.449 -2.1910  0.6021 -0.8517
 5517TIP3   OH240745   6.808   2.326   7.307  0.0541 -0.4974 -0.3398
 5517TIP3    H140746   6.868   2.258   7.276  2.5792  1.6119 -0.4265
 5517TIP3    H240747   6.796   2.307   7.400 -0.1625 -1.6225 -0.5775
 5518TIP3   OH240748   7.632   3.064   1.039  0.1780  0.2856  0.4645
 5518TIP3    H140749   7.694   3.035   0.972  1.1429  0.6800  1.1688
 5518TIP3    H240750   7.659   3.017   1.118 -1.9938 -1.5222  0.2590
 5519TIP3   OH240751   2.807   6.145   2.297 -0.7597 -0.4395  0.4878
 5519TIP3    H140752   2.866   6.204   2.250 -1.5753  1.2447  1.5162
 5519TIP3    H240753   2.720   6.180   2.279 -1.0828  0.6938  3.7284
 5520TIP3   OH240754   4.365   2.472   2.390 -0.2766 -0.1899  0.3907
 5520TIP3    H140755   4.431   2.428   2.443 -0.0097 -0.7107 -0.3629
 5520TIP3    H240756   4.296   2.407   2.379 -0.9248  0.3393  1.1436
 5521TIP3   OH240757   2.742   3.325   1.693 -0.3440  0.8255 -0.4324
 5521TIP3    H140758   2.669   3.297   1.749 -0.8659  0.8880 -1.0688
 5521TIP3    H240759   2.820   3.300   1.742 -0.7898  0.7359  0.2556
 5522TIP3   OH240760   3.019   1.526   3.313  0.1442  0.3608  0.4775
 5522TIP3    H140761   3.051   1.439   3.290 -0.4075  0.3278 -0.1752
 5522TIP3    H240762   2.951   1.510   3.379  0.7226  0.3665  1.0860
 5523TIP3   OH240763   7.154   1.489   1.608 -0.1109 -0.4580 -0.3297
 5523TIP3    H140764   7.188   1.569   1.647 -0.3439  0.0896 -1.2109
 5523TIP3    H240765   7.230   1.431   1.604  0.0965 -0.2291  0.1755
 5524TIP3   OH240766   4.738   5.794   2.563  0.4590 -0.8701 -0.5195
 5524TIP3    H140767   4.753   5.840   2.646 -1.5682 -4.1025  1.8987
 5524TIP3    H240768   4.656   5.831   2.530 -0.3470 -1.5403  0.6146
 5525TIP3   OH240769   4.338   5.838   1.776 -0.1267  0.3224 -0.0829
 5525TIP3    H140770   4.284   5.778   1.725  0.5093  0.2693 -0.7084
 5525TIP3    H240771   4.278   5.878   1.838 -0.7374 -0.2731 -0.2881
 5526TIP3   OH240772   6.738   7.011   2.586 -0.0288 -0.3190  0.1497
 5526TIP3    H140773   6.704   7.019   2.675  0.4229 -0.0051  0.3008
 5526TIP3    H240774   6.797   7.086   2.577 -0.2792 -0.1981 -0.5080
 5527TIP3   OH240775   3.578   5.569   1.012  0.4852 -0.4208 -0.2349
 5527TIP3    H140776   3.625   5.647   0.982  0.3441  0.6570  2.1167
 5527TIP3    H240777   3.507   5.603   1.066 -0.6988 -2.1633 -0.5928
 5528TIP3   OH240778   2.187   6.138   1.622  0.6255  0.4418  0.9625
 5528TIP3    H140779   2.139   6.135   1.706 -1.5750  1.8412 -0.1274
 5528TIP3    H240780   2.152   6.064   1.572 -0.2151  1.2572  0.2958
 5529TIP3   OH240781   5.971   7.252   8.546  0.1923  0.1718 -0.4719
 5529TIP3    H140782   6.058   7.285   8.568  0.5178  0.3657 -1.9133
 5529TIP3    H240783   5.918   7.330   8.532 -0.2867  0.0560  0.5753
 5530TIP3   OH240784   7.242   3.816   2.237  0.9506 -0.1698  0.4971
 5530TIP3    H140785   7.321   3.871   2.246  0.0615  1.3656 -0.5794
 5530TIP3    H240786   7.170   3.876   2.255 -0.0554 -1.1206 -0.2652
 5531TIP3   OH240787   7.603   2.377   2.425  0.2374  0.4178  0.7164
 5531TIP3    H140788   7.604   2.411   2.335  0.5537 -1.6294 -0.1291
 5531TIP3    H240789   7.510   2.361   2.442  0.1547  1.0306  0.8446
 5532TIP3   OH240790   1.026   2.730   2.080  0.2228  0.0513 -0.0073
 5532TIP3    H140791   1.102   2.760   2.029 -0.3110  1.0942 -0.2245
 5532TIP3    H240792   1.054   2.737   2.171  0.2579  0.8247 -0.0721
 5533TIP3   OH240793   3.186   3.702   2.387  0.1658 -0.1603 -0.0385
 5533TIP3    H140794   3.190   3.725   2.480  0.3060 -0.1138 -0.0564
 5533TIP3    H240795   3.239   3.767   2.343  0.0787 -0.1674 -0.1555
 5534TIP3   OH240796   3.628   0.669   1.519 -0.4366  0.0119  0.1691
 5534TIP3    H140797   3.648   0.762   1.520 -0.0688 -0.0492 -0.7865
 5534TIP3    H240798   3.679   0.634   1.446  1.5537 -1.4365  2.1333
 5535TIP3   OH240799   3.953   6.660   0.810 -0.0343 -0.3327 -0.2591
 5535TIP3    H140800   4.004   6.741   0.818  1.1152 -1.0683  0.0032
 5535TIP3    H240801   4.018   6.591   0.799 -1.0086 -1.2186 -0.6506
 5536TIP3   OH240802   4.774   5.481   1.657  0.1971  0.4246  0.2839
 5536TIP3    H140803   4.799   5.523   1.739 -1.2011 -0.3818  1.1669
 5536TIP3    H240804   4.836   5.409   1.648  1.5700  1.6340 -0.3976
 5537TIP3   OH240805   4.664   5.991   1.219 -0.1135  0.3526 -0.0384
 5537TIP3    H140806   4.758   5.990   1.231 -0.3949  0.6062  2.8978
 5537TIP3    H240807   4.647   6.067   1.163  1.5110 -0.9721 -2.4704
 5538TIP3   OH240808   1.389   6.696   2.593  0.6896 -0.2277 -0.0200
 5538TIP3    H140809   1.344   6.696   2.677 -1.6766 -0.0968 -1.1895
 5538TIP3    H240810   1.388   6.604   2.566  0.5653 -0.1460 -0.3036
 5539TIP3   OH240811   1.729   3.286   2.482  0.3439  0.3217 -0.0249
 5539TIP3    H140812   1.787   3.239   2.422  1.2203  2.9939 -1.4389
 5539TIP3    H240813   1.773   3.282   2.567  1.5802  0.5444 -0.6398
 5540TIP3   OH240814   0.658   1.952   2.239  0.1086  0.4754 -0.1805
 5540TIP3    H140815   0.661   2.033   2.290  0.2676  0.4895 -0.2131
 5540TIP3    H240816   0.587   1.967   2.175 -1.5462 -0.3313  1.3657
 5541TIP3   OH240817   4.471   6.352   1.817  0.1677  0.3125 -0.4763
 5541TIP3    H140818   4.457   6.292   1.744  0.2961 -0.0255 -0.2270
 5541TIP3    H240819   4.384   6.383   1.840  0.0212 -0.3433 -0.1356
 5542TIP3   OH240820   5.988   6.326   0.974  0.1480 -0.7297 -0.5478
 5542TIP3    H140821   6.013   6.384   0.903 -1.0667 -0.3825 -0.7146
 5542TIP3    H240822   6.051   6.254   0.970  2.0097  0.7864 -0.0131
 5543TIP3   OH240823   1.744   3.681   3.062 -0.1165  0.0394  0.0879
 5543TIP3    H140824   1.836   3.707   3.062 -0.4003  1.1826  1.3584
 5543TIP3    H240825   1.725   3.661   3.154 -1.3735  0.7926  0.0167
 5544TIP3   OH240826   4.343   3.069   0.989  0.2512 -0.2453 -0.2803
 5544TIP3    H140827   4.399   3.146   0.986  1.2248 -0.7901  1.9948
 5544TIP3    H240828   4.282   3.086   1.060 -1.4844 -0.3621 -1.6764
 5545TIP3   OH240829   7.591   6.706   2.398 -0.5144 -0.3385 -0.1855
 5545TIP3    H140830   7.520   6.711   2.462 -0.2886 -1.5375  0.1829
 5545TIP3    H240831   7.620   6.615   2.401  0.9022  0.0741 -0.4750
 5546TIP3   OH240832   2.091   4.188   2.324  0.8538  0.2805 -0.0610
 5546TIP3    H140833   2.107   4.208   2.416 -1.4450  1.6304  0.1179
 5546TIP3    H240834   2.038   4.261   2.292 -1.2608 -1.7582 -1.5522
 5547TIP3   OH240835   7.022   0.639   2.215 -0.1144 -0.1103  0.4425
 5547TIP3    H140836   6.950   0.698   2.194  0.7496  1.3533  1.4225
 5547TIP3    H240837   7.042   0.594   2.133 -2.2737 -0.7281  0.2138
 5548TIP3   OH240838   0.129   3.051   1.670  0.0702  0.3439  0.4171
 5548TIP3    H140839   0.127   3.146   1.654 -0.3631  0.6492  2.0399
 5548TIP3    H240840   0.195   3.041   1.739  1.2273 -0.7424 -0.8119
 5549TIP3   OH240841   7.326   2.290   2.197  0.1487 -0.1947  0.0853
 5549TIP3    H140842   7.284   2.358   2.144  1.6495  1.1600  0.5544
 5549TIP3    H240843   7.278   2.292   2.280 -0.6021 -0.5914 -0.3274
 5550TIP3   OH240844   3.483   6.511   1.516 -0.6931  0.2699 -0.3019
 5550TIP3    H140845   3.455   6.553   1.435  0.5343 -0.8172 -1.3112
 5550TIP3    H240846   3.529   6.580   1.564 -0.9373  0.7650 -0.7674
 5551TIP3   OH240847   1.437   4.503   1.537 -0.4703  0.4141 -0.4826
 5551TIP3    H140848   1.477   4.452   1.608 -0.7844 -1.2354 -1.4368
 5551TIP3    H240849   1.380   4.565   1.582  1.4018  1.3035  0.8162
 5552TIP3   OH240850   4.962   4.490   1.781 -0.1599 -0.0384  0.3968
 5552TIP3    H140851   4.885   4.540   1.808 -0.4986 -0.2678 -0.1261
 5552TIP3    H240852   4.928   4.422   1.724  0.5821  0.7751 -1.0759
 5553TIP3   OH240853   3.265   5.590   2.072  0.2174 -0.6103  0.1605
 5553TIP3    H140854   3.258   5.515   2.131 -3.8532 -0.6728 -0.1366
 5553TIP3    H240855   3.231   5.558   1.989  0.2618  1.0657 -0.5396
 5554TIP3   OH240856   6.865   4.583   0.546 -0.1208  0.0044  0.1394
 5554TIP3    H140857   6.954   4.615   0.560  0.1798 -0.8215  0.1362
 5554TIP3    H240858   6.872   4.488   0.547 -0.8059 -0.0830 -1.1549
 5555TIP3   OH240859   0.395   0.595   2.691 -0.2551 -0.7148  0.1948
 5555TIP3    H140860   0.459   0.542   2.739  0.5766  0.6534  0.6654
 5555TIP3    H240861   0.442   0.676   2.671 -1.7716  0.2365  0.3478
 5556TIP3   OH240862   6.180   5.837   1.635  0.3366 -0.1720 -0.0335
 5556TIP3    H140863   6.275   5.839   1.649  0.2677  2.2491  0.4919
 5556TIP3    H240864   6.166   5.892   1.559 -0.7531  0.6676  0.7456
 5557TIP3   OH240865   1.271   1.359   1.914  0.2794 -0.1418  0.2678
 5557TIP3    H140866   1.189   1.310   1.913 -0.1866  0.6297 -0.4769
 5557TIP3    H240867   1.288   1.379   1.822  1.0836  0.0725  0.4571
 5558TIP3   OH240868   5.505   2.707   1.514 -0.2002 -0.2002  0.2123
 5558TIP3    H140869   5.550   2.637   1.562  0.0744 -1.8492 -2.2609
 5558TIP3    H240870   5.453   2.661   1.448 -2.4836  1.8385  0.4491
 5559TIP3   OH240871   6.164   0.958   3.188  0.5534 -0.8762 -0.1481
 5559TIP3    H140872   6.124   1.041   3.214 -0.2985 -1.0325 -0.9246
 5559TIP3    H240873   6.251   0.983   3.156  0.5854 -0.3766  0.3168
 5560TIP3   OH240874   1.878   3.643   0.371  0.6237  0.6293 -0.1510
 5560TIP3    H140875   1.903   3.641   0.463  2.3996  1.7382 -0.5543
 5560TIP3    H240876   1.950   3.597   0.326  1.2577  2.5535 -1.2167
 5561TIP3   OH240877   3.016   4.677   2.766  0.1205  0.3225  0.1236
 5561TIP3    H140878   3.061   4.708   2.844 -1.6984  1.5609  0.7611
 5561TIP3    H240879   2.998   4.756   2.716 -2.0519  0.0208  0.3384
 5562TIP3   OH240880   5.866   4.427   3.016 -0.1769 -0.4167 -0.0831
 5562TIP3    H140881   5.912   4.510   3.010 -1.0807  0.1202  0.2538
 5562TIP3    H240882   5.773   4.450   3.015 -0.4548 -1.4567 -0.5324
 5563TIP3   OH240883   2.971   0.329   0.878 -0.4104  0.7691  0.4659
 5563TIP3    H140884   3.031   0.284   0.937 -0.9099 -2.8846 -1.5122
 5563TIP3    H240885   2.897   0.354   0.933  0.6424  0.6439  1.9946
 5564TIP3   OH240886   3.011   2.962   2.205  0.5195  0.3246 -0.1004
 5564TIP3    H140887   2.973   3.024   2.143 -0.0166  0.9622  0.8497
 5564TIP3    H240888   3.105   2.966   2.188  0.2967 -0.3816 -1.6588
 5565TIP3   OH240889   1.874   6.982   1.874 -0.0058  0.2263 -0.4570
 5565TIP3    H140890   1.866   7.030   1.956 -0.6614 -1.6486  0.6169
 5565TIP3    H240891   1.913   7.046   1.813 -0.2910  1.9099  1.0422
 5566TIP3   OH240892   1.269   5.629   0.676  0.4647 -0.0277  0.2420
 5566TIP3    H140893   1.276   5.724   0.686 -0.6473  0.0094  0.8698
 5566TIP3    H240894   1.188   5.617   0.627  1.1792 -0.6230 -0.8333
 5567TIP3   OH240895   1.919   2.844   2.071  0.3808  0.3016  0.4665
 5567TIP3    H140896   1.958   2.786   2.137  0.7101  1.1651  1.0554
 5567TIP3    H240897   1.905   2.788   1.995 -0.9672 -0.9671  1.5954
 5568TIP3   OH240898   0.970   3.674   2.510 -0.8857 -0.0508  0.1526
 5568TIP3    H140899   0.893   3.681   2.567 -1.3955 -0.5639 -0.4594
 5568TIP3    H240900   0.967   3.752   2.456  0.2203  1.0162  1.5447
 5569TIP3   OH240901   2.238   0.164   0.454 -0.8011  0.1635 -0.4433
 5569TIP3    H140902   2.323   0.204   0.436 -1.6113  1.0464 -2.7329
 5569TIP3    H240903   2.258   0.084   0.502  1.4688 -0.3851 -2.1116
 5570TIP3   OH240904   7.020   1.382   0.620 -0.1883  0.0655  0.3185
 5570TIP3    H140905   7.052   1.457   0.570 -0.6048  0.9004  1.2790
 5570TIP3    H240906   7.098   1.348   0.665 -0.3291  1.0652  1.3347
 5571TIP3   OH240907   1.053   1.395   3.318  0.0768  0.4827 -0.4466
 5571TIP3    H140908   0.974   1.440   3.287  0.4315  0.1808 -1.8472
 5571TIP3    H240909   1.028   1.303   3.325  0.5349  0.2386 -1.7859
 5572TIP3   OH240910   6.800   0.732   1.777  0.0647 -0.4621  0.3594
 5572TIP3    H140911   6.757   0.810   1.741 -0.4941  0.1213  2.2156
 5572TIP3    H240912   6.843   0.692   1.701 -0.4155  1.1297 -0.8084
 5573TIP3   OH240913   3.648   7.480   2.517  0.4839  0.1292 -0.1187
 5573TIP3    H140914   3.695   7.560   2.492  0.3565  0.5583  0.9646
 5573TIP3    H240915   3.589   7.508   2.587  0.2212 -0.8652  0.0736
 5574TIP3   OH240916   1.961   0.405   1.911  0.5363 -0.4921 -0.3974
 5574TIP3    H140917   1.898   0.371   1.847 -0.1711 -2.7654  1.3513
 5574TIP3    H240918   1.910   0.413   1.992  2.1921 -1.1311  0.7486
 5575TIP3   OH240919   6.892   4.542   1.821 -0.0230  0.0635  0.4777
 5575TIP3    H140920   6.934   4.551   1.735 -1.0218 -1.8997 -0.2744
 5575TIP3    H240921   6.800   4.524   1.801 -0.0153 -1.8508  1.8654
 5576TIP3   OH240922   3.635   3.998   1.028 -0.2455  0.0438  0.4942
 5576TIP3    H140923   3.627   4.086   1.064  1.7800  0.3147  0.3588
 5576TIP3    H240924   3.618   4.010   0.934 -0.7948  0.1361  0.6009
 5577TIP3   OH240925   1.622   6.509   0.739 -0.2196  0.0809  0.0382
 5577TIP3    H140926   1.685   6.510   0.667  0.4054  1.7332  0.5581
 5577TIP3    H240927   1.641   6.428   0.787  1.2723  0.3736 -0.0274
 5578TIP3   OH240928   0.964   1.764   3.173  0.7291 -0.1511  0.1976
 5578TIP3    H140929   0.894   1.804   3.120  1.2230  1.1530  0.4892
 5578TIP3    H240930   1.021   1.837   3.195  0.9550 -0.8110  1.8840
 5579TIP3   OH240931   5.551   4.793   3.216 -0.6309  0.3838  0.2934
 5579TIP3    H140932   5.616   4.792   3.285  0.3953 -1.7139 -0.6066
 5579TIP3    H240933   5.523   4.702   3.208 -2.0505  0.8751 -0.8426
 5580TIP3   OH240934   4.228   3.645   1.520 -0.1896  0.3655 -0.3183
 5580TIP3    H140935   4.242   3.559   1.559  3.8845 -0.0137 -2.0771
 5580TIP3    H240936   4.147   3.677   1.560  0.7804 -2.0763  4.2705
 5581TIP3   OH240937   2.926   2.994   0.886  0.0264  0.4351  0.3026
 5581TIP3    H140938   3.010   3.036   0.866  0.6341 -0.5132  0.8018
 5581TIP3    H240939   2.943   2.901   0.877 -1.0209  0.2300  0.2837
 5582TIP3   OH240940   1.727   2.369   1.081  0.2010  0.5704 -0.0281
 5582TIP3    H140941   1.670   2.404   1.013  1.6765  0.8060 -1.1881
 5582TIP3    H240942   1.675   2.376   1.161 -1.5019  0.4801 -1.0689
 5583TIP3   OH240943   5.932   7.009   1.640  0.6369  0.2234 -0.2432
 5583TIP3    H140944   5.924   7.099   1.671  0.0869 -0.6944  2.6172
 5583TIP3    H240945   5.872   6.959   1.696  2.6334 -2.2574 -0.1234
 5584TIP3   OH240946   2.336   3.650   2.006 -0.0761  0.3553 -0.6609
 5584TIP3    H140947   2.245   3.680   1.999 -0.1523  0.2139 -0.2881
 5584TIP3    H240948   2.388   3.731   2.001 -0.2242  0.4366 -0.8674
 5585TIP3   OH240949   0.867   5.650   1.640 -0.0984 -0.2595 -0.1842
 5585TIP3    H140950   0.962   5.659   1.650 -0.0995 -1.2361  0.9236
 5585TIP3    H240951   0.841   5.592   1.711 -1.2635 -1.5404 -1.5983
 5586TIP3   OH240952   0.224   0.796   1.295 -0.6510  0.2407 -0.0404
 5586TIP3    H140953   0.315   0.790   1.267 -0.6895 -1.3227  0.0615
 5586TIP3    H240954   0.219   0.879   1.343  0.6048  0.5429 -0.3881
 5587TIP3   OH240955   4.359   4.817   0.612 -0.2330 -0.2642 -0.5691
 5587TIP3    H140956   4.373   4.749   0.546 -1.1749 -0.6854 -0.3514
 5587TIP3    H240957   4.279   4.791   0.657  0.8557 -0.4673  1.3470
 5588TIP3   OH240958   6.984   6.498   2.302  0.0401 -0.4620 -0.1626
 5588TIP3    H140959   6.957   6.549   2.226 -0.2508 -1.3906 -0.6990
 5588TIP3    H240960   7.028   6.421   2.265  0.5372 -0.5612  0.6234
 5589TIP3   OH240961   1.080   5.327   2.805  0.4080  0.7619  0.5159
 5589TIP3    H140962   1.055   5.390   2.872  1.3320  0.9817  0.6721
 5589TIP3    H240963   1.173   5.344   2.790  1.4008 -2.1375  2.3572
 5590TIP3   OH240964   1.238   3.669   2.388  0.1708  0.0330  0.5180
 5590TIP3    H140965   1.161   3.654   2.443  0.8606 -0.9434  1.2361
 5590TIP3    H240966   1.291   3.732   2.437 -0.4881  1.2746 -0.3129
 5591TIP3   OH240967   2.750   5.330   2.012 -0.4279  0.0870 -0.4689
 5591TIP3    H140968   2.839   5.295   2.003 -0.2594  0.5588 -0.6946
 5591TIP3    H240969   2.762   5.425   2.018 -0.9591  0.2065 -1.1691
 5592TIP3   OH240970   2.377   7.486   1.004 -0.2959  0.2349 -0.8046
 5592TIP3    H140971   2.311   7.417   1.002  0.2557 -0.2961 -0.9428
 5592TIP3    H240972   2.435   7.462   1.076  1.1858 -0.6731 -2.2506
 5593TIP3   OH240973   7.231   7.114   1.237  0.1168 -0.0978  0.1402
 5593TIP3    H140974   7.205   7.182   1.175 -0.3158 -1.6576 -1.4735
 5593TIP3    H240975   7.244   7.160   1.319 -2.9019  1.5664 -0.1707
 5594TIP3   OH240976   3.170   6.593   1.547 -0.2828  0.0517 -0.3183
 5594TIP3    H140977   3.115   6.577   1.469 -0.3506 -0.8554 -0.0898
 5594TIP3    H240978   3.210   6.509   1.566  1.6171  0.8105 -0.7785
 5595TIP3   OH240979   0.480   2.400   1.418  0.0110 -0.2340 -1.0981
 5595TIP3    H140980   0.481   2.490   1.386  1.0112  0.4739  0.7565
 5595TIP3    H240981   0.390   2.387   1.449  0.4451  1.0384  0.8761
 5596TIP3   OH240982   5.129   1.280   1.335 -0.5644 -0.0329 -0.2735
 5596TIP3    H140983   5.060   1.336   1.299 -0.2843  0.3447 -0.2257
 5596TIP3    H240984   5.083   1.219   1.392 -0.7607  0.8372  0.5139
 5597TIP3   OH240985   3.951   1.103   1.902 -0.4432  0.2500 -0.1735
 5597TIP3    H140986   3.934   1.182   1.953 -1.1406  0.7654 -1.1749
 5597TIP3    H240987   4.045   1.107   1.884 -0.2719  0.2852  0.6858
 5598TIP3   OH240988   3.878   2.327   2.121 -0.0074 -0.2608 -0.1225
 5598TIP3    H140989   3.838   2.360   2.201  1.0826 -0.5602  0.5682
 5598TIP3    H240990   3.875   2.231   2.131 -2.1595 -0.4096 -1.6095
 5599TIP3   OH240991   3.157   0.669   1.042  0.7307  0.1553 -0.9579
 5599TIP3    H140992   3.202   0.753   1.036  0.1785  0.3804 -2.1584
 5599TIP3    H240993   3.104   0.664   0.963 -1.2450 -0.1671  0.3292
 5600TIP3   OH240994   0.401   2.891   1.496  0.7838  1.0331  0.1141
 5600TIP3    H140995   0.428   2.983   1.490 -0.1376  1.3330  0.3800
 5600TIP3    H240996   0.328   2.892   1.558  1.6375 -0.0777  1.1553
 5601TIP3   OH240997   5.621   4.485   2.853  0.5379  0.3503 -0.7695
 5601TIP3    H140998   5.528   4.480   2.830 -0.0928 -0.6812  1.6299
 5601TIP3    H240999   5.667   4.445   2.779 -0.9072  0.8445 -1.9815
 5602TIP3   OH241000   6.555   0.133   2.985 -0.3525 -0.1453  0.4012
 5602TIP3    H141001   6.601   0.118   3.068 -0.5557  0.3489  0.6053
 5602TIP3    H241002   6.607   0.085   2.920  1.2974  1.5533  0.3732
 5603TIP3   OH241003   3.032   7.625   2.899 -0.0998  0.2696  0.6053
 5603TIP3    H141004   3.082   7.567   2.842  0.4726  0.4774  0.8861
 5603TIP3    H241005   3.099   7.675   2.947 -0.5251  2.4779 -0.9351
 5604TIP3   OH241006   2.796   1.358   0.899  0.0919 -0.0985 -0.4155
 5604TIP3    H141007   2.889   1.380   0.902  0.4950 -1.7513  0.1947
 5604TIP3    H241008   2.793   1.264   0.884 -1.5147  0.0486 -1.3104
 5605TIP3   OH241009   1.125   7.400   1.510  0.5976 -0.4575 -0.3313
 5605TIP3    H141010   1.101   7.493   1.521  1.4425 -0.2519 -0.1854
 5605TIP3    H241011   1.205   7.390   1.562 -0.8230 -1.8815  1.7562
 5606TIP3   OH241012   3.010   2.103   2.817 -0.2258 -0.4447 -0.6803
 5606TIP3    H141013   2.931   2.152   2.838 -0.3901 -0.4076 -1.3701
 5606TIP3    H241014   3.061   2.104   2.898 -0.3930  0.5416 -0.5752
 5607TIP3   OH241015   6.133   2.334   1.370 -0.2412 -0.2210 -0.3345
 5607TIP3    H141016   6.114   2.242   1.385  0.0148 -0.4404 -1.3027
 5607TIP3    H241017   6.225   2.336   1.346 -0.6339  0.0635 -1.9804
 5608TIP3   OH241018   7.452   2.381   1.508  0.3489 -0.4474  0.1679
 5608TIP3    H141019   7.491   2.425   1.433  2.2239  0.3832  1.5415
 5608TIP3    H241020   7.466   2.288   1.491 -1.2441 -0.4479 -1.4964
 5609TIP3   OH241021   3.289   1.880   1.143 -0.0088 -0.3584  0.1482
 5609TIP3    H141022   3.251   1.951   1.195 -1.4118 -0.9775  0.0237
 5609TIP3    H241023   3.284   1.912   1.053  1.1677  0.1562  0.2436
 5610TIP3   OH241024   2.879   5.020   0.399  0.5228  0.1305 -0.2684
 5610TIP3    H141025   2.965   5.049   0.431  0.7210 -1.2637  0.5688
 5610TIP3    H241026   2.882   4.924   0.406 -1.7555  0.1112  1.5339
 5611TIP3   OH241027   3.848   6.968   1.957  0.2720 -0.3242  0.0277
 5611TIP3    H141028   3.807   7.054   1.949  1.4419  0.6965  3.5044
 5611TIP3    H241029   3.941   6.986   1.968  0.6624 -2.1186  0.0210
 5612TIP3   OH241030   2.335   6.826   1.023 -0.0704 -0.4373  0.4437
 5612TIP3    H141031   2.304   6.758   0.962 -0.6326  1.2290 -1.2084
 5612TIP3    H241032   2.354   6.778   1.104  0.1509 -2.6574 -0.8349
 5613TIP3   OH241033   2.311   0.460   1.311 -0.2490  0.4476 -0.0895
 5613TIP3    H141034   2.383   0.437   1.370  0.7038  1.0541 -0.9862
 5613TIP3    H241035   2.342   0.538   1.265 -0.4996 -0.6379 -2.1951
 5614TIP3   OH241036   3.021   0.452   1.198 -0.2579  0.0690  0.0646
 5614TIP3    H141037   2.941   0.496   1.228 -0.8391  0.3219 -1.7081
 5614TIP3    H241038   3.076   0.523   1.165  0.0837 -0.2497 -0.0607
 5615TIP3   OH241039   2.728   1.135   2.792 -0.4887  0.4815 -0.2761
 5615TIP3    H141040   2.661   1.203   2.788 -0.2279  0.8578  1.1495
 5615TIP3    H241041   2.771   1.149   2.877  0.0070 -1.0438 -0.2498
 5616TIP3   OH241042   0.375   3.575   2.663  0.0116 -0.2423  0.3195
 5616TIP3    H141043   0.402   3.634   2.733  1.2092  0.8455 -0.9971
 5616TIP3    H241044   0.457   3.543   2.625 -0.6189 -1.8408  0.2154
 5617TIP3   OH241045   6.365   6.950   0.749 -0.4103  0.1287 -0.1323
 5617TIP3    H141046   6.315   6.876   0.783 -1.3635  0.6541 -0.3467
 5617TIP3    H241047   6.435   6.910   0.698 -2.2553 -0.6733 -2.1921
 5618TIP3   OH241048   2.471   4.648   2.431  0.0068  0.7016  0.1185
 5618TIP3    H141049   2.518   4.666   2.350 -0.6545 -0.0188 -0.4415
 5618TIP3    H241050   2.447   4.734   2.466 -0.6594  0.9905 -1.0222
 5619TIP3   OH241051   4.064   6.781   1.570 -0.5050 -0.3448 -0.0802
 5619TIP3    H141052   4.051   6.701   1.520 -1.6076 -1.1480  1.4355
 5619TIP3    H241053   4.064   6.850   1.503 -3.1829 -1.2387 -1.1575
 5620TIP3   OH241054   3.431   0.772   1.327 -0.1636 -0.5459  0.3565
 5620TIP3    H141055   3.508   0.716   1.327 -1.5222 -2.5113  0.7279
 5620TIP3    H241056   3.449   0.839   1.393  0.7941 -1.6095  1.1961
 5621TIP3   OH241057   6.087   4.675   2.542  0.4133  0.0153  0.3020
 5621TIP3    H141058   6.092   4.580   2.547 -0.2477  0.0182  1.2128
 5621TIP3    H241059   5.994   4.695   2.556  0.3817  0.7528 -0.7924
 5622TIP3   OH241060   2.761   4.344   0.518  0.1873  0.3053  0.1914
 5622TIP3    H141061   2.723   4.429   0.497 -0.4806 -0.0683 -0.1284
 5622TIP3    H241062   2.687   4.283   0.515  0.8020 -0.4277 -0.4261
 5623TIP3   OH241063   0.456   0.188   1.048 -0.0614  0.2604 -0.5086
 5623TIP3    H141064   0.422   0.103   1.077  0.1337  0.2066 -0.4380
 5623TIP3    H241065   0.527   0.166   0.987  0.1393  0.3714 -0.3178
 5624TIP3   OH241066   5.885   0.106   1.612  0.0101 -0.0649 -0.5353
 5624TIP3    H141067   5.849   0.079   1.697  1.7756  1.1652  0.6605
 5624TIP3    H241068   5.808   0.129   1.560 -1.1506 -1.3209  0.5302
 5625TIP3   OH241069   4.466   0.619   2.558 -0.2365 -0.2463 -0.2743
 5625TIP3    H141070   4.529   0.690   2.552 -0.7543  0.2270 -0.2402
 5625TIP3    H241071   4.516   0.540   2.537  0.9193 -0.2067  2.0169
 5626TIP3   OH241072   4.160   2.971   2.210 -0.2419 -0.2644  0.4276
 5626TIP3    H141073   4.223   2.980   2.139 -0.8085 -0.3587 -0.0989
 5626TIP3    H241074   4.080   3.011   2.175 -0.6473 -0.6991  0.8492
 5627TIP3   OH241075   5.631   2.423   1.256  0.2857 -0.7087  0.3089
 5627TIP3    H141076   5.590   2.503   1.223 -1.0049 -1.2853  0.4470
 5627TIP3    H241077   5.706   2.453   1.307 -0.3786  0.4329  0.6425
 5628TIP3   OH241078   5.126   4.924   2.615 -0.2812  0.3632 -0.0125
 5628TIP3    H141079   5.117   4.980   2.693  0.0993  1.0498 -0.4476
 5628TIP3    H241080   5.036   4.901   2.593 -0.7135  2.9150 -1.2937
 5629TIP3   OH241081   4.579   2.061   0.344 -0.0654 -0.1475  0.6843
 5629TIP3    H141082   4.668   2.059   0.378 -0.2997 -0.9852  1.2821
 5629TIP3    H241083   4.541   1.977   0.370 -1.1035  0.2844  0.6303
 5630TIP3   OH241084   0.316   3.919   1.513  0.1116 -0.1024 -0.1157
 5630TIP3    H141085   0.271   3.984   1.458  1.0503  2.2548  1.7407
 5630TIP3    H241086   0.367   3.971   1.574  0.3477 -2.6346  1.9934
 5631TIP3   OH241087   1.498   6.144   0.693  0.7289 -0.2388  0.3730
 5631TIP3    H141088   1.436   6.200   0.645  0.4208 -0.9827 -0.1092
 5631TIP3    H241089   1.534   6.202   0.760  0.5160  0.5847 -0.1942
 5632TIP3   OH241090   1.210   4.262   0.936  0.4515 -0.3019  0.3121
 5632TIP3    H141091   1.218   4.357   0.928 -1.0506 -0.3031 -2.7166
 5632TIP3    H241092   1.293   4.228   0.901  0.4257 -0.1042  0.0564
 5633TIP3   OH241093   0.651   0.630   1.807  0.8750  0.2988 -0.5241
 5633TIP3    H141094   0.704   0.556   1.835  0.8829  0.6553  0.4288
 5633TIP3    H241095   0.650   0.689   1.883 -0.0426  0.7617 -0.8879
 5634TIP3   OH241096   3.049   2.223   1.703 -0.4615 -0.3358  0.4465
 5634TIP3    H141097   2.988   2.272   1.648 -1.0747 -1.5219  0.0318
 5634TIP3    H241098   3.019   2.132   1.697 -0.0038 -0.6327  2.0314
 5635TIP3   OH241099   5.454   2.546   2.091  0.3768  1.1352  0.6168
 5635TIP3    H141100   5.420   2.575   2.175  1.8785  0.5783  1.4572
 5635TIP3    H241101   5.547   2.567   2.094  1.0293 -1.3241  0.2484
 5636TIP3   OH241102   1.131   2.435   2.119 -0.2475  0.2519 -0.6414
 5636TIP3    H141103   1.117   2.503   2.053  0.3841  1.4828  0.4287
 5636TIP3    H241104   1.104   2.354   2.076  1.2059  0.8199 -2.7870
 5637TIP3   OH241105   0.852   1.329   1.367  0.1447  0.7181  0.0432
 5637TIP3    H141106   0.891   1.368   1.446  0.4654  1.8814 -0.6544
 5637TIP3    H241107   0.910   1.358   1.296 -0.6050  0.3873 -0.7156
 5638TIP3   OH241108   4.591   4.942   0.679  0.2138  0.5447 -0.0076
 5638TIP3    H141109   4.640   4.869   0.716 -1.4513  0.0773  1.3959
 5638TIP3    H241110   4.513   4.903   0.640  0.4859  1.3540 -1.4668
 5639TIP3   OH241111   6.854   1.056   0.765 -0.9312 -0.4716  0.4911
 5639TIP3    H141112   6.863   0.965   0.738  0.6384 -0.8146  1.9692
 5639TIP3    H241113   6.939   1.079   0.801 -1.4556  1.4324  0.6466
 5640TIP3   OH241114   3.737   5.612   2.147  0.4386 -0.1618  0.1631
 5640TIP3    H141115   3.716   5.519   2.155  1.2033 -0.2702  1.1108
 5640TIP3    H241116   3.671   5.647   2.088  0.8000 -1.5244 -1.0893
 5641TIP3   OH241117   6.458   6.351   1.387  0.2618  0.3798  0.6323
 5641TIP3    H141118   6.481   6.440   1.360  0.4137  0.0234 -0.4771
 5641TIP3    H241119   6.381   6.361   1.442  0.7548  1.2651  1.1715
 5642TIP3   OH241120   4.523   5.849   0.513  0.3935 -0.4215  0.2230
 5642TIP3    H141121   4.495   5.932   0.475  0.2025 -0.4353  0.3340
 5642TIP3    H241122   4.490   5.782   0.452  0.8369 -0.3993 -0.0426
 5643TIP3   OH241123   2.930   6.806   3.025 -0.1996 -0.6860  0.2883
 5643TIP3    H141124   2.888   6.888   3.052 -2.0588 -1.7370  0.7039
 5643TIP3    H241125   2.895   6.788   2.938  2.5039  0.4428 -1.1683
 5644TIP3   OH241126   1.143   5.678   1.717 -0.4398  0.2380 -0.5049
 5644TIP3    H141127   1.226   5.719   1.741  0.7885 -0.8832 -2.5949
 5644TIP3    H241128   1.155   5.586   1.737 -0.7214 -0.1248 -1.8942
 5645TIP3   OH241129   0.576   3.758   1.038  0.0886  0.2310  0.0613
 5645TIP3    H141130   0.624   3.821   1.092  1.1087 -0.3345 -0.1653
 5645TIP3    H241131   0.567   3.681   1.094 -2.6766  1.1091  0.9775
 5646TIP3   OH241132   3.745   4.972   1.398 -0.0143 -0.6717  0.6822
 5646TIP3    H141133   3.827   5.018   1.416 -0.5970  0.8161 -0.2343
 5646TIP3    H241134   3.677   5.032   1.427 -0.8239 -0.5414 -1.2728
 5647TIP3   OH241135   1.666   1.067   2.872  0.3422 -0.1520  0.1594
 5647TIP3    H141136   1.606   1.119   2.819  0.7822  0.0239 -0.1751
 5647TIP3    H241137   1.692   1.126   2.944  1.6526  0.4774 -0.7932
 5648TIP3   OH241138   2.242   6.639   0.488 -0.1257 -0.0415  0.0953
 5648TIP3    H141139   2.152   6.636   0.519  0.3410 -0.1656  1.4814
 5648TIP3    H241140   2.274   6.726   0.515  0.0917  0.1075 -0.6213
 5649TIP3   OH241141   1.795   2.945   2.582 -0.6627  0.2455  0.2144
 5649TIP3    H141142   1.783   2.877   2.648  0.3015  1.4959  1.7497
 5649TIP3    H241143   1.809   3.025   2.633  2.5836  0.8617 -1.4239
 5650TIP3   OH241144   5.840   6.502   2.043 -0.5435 -0.0304 -0.2836
 5650TIP3    H141145   5.749   6.479   2.060  0.5548 -4.8045  0.7565
 5650TIP3    H241146   5.878   6.514   2.130  0.6846 -3.3042 -0.2010
 5651TIP3   OH241147   1.268   6.246   2.010 -0.0174  0.6338  0.4240
 5651TIP3    H141148   1.174   6.257   2.001 -0.1731 -1.2059 -0.6948
 5651TIP3    H241149   1.277   6.179   2.078  0.4264 -0.1335 -0.3849
 5652TIP3   OH241150   6.460   4.086   1.281 -0.3967  0.2585 -0.2421
 5652TIP3    H141151   6.490   4.099   1.371  0.0144  0.7897 -0.4541
 5652TIP3    H241152   6.505   4.153   1.231  0.8234 -1.2118 -1.1778
 5653TIP3   OH241153   1.885   2.413   2.321 -0.3548  0.5758  0.0147
 5653TIP3    H141154   1.879   2.328   2.279  1.6664  1.2533 -1.8022
 5653TIP3    H241155   1.796   2.449   2.315 -0.6812 -0.3881 -1.4368
 5654TIP3   OH241156   0.589   0.563   2.276 -0.0842 -0.6380 -0.0130
 5654TIP3    H141157   0.628   0.650   2.278 -0.7991 -0.3160  0.5740
 5654TIP3    H241158   0.608   0.526   2.362 -0.0785 -0.9226 -0.1367
 5655TIP3   OH241159   3.162   1.825   0.720  0.0784 -0.3236 -0.2572
 5655TIP3    H141160   3.220   1.867   0.784  1.7940 -0.7047 -1.4718
 5655TIP3    H241161   3.108   1.896   0.686 -0.5850 -0.0532  1.3061
 5656TIP3   OH241162   2.788   5.986   1.966 -0.0123 -0.1391  0.0105
 5656TIP3    H141163   2.879   6.015   1.974  0.2999 -0.9845 -0.3352
 5656TIP3    H241164   2.790   5.924   1.893 -1.0552  0.5667 -0.6546
 5657TIP3   OH241165   6.994   0.447   0.515  0.1341  0.1908  0.3476
 5657TIP3    H141166   7.002   0.501   0.594 -1.6400  0.0743  0.6643
 5657TIP3    H241167   7.042   0.495   0.448  0.3732  1.0849  1.1312
 5658TIP3   OH241168   0.143   5.898   1.111 -0.0462 -0.5536  0.2108
 5658TIP3    H141169   0.181   5.840   1.177  0.7148 -1.4718 -0.9928
 5658TIP3    H241170   0.048   5.887   1.121 -0.0149  0.6287  2.2563
 5659TIP3   OH241171   2.936   1.073   1.980  0.3397 -0.2311 -0.5723
 5659TIP3    H141172   2.971   1.138   1.919  0.5519  0.5891  0.3871
 5659TIP3    H241173   3.002   1.069   2.050 -0.5428 -0.1017  0.2930
 5660TIP3   OH241174   5.298   6.910   0.732  0.0022  0.1939 -0.1416
 5660TIP3    H141175   5.317   6.968   0.806 -0.3147  0.8379 -0.5485
 5660TIP3    H241176   5.381   6.865   0.714  0.5347  1.2635 -0.4451
 5661TIP3   OH241177   2.727   1.447   2.888 -0.8783 -0.0341 -0.1023
 5661TIP3    H141178   2.700   1.538   2.897 -0.2171  0.2387 -0.7672
 5661TIP3    H241179   2.646   1.398   2.874 -1.1364  0.5915 -0.8121
 5662TIP3   OH241180   0.050   0.292   0.614  0.2056 -0.0145 -0.1465
 5662TIP3    H141181   0.095   0.297   0.698  0.2044  0.7247 -0.1877
 5662TIP3    H241182  -0.038   0.327   0.631  0.9394  2.4303 -0.9540
 5663TIP3   OH241183   4.967   3.612   2.203 -0.4091 -0.2635  0.2454
 5663TIP3    H141184   4.927   3.589   2.287  1.0147 -0.7973  0.8091
 5663TIP3    H241185   4.911   3.570   2.137 -1.1422 -0.4351  0.9652
 5664TIP3   OH241186   5.305   4.551   0.600 -0.2306  0.5261  0.3056
 5664TIP3    H141187   5.276   4.461   0.588  0.4211  0.5029 -1.3870
 5664TIP3    H241188   5.333   4.579   0.513  2.0676  1.4861  1.2830
 5665TIP3   OH241189   4.446   1.326   0.774 -0.1602  0.2590 -0.4733
 5665TIP3    H141190   4.402   1.259   0.722 -1.9715  0.3186  0.9100
 5665TIP3    H241191   4.527   1.343   0.726 -0.2925 -1.9023 -1.5978
 5666TIP3   OH241192   0.704   6.115   1.124  0.3512  0.1397 -0.2370
 5666TIP3    H141193   0.702   6.020   1.113 -0.2542  0.2845 -1.6253
 5666TIP3    H241194   0.782   6.144   1.076  0.4747  0.3580  0.0900
 5667TIP3   OH241195   3.456   6.573   1.246 -0.3598 -0.8346  0.8174
 5667TIP3    H141196   3.507   6.653   1.255  0.4326 -0.9189 -2.1144
 5667TIP3    H241197   3.365   6.602   1.250 -0.0842  0.2123 -0.0237
 5668TIP3   OH241198   2.976   3.671   1.097  0.6863  0.1183 -0.3632
 5668TIP3    H141199   3.065   3.704   1.100  1.1305 -0.9840 -0.8095
 5668TIP3    H241200   2.973   3.604   1.166 -0.3704  1.4381  0.9410
 5669TIP3   OH241201   0.788   6.174   2.839  0.3475 -0.0319 -0.3179
 5669TIP3    H141202   0.804   6.268   2.831 -1.3799  0.3011 -0.2762
 5669TIP3    H241203   0.866   6.139   2.882  1.2036  1.2999 -0.7463
 5670TIP3   OH241204   2.997   0.524   0.503 -0.4254  0.5324  0.5815
 5670TIP3    H141205   2.910   0.501   0.537 -0.4430  0.9605  0.8278
 5670TIP3    H241206   3.014   0.459   0.435 -0.9356  0.4396  0.5402
 5671TIP3   OH241207   4.574   1.001   2.300  0.1448  0.1710  0.0363
 5671TIP3    H141208   4.638   1.055   2.254 -0.0950  0.3346 -0.1093
 5671TIP3    H241209   4.568   1.040   2.387  0.4682 -0.0319  0.1524
 5672TIP3   OH241210   5.609   4.688   2.497  0.3643 -0.0262  0.4201
 5672TIP3    H141211   5.658   4.606   2.487 -2.1150 -1.2668 -3.6098
 5672TIP3    H241212   5.517   4.661   2.498 -0.4904  2.6480  0.9326
 5673TIP3   OH241213   0.749   0.310   2.941 -0.1335 -0.0841 -0.0710
 5673TIP3    H141214   0.686   0.291   3.012  0.0918 -0.7446 -0.0340
 5673TIP3    H241215   0.830   0.268   2.971  0.6556  1.7192  0.4079
 5674TIP3   OH241216   2.322   5.274   1.822 -0.1029 -0.4027 -0.1980
 5674TIP3    H141217   2.333   5.324   1.741 -0.2104  0.8569  0.5331
 5674TIP3    H241218   2.411   5.262   1.856 -0.1181 -0.1028 -0.0408
 5675TIP3   OH241219   3.011   3.239   0.493 -0.2366 -0.8048 -0.4033
 5675TIP3    H141220   3.097   3.212   0.526 -1.7148 -1.7632  3.0550
 5675TIP3    H241221   2.987   3.169   0.431  0.0543 -2.4300  1.2320
 5676TIP3   OH241222   0.103   3.705   1.592 -0.5668  0.1942 -0.0130
 5676TIP3    H141223   0.120   3.715   1.685 -1.7959 -0.8485  0.3604
 5676TIP3    H241224   0.135   3.786   1.552  0.9201  0.2241  1.1561
 5677TIP3   OH241225   2.612   6.894   1.636  0.2226 -0.3920  0.0197
 5677TIP3    H141226   2.531   6.938   1.611  0.7362 -0.0753 -1.1885
 5677TIP3    H241227   2.624   6.914   1.728 -0.5484  0.4083 -0.0498
 5678TIP3   OH241228   6.952   4.227   1.170  0.0015  0.4021 -0.0513
 5678TIP3    H141229   7.036   4.203   1.209 -0.8321 -0.3600  1.3586
 5678TIP3    H241230   6.899   4.257   1.244 -0.7449  1.5460 -1.0236
 5679TIP3   OH241231   4.417   5.625   0.360 -0.2389 -0.3159  0.6225
 5679TIP3    H141232   4.336   5.575   0.359  0.1518 -0.9520  0.5898
 5679TIP3    H241233   4.472   5.584   0.293 -1.0805  2.1154 -1.7694
 5680TIP3   OH241234   1.543   1.029   1.029  0.1541  0.0322 -0.5622
 5680TIP3    H141235   1.597   0.951   1.010  0.6899  0.1725  0.3530
 5680TIP3    H241236   1.459   0.993   1.057 -0.1923 -0.1888 -1.7892
 5681TIP3   OH241237   1.448   6.105   1.072  0.2608 -0.2226  0.2556
 5681TIP3    H141238   1.363   6.080   1.107  0.3730 -1.4965 -0.3140
 5681TIP3    H241239   1.508   6.095   1.146  0.1409 -0.7510  0.2890
 5682TIP3   OH241240   1.461   4.246   3.227  0.2039  0.4083  0.3388
 5682TIP3    H141241   1.533   4.183   3.225 -0.6848 -0.6071 -0.4080
 5682TIP3    H241242   1.443   4.265   3.135 -0.2259  0.9674  0.5323
 5683TIP3   OH241243   0.262   1.626   2.756  0.5441  0.6915 -0.2110
 5683TIP3    H141244   0.229   1.556   2.813 -1.1378  1.5080 -0.1228
 5683TIP3    H241245   0.328   1.583   2.701  1.3314 -0.3842  1.4904
 5684TIP3   OH241246   3.990   1.373   1.488  0.0844 -0.2368  0.3072
 5684TIP3    H141247   4.059   1.438   1.472 -1.0408  1.1658  0.9760
 5684TIP3    H241248   3.939   1.372   1.407 -0.3538  0.2967  0.5720
 5685TIP3   OH241249   3.838   0.420   1.130 -0.7267 -0.3447  0.7978
 5685TIP3    H141250   3.909   0.480   1.108 -0.4172 -1.0180 -0.1022
 5685TIP3    H241251   3.797   0.399   1.046 -1.2695 -0.8494  1.1788
 5686TIP3   OH241252   6.198   7.223   1.392  0.3829 -0.3561 -0.5968
 5686TIP3    H141253   6.113   7.197   1.356 -0.2506 -0.7009  1.0813
 5686TIP3    H241254   6.254   7.147   1.378 -0.5175 -1.4178  1.2002
 5687TIP3   OH241255   4.459   3.376   2.480  0.0231  0.5970 -0.1692
 5687TIP3    H141256   4.445   3.315   2.553 -0.7545  0.9896  0.0150
 5687TIP3    H241257   4.372   3.408   2.459  0.1108 -0.2088 -1.8977
 5688TIP3   OH241258   6.843   1.489   1.868 -0.4716  0.2708 -0.2850
 5688TIP3    H141259   6.870   1.570   1.910 -2.4487  1.0703 -0.4293
 5688TIP3    H241260   6.861   1.421   1.932  0.5590  0.8981  0.1159
 5689TIP3   OH241261   4.301   3.729   2.683  0.4065  0.1960  0.3518
 5689TIP3    H141262   4.321   3.727   2.777  1.4991 -0.1800  0.1323
 5689TIP3    H241263   4.290   3.822   2.663  0.8395  0.3348  0.7323
 5690TIP3   OH241264   4.943   2.356   0.955 -0.0079  0.1784  0.0782
 5690TIP3    H141265   4.956   2.283   1.015 -0.8318  0.4425  0.5969
 5690TIP3    H241266   5.032   2.380   0.927  0.4809  0.5050  1.7501
 5691TIP3   OH241267   6.269   2.586   2.476 -0.6996  0.3923  0.2240
 5691TIP3    H141268   6.332   2.636   2.425 -0.3211  0.9708  1.2213
 5691TIP3    H241269   6.306   2.583   2.564 -0.8960 -1.3508  0.2829
 5692TIP3   OH241270   5.554   2.198   2.831 -0.4467 -0.0480 -0.1205
 5692TIP3    H141271   5.462   2.181   2.811 -1.3984  1.9823  1.9153
 5692TIP3    H241272   5.553   2.286   2.870  2.7101  1.0356 -2.1140
 5693TIP3   OH241273   0.935   2.097   2.467  0.3461  0.0724  0.1353
 5693TIP3    H141274   0.852   2.116   2.424  0.5086 -0.4010 -0.3983
 5693TIP3    H241275   0.932   2.147   2.548  0.5608  1.9858 -0.9869
 5694TIP3   OH241276   2.378   0.636   1.695 -0.6362  0.1967 -0.4126
 5694TIP3    H141277   2.367   0.682   1.612 -1.3844 -2.0784 -1.6592
 5694TIP3    H241278   2.300   0.658   1.746  0.7104  3.1393  0.5689
 5695TIP3   OH241279   6.656   3.510   0.400  0.2551 -0.2035  0.5479
 5695TIP3    H141280   6.651   3.583   0.462 -1.4226 -1.8038  2.4353
 5695TIP3    H241281   6.573   3.511   0.353  0.9011  0.0783 -0.6180
 5696TIP3   OH241282   2.522   2.292   2.517 -0.5354 -0.0654 -0.0337
 5696TIP3    H141283   2.567   2.337   2.588  0.4198  0.8621 -1.1664
 5696TIP3    H241284   2.483   2.362   2.465 -0.9815 -0.6995 -0.5725
 5697TIP3   OH241285   1.837   4.915   1.615  0.7188  0.5317  0.1669
 5697TIP3    H141286   1.761   4.857   1.605  0.9868  0.4872 -2.1988
 5697TIP3    H241287   1.910   4.856   1.635  0.6694  0.2126 -0.5520
 5698TIP3   OH241288   3.869   0.658   2.897 -0.0883  0.5173  0.3872
 5698TIP3    H141289   3.778   0.648   2.872 -0.2903  1.5316  0.6506
 5698TIP3    H241290   3.910   0.574   2.876 -0.9409  0.2649 -0.3074
 5699TIP3   OH241291   2.865   2.692   1.134 -0.1106  0.1199 -0.2329
 5699TIP3    H141292   2.818   2.628   1.080 -2.1715  2.2671 -1.1516
 5699TIP3    H241293   2.797   2.750   1.167  1.6343  1.6174  0.9073
 5700TIP3   OH241294   1.473   0.678   1.273 -0.7322 -0.3956  0.6021
 5700TIP3    H141295   1.518   0.608   1.227  0.4795  0.3586  0.5847
 5700TIP3    H241296   1.407   0.709   1.211  0.0869 -0.1810 -0.1791
 5701TIP3   OH241297   5.150   5.909   0.990  0.1744 -0.5403 -0.0114
 5701TIP3    H141298   5.164   5.983   1.048  0.6690 -0.4427 -0.2476
 5701TIP3    H241299   5.068   5.929   0.945 -0.7574 -1.1087  1.3773
 5702TIP3   OH241300   1.395   5.775   1.760 -0.3329 -0.6414 -0.0003
 5702TIP3    H141301   1.422   5.794   1.670 -0.1089  3.1664  0.6951
 5702TIP3    H241302   1.475   5.780   1.811 -0.8358 -0.0010  0.7478
 5703TIP3   OH241303   3.918   1.649   3.216 -0.2201 -0.1499 -0.7986
 5703TIP3    H141304   3.850   1.645   3.148 -0.2920 -1.0063 -0.6928
 5703TIP3    H241305   3.972   1.571   3.201 -0.2918 -0.4087  0.1724
 5704TIP3   OH241306   1.640   7.570   2.219 -0.2944  0.0602 -0.6016
 5704TIP3    H141307   1.707   7.513   2.257 -0.7373 -0.2454 -0.2643
 5704TIP3    H241308   1.642   7.648   2.274 -1.5383 -0.7339  0.6421
 5705TIP3   OH241309   2.071   5.889   1.524 -0.5763  0.3115 -0.4878
 5705TIP3    H141310   2.017   5.812   1.537 -0.1795  0.2274  0.7685
 5705TIP3    H241311   2.010   5.957   1.494 -1.1033 -0.1839 -0.5412
 5706TIP3   OH241312   5.013   3.658   0.726  0.3704  0.4070  0.5852
 5706TIP3    H141313   4.937   3.599   0.727  0.7881 -0.1622 -0.0200
 5706TIP3    H241314   5.070   3.623   0.794  0.5103  0.2489  0.3894
 5707TIP3   OH241315   7.398   4.297   0.996 -0.1396 -0.0822 -0.2678
 5707TIP3    H141316   7.403   4.240   1.072  1.4514  0.2238 -0.1008
 5707TIP3    H241317   7.425   4.242   0.923  1.2873  0.3985 -0.1240
 5708TIP3   OH241318   4.680   5.660   2.344  0.3451  0.0453 -0.0450
 5708TIP3    H141319   4.743   5.672   2.416  0.0726  2.1561 -0.1082
 5708TIP3    H241320   4.734   5.653   2.266  0.5498  0.5784  0.0467
 5709TIP3   OH241321   5.700   2.325   2.440 -0.3156 -0.5066 -0.0121
 5709TIP3    H141322   5.717   2.266   2.367 -2.5217 -0.2543 -0.8023
 5709TIP3    H241323   5.627   2.285   2.487 -0.7481  0.7238  0.4040
 5710TIP3   OH241324   7.257   2.712   0.707 -0.0833 -0.3723 -0.2948
 5710TIP3    H141325   7.275   2.623   0.676  0.4261  0.0494 -1.2331
 5710TIP3    H241326   7.279   2.769   0.633 -2.9104  0.3833 -0.6719
 5711TIP3   OH241327   5.558   5.444   1.124 -0.0075  0.1059  0.0828
 5711TIP3    H141328   5.514   5.366   1.159  1.2339 -0.9732 -0.6388
 5711TIP3    H241329   5.563   5.504   1.197 -1.9124 -0.0631  0.3993
 5712TIP3   OH241330   7.020   1.013   1.264  0.4238  0.5092 -0.1250
 5712TIP3    H141331   7.049   0.985   1.351  1.0242 -0.2857 -0.5636
 5712TIP3    H241332   7.095   1.060   1.227  0.5944 -0.1453 -0.6415
 5713TIP3   OH241333   6.518   4.394   1.241 -0.7168  0.1563  0.4121
 5713TIP3    H141334   6.447   4.455   1.220 -0.5844 -0.3706 -1.8450
 5713TIP3    H241335   6.597   4.438   1.210 -0.3227 -0.1683  0.9457
 5714TIP3   OH241336   4.391   1.517   0.553  0.3002 -0.3453  0.0328
 5714TIP3    H141337   4.395   1.590   0.491 -0.9598 -0.6827 -0.4969
 5714TIP3    H241338   4.342   1.552   0.628 -1.7471 -1.0278 -0.8922
 5715TIP3   OH241339   0.017   0.261   1.560  0.4674  0.1400 -0.6402
 5715TIP3    H141340  -0.006   0.187   1.616  1.9494  0.4898  0.4994
 5715TIP3    H241341  -0.040   0.252   1.483  0.1216 -1.7658 -0.2094
 5716TIP3   OH241342   3.805   4.237   1.679 -0.6105  0.1517 -0.1628
 5716TIP3    H141343   3.807   4.210   1.770 -0.7667 -0.0496 -0.2179
 5716TIP3    H241344   3.786   4.330   1.682 -0.2086  0.2287  0.0239
 5717TIP3   OH241345   2.159   3.827   1.863  0.2342 -0.2154  0.0628
 5717TIP3    H141346   2.237   3.882   1.867  1.1270 -1.1574 -2.2581
 5717TIP3    H241347   2.111   3.860   1.786 -2.0639  0.7688  1.7946
 5718TIP3   OH241348   6.078   7.102   0.819 -0.5305 -0.1454  0.0484
 5718TIP3    H141349   6.165   7.077   0.786  0.3597  2.4097  0.2676
 5718TIP3    H241350   6.017   7.057   0.761  0.9722  0.3990 -2.0784
 5719TIP3   OH241351   0.849   3.112   2.460  1.0227 -0.0240  0.0148
 5719TIP3    H141352   0.907   3.185   2.480 -2.2058  2.1375  2.6733
 5719TIP3    H241353   0.836   3.069   2.544  1.2203 -2.4543 -1.1290
 5720TIP3   OH241354   1.000   0.198   0.591 -0.0425 -0.4725 -0.3097
 5720TIP3    H141355   0.948   0.125   0.559  0.2977 -0.9018  0.0865
 5720TIP3    H241356   1.040   0.164   0.672  0.4644  0.0011 -0.3576
 5721TIP3   OH241357   7.674   3.347   0.555  0.0305  0.6082  0.0377
 5721TIP3    H141358   7.645   3.390   0.474 -1.8501 -3.2590 -1.6137
 5721TIP3    H241359   7.609   3.374   0.621 -1.4343 -0.0477 -1.0855
 5722TIP3   OH241360   5.549   6.478   0.999  0.1842  0.2158  0.1105
 5722TIP3    H141361   5.572   6.557   1.047  3.2278 -1.5741  1.9491
 5722TIP3    H241362   5.615   6.473   0.929 -0.9477  0.0465 -0.9915
 5723TIP3   OH241363   0.268   4.020   3.374 -0.1380 -1.1749  0.4150
 5723TIP3    H141364   0.299   3.951   3.314 -0.5827 -0.5935 -0.5022
 5723TIP3    H241365   0.174   4.003   3.384 -1.6094  2.2679 -4.1327
 5724TIP3   OH241366   2.759   4.987   1.474  0.1218 -0.1618  0.1277
 5724TIP3    H141367   2.720   5.067   1.508  0.0895 -0.3599  0.5590
 5724TIP3    H241368   2.772   5.005   1.380 -0.9466 -0.0690 -0.0210
 5725TIP3   OH241369   7.439   1.022   2.014 -0.2228 -0.0765 -0.2828
 5725TIP3    H141370   7.477   0.937   2.037  1.8765  0.5105 -1.3653
 5725TIP3    H241371   7.399   1.052   2.096  0.6308 -1.2780  0.6247
 5726TIP3   OH241372   1.004   1.097   0.824 -0.0112 -0.1971 -0.3505
 5726TIP3    H141373   1.096   1.077   0.845 -0.8417 -3.6452  0.6663
 5726TIP3    H241374   0.983   1.037   0.752 -1.6138  0.1132 -0.1766
 5727TIP3   OH241375   5.590   4.059   2.328 -0.0864 -0.0187  0.1707
 5727TIP3    H141376   5.538   4.137   2.350 -0.7004 -0.3668 -0.0166
 5727TIP3    H241377   5.614   4.072   2.236 -0.8808 -0.4182 -0.1091
 5728TIP3   OH241378   1.509   0.847   2.907  0.5874 -0.1609  0.0430
 5728TIP3    H141379   1.579   0.912   2.901  1.4277 -1.0590 -0.1201
 5728TIP3    H241380   1.484   0.830   2.816  0.4152 -0.1241  0.0826
 5729TIP3   OH241381   3.350   6.156   1.241 -0.5440 -0.3420 -0.0073
 5729TIP3    H141382   3.270   6.142   1.191 -0.1144 -0.3936 -0.6973
 5729TIP3    H241383   3.327   6.132   1.331 -1.4431  0.1692 -0.0970
 5730TIP3   OH241384   1.927   1.257   0.557 -0.6213 -0.2053 -0.6782
 5730TIP3    H141385   1.895   1.175   0.596 -1.8599 -0.4658 -2.1220
 5730TIP3    H241386   2.000   1.230   0.501 -0.2734 -0.1510 -0.2521
 5731TIP3   OH241387   6.148   4.119   1.833 -0.0731  0.2794  0.1655
 5731TIP3    H141388   6.202   4.192   1.805  0.6426  0.1737  1.2238
 5731TIP3    H241389   6.193   4.041   1.800  0.9931  0.1259  1.8309
 5732TIP3   OH241390   7.137   0.430   1.476  0.1631  0.5735 -0.5115
 5732TIP3    H141391   7.228   0.457   1.463  0.7146 -1.0707 -0.3507
 5732TIP3    H241392   7.102   0.422   1.388  0.5620  0.0356 -0.6299
 5733TIP3   OH241393   4.725   3.070   1.231 -0.1460 -0.1269 -0.2064
 5733TIP3    H141394   4.760   2.993   1.276  0.8485 -0.0635 -0.8377
 5733TIP3    H241395   4.650   3.096   1.284 -0.7331 -1.7388 -0.1770
 5734TIP3   OH241396   5.134   0.883   1.269 -0.2407 -0.1883  0.0698
 5734TIP3    H141397   5.167   0.818   1.330  0.5630  1.5602  1.6089
 5734TIP3    H241398   5.213   0.926   1.235 -0.7724  0.9469  0.2139
 5735TIP3   OH241399   6.316   4.588   3.288  0.3106  0.2071  0.0213
 5735TIP3    H141400   6.399   4.550   3.318 -0.6792 -1.8164  0.3336
 5735TIP3    H241401   6.342   4.650   3.219  2.1007 -0.1773  0.3097
 5736TIP3   OH241402   5.188   0.198   1.326  0.1186  0.3616  0.1600
 5736TIP3    H141403   5.199   0.103   1.316  1.6058  0.6118 -0.9012
 5736TIP3    H241404   5.094   0.212   1.316  0.1519 -0.7367 -2.3590
 5737TIP3   OH241405   6.205   5.448   2.750  0.5345  0.4792 -0.2660
 5737TIP3    H141406   6.198   5.357   2.780 -0.6282  0.7018  0.2256
 5737TIP3    H241407   6.297   5.460   2.728  0.6000 -0.9792 -0.8554
 5738TIP3   OH241408   3.826   1.954   0.692 -0.6194  0.1682 -0.7813
 5738TIP3    H141409   3.913   1.962   0.732 -0.8601  2.5827 -0.6155
 5738TIP3    H241410   3.825   1.865   0.657  1.3182 -0.4755  0.5656
 5739TIP3   OH241411   2.983   5.166   1.173  0.0929  0.3798 -0.7214
 5739TIP3    H141412   3.067   5.121   1.171 -0.2481 -0.4114  0.9781
 5739TIP3    H241413   2.919   5.097   1.186 -0.9700  0.8630 -2.9534
 5740TIP3   OH241414   3.042   3.432   0.900 -0.0755 -0.5196 -0.1131
 5740TIP3    H141415   2.963   3.466   0.942 -0.4203  1.0749 -1.9144
 5740TIP3    H241416   3.051   3.484   0.821  1.7223 -1.9846 -0.9416
 5741TIP3   OH241417   2.010   4.608   2.002 -0.6642  0.3155 -0.2655
 5741TIP3    H141418   1.940   4.672   1.987  0.1978  0.6642 -3.2966
 5741TIP3    H241419   2.052   4.638   2.083 -1.6052  2.3412 -0.4542
 5742TIP3   OH241420   4.519   2.188   1.526 -0.0180 -0.3256  0.0313
 5742TIP3    H141421   4.576   2.254   1.486 -0.8522  0.2262 -0.2762
 5742TIP3    H241422   4.509   2.216   1.617  0.7657 -0.8193  0.2782
 5743TIP3   OH241423   6.146   0.795   9.053  0.0424 -0.2755  0.4268
 5743TIP3    H141424   6.110   0.725   9.107  0.0163 -0.2070  0.4989
 5743TIP3    H241425   6.231   0.763   9.024 -0.3711 -0.7214 -0.3155
 5744TIP3   OH241426   3.649   5.178   3.415 -0.5336  0.5095 -0.5979
 5744TIP3    H141427   3.707   5.144   3.483 -0.1702  0.0634 -1.1132
 5744TIP3    H241428   3.566   5.132   3.429 -0.7039  1.0073  0.0254
 5745TIP3   OH241429   5.902   4.237   0.874  0.7505 -0.1209 -0.8366
 5745TIP3    H141430   5.843   4.305   0.841 -0.4793 -0.7301  0.0533
 5745TIP3    H241431   5.893   4.241   0.969  1.0249 -1.2156 -0.7483
 5746TIP3   OH241432   7.614   4.439   1.104 -0.2152  0.3005 -0.3743
 5746TIP3    H141433   7.529   4.408   1.073  0.7606 -0.4639 -2.4615
 5746TIP3    H241434   7.642   4.372   1.167 -1.0664  0.4713  0.2017
 5747TIP3   OH241435   3.435   0.865   1.735  0.2452  0.1750  0.0286
 5747TIP3    H141436   3.402   0.781   1.703 -2.1527  0.9793  0.1740
 5747TIP3    H241437   3.376   0.930   1.696  1.6707  1.7646  0.4041
 5748TIP3   OH241438   0.837   3.940   2.472  0.1534  0.0738  0.1315
 5748TIP3    H141439   0.786   4.010   2.512  0.7253 -0.5499  2.0983
 5748TIP3    H241440   0.865   3.975   2.388 -0.4296  1.7996  0.6152
 5749TIP3   OH241441   3.870   3.092   1.607  0.1367 -0.2854  0.0481
 5749TIP3    H141442   3.910   3.176   1.629 -1.3752  0.8019 -1.1856
 5749TIP3    H241443   3.907   3.069   1.522  0.7235 -0.9979  0.4901
 5750TIP3   OH241444   5.568   1.679   1.573  0.4468  0.0348 -0.0205
 5750TIP3    H141445   5.620   1.756   1.551  0.1260  0.0833 -0.6329
 5750TIP3    H241446   5.618   1.606   1.536  0.7413 -0.0529  0.5430
 5751TIP3   OH241447   3.729   5.345   2.945  0.0976 -0.2467  0.2312
 5751TIP3    H141448   3.772   5.416   2.993 -0.2570 -0.0846  0.3093
 5751TIP3    H241449   3.685   5.293   3.012  0.4485 -0.6085  0.1856
 5752TIP3   OH241450   3.413   0.474   2.407 -0.4958 -0.5345  0.3188
 5752TIP3    H141451   3.460   0.441   2.484 -1.1407  0.0306  0.9711
 5752TIP3    H241452   3.481   0.482   2.339  0.7186  1.7861  1.6917
 5753TIP3   OH241453   2.052   4.591   2.967  0.1644  0.5616 -0.2404
 5753TIP3    H141454   2.116   4.644   3.014  0.5983 -0.1368 -0.0260
 5753TIP3    H241455   2.001   4.549   3.036  0.1264  0.3429 -0.4009
 5754TIP3   OH241456   3.747   5.849   2.300  0.0358  0.1570 -0.0956
 5754TIP3    H141457   3.654   5.856   2.279  0.0169 -1.4640 -0.7017
 5754TIP3    H241458   3.775   5.768   2.259  1.4466 -0.0209  1.1172
 5755TIP3   OH241459   5.929   7.283   1.694  0.3086  0.3368  0.3896
 5755TIP3    H141460   5.877   7.313   1.769 -0.6578 -0.8833  0.2382
 5755TIP3    H241461   5.933   7.360   1.636  0.5231  1.0992  1.3888
 5756TIP3   OH241462   0.986   6.491   2.938  0.1056  0.0252  0.6037
 5756TIP3    H141463   0.982   6.415   2.995  3.2769 -0.1647  0.7399
 5756TIP3    H241464   0.994   6.565   2.999 -1.0954  0.3387  0.4211
 5757TIP3   OH241465   2.678   2.405   1.232 -0.0533 -0.1768  0.8749
 5757TIP3    H141466   2.649   2.379   1.319  1.4627 -0.8409  1.2164
 5757TIP3    H241467   2.750   2.345   1.211  0.3059  0.6360 -0.3931
 5758TIP3   OH241468   1.341   3.215   0.916  0.4082 -0.3122  0.4861
 5758TIP3    H141469   1.323   3.165   0.995 -0.2863 -1.2302 -0.2211
 5758TIP3    H241470   1.325   3.306   0.940 -1.4980 -0.7339  0.9498
 5759TIP3   OH241471   7.166   3.147   1.910 -0.2380  0.0676  0.5626
 5759TIP3    H141472   7.129   3.104   1.988  1.2514 -3.2259 -0.3685
 5759TIP3    H241473   7.260   3.142   1.924  0.0144  0.7744 -0.8025
 5760TIP3   OH241474   2.968   6.322   1.869  0.1394 -0.1037  0.0459
 5760TIP3    H141475   3.042   6.358   1.919 -0.1740 -0.7425  0.9906
 5760TIP3    H241476   2.945   6.392   1.807  0.0555  1.0092  1.2912
 5761TIP3   OH241477   6.953   1.916   3.119  0.2789  0.3158  1.2272
 5761TIP3    H141478   6.994   1.830   3.110 -0.6250 -0.3060  2.6528
 5761TIP3    H241479   6.864   1.904   3.087  0.5892  1.1700 -0.0690
 5762TIP3   OH241480   4.443   0.669   0.697 -0.3279 -0.1523  0.1480
 5762TIP3    H141481   4.435   0.637   0.607 -0.5168 -2.4200  0.8978
 5762TIP3    H241482   4.481   0.756   0.688 -1.1664  0.0611 -2.1628
 5763TIP3   OH241483   4.831   4.506   2.099 -0.4120 -0.2541  0.3325
 5763TIP3    H141484   4.774   4.535   2.170  0.1575 -2.0438  1.6025
 5763TIP3    H241485   4.806   4.414   2.085  2.4685 -1.3226  1.3817
 5764TIP3   OH241486   5.340   1.502   2.246 -0.3114 -0.1718  0.2614
 5764TIP3    H141487   5.321   1.449   2.169  0.4713 -0.3057  0.1480
 5764TIP3    H241488   5.287   1.464   2.316 -1.2657  0.1460 -0.2802
 5765TIP3   OH241489   4.040   5.158   3.134 -1.0798 -0.3584 -0.0593
 5765TIP3    H141490   4.117   5.171   3.189 -0.2135 -1.0656 -1.0815
 5765TIP3    H241491   4.009   5.247   3.116 -0.0029 -0.0228 -0.3297
 5766TIP3   OH241492   1.676   2.691   1.026 -0.2081 -0.1529  0.4021
 5766TIP3    H141493   1.662   2.618   0.965 -0.9881 -0.8801  1.3944
 5766TIP3    H241494   1.749   2.740   0.989 -1.0797 -0.1638 -1.4721
 5767TIP3   OH241495   5.588   4.031   2.615  0.7342 -0.3450 -0.3747
 5767TIP3    H141496   5.615   3.996   2.700 -2.4825 -0.5838  0.6960
 5767TIP3    H241497   5.641   3.983   2.551  3.0260 -0.3854  1.4153
 5768TIP3   OH241498   4.110   6.994   2.029 -0.0581 -0.0705  0.1984
 5768TIP3    H141499   4.076   7.061   2.089  0.6250  0.3732  0.0918
 5768TIP3    H241500   4.147   6.927   2.087  0.7772  0.4511  0.2737
 5769TIP3   OH241501   0.495   3.118   0.844  0.0711 -0.1656  0.3121
 5769TIP3    H141502   0.412   3.159   0.867 -0.7614 -1.6226 -0.0305
 5769TIP3    H241503   0.489   3.100   0.750  0.0438 -1.8292  0.5987
 5770TIP3   OH241504   0.532   1.438   2.897  0.3026 -0.0155 -0.4589
 5770TIP3    H141505   0.439   1.424   2.878  0.1428 -0.7901  0.7756
 5770TIP3    H241506   0.574   1.356   2.874  0.6162  0.1919 -0.6254
 5771TIP3   OH241507   6.543   7.186   2.092 -0.2186  0.1506  0.5512
 5771TIP3    H141508   6.483   7.172   2.019 -0.3849  0.5552  0.6085
 5771TIP3    H241509   6.588   7.102   2.102 -2.0263 -0.7471  1.6436
 5772TIP3   OH241510   3.014   3.352   2.708  0.0194 -0.3499 -0.0073
 5772TIP3    H141511   2.954   3.308   2.768 -0.2214 -1.9155 -1.3252
 5772TIP3    H241512   3.100   3.343   2.749 -0.2539 -0.6691  0.5069
 5773TIP3   OH241513   6.453   0.304   1.114  0.8224 -0.3988 -0.2838
 5773TIP3    H141514   6.461   0.391   1.154  1.1869  0.1540 -1.5178
 5773TIP3    H241515   6.368   0.305   1.071  0.3512 -1.0597  0.5835
 5774TIP3   OH241516   7.168   4.641   1.407  0.2932 -0.3642  0.3290
 5774TIP3    H141517   7.260   4.620   1.422  0.0978 -0.3441  1.6550
 5774TIP3    H241518   7.171   4.716   1.346  1.2886  1.5111  2.5077
 5775TIP3   OH241519   7.267   2.531   2.047 -0.1516  0.0015  0.0251
 5775TIP3    H141520   7.234   2.547   1.959  0.1779 -1.0432 -0.3059
 5775TIP3    H241521   7.190   2.533   2.103 -0.5400 -0.6376 -0.4809
 5776TIP3   OH241522   3.014   4.359   1.255  0.4997 -0.3742  0.0864
 5776TIP3    H141523   3.077   4.406   1.201 -0.3341 -0.4820 -1.0038
 5776TIP3    H241524   2.974   4.427   1.310  0.8610 -0.1589  0.0884
 5777TIP3   OH241525   7.319   0.507   1.217  0.0756 -0.4018  0.8357
 5777TIP3    H141526   7.238   0.462   1.192  1.7330 -3.4648  0.4175
 5777TIP3    H241527   7.349   0.548   1.137  1.2028 -3.2720 -0.3670
 5778TIP3   OH241528   5.697   4.327   1.972 -0.2253  0.0697 -0.4041
 5778TIP3    H141529   5.627   4.280   1.926  1.2580 -1.6720 -1.0151
 5778TIP3    H241530   5.672   4.419   1.966 -1.4372 -0.3236 -2.4168
 5779TIP3   OH241531   7.542   7.182   1.407  0.2052 -0.5003  0.0722
 5779TIP3    H141532   7.546   7.259   1.350 -0.4506 -1.8055 -1.8640
 5779TIP3    H241533   7.456   7.188   1.449  0.3074  0.0099  0.2160
 5780TIP3   OH241534   1.163   7.402   2.749 -0.4578  0.4353  0.3334
 5780TIP3    H141535   1.237   7.358   2.707 -0.3507  0.5914  0.3576
 5780TIP3    H241536   1.175   7.495   2.728 -1.8281  0.2475 -1.5006
 5781TIP3   OH241537   3.450   0.292   1.776  0.5232 -0.1380 -0.0607
 5781TIP3    H141538   3.449   0.248   1.691 -0.8626  0.7675 -0.5687
 5781TIP3    H241539   3.537   0.330   1.783  2.7891 -4.8862  1.5614
 5782TIP3   OH241540   3.977   3.017   0.638 -0.2624 -0.2388 -0.5027
 5782TIP3    H141541   3.957   3.110   0.651 -1.2476 -0.6105  1.0195
 5782TIP3    H241542   4.028   3.014   0.557  0.1791  1.6677 -0.3469
 5783TIP3   OH241543   6.268   6.575   1.648  0.1529 -0.1938  0.5281
 5783TIP3    H141544   6.285   6.646   1.587 -1.0386 -0.9816 -0.7848
 5783TIP3    H241545   6.191   6.603   1.697 -1.6633 -1.3469 -1.4463
 5784TIP3   OH241546   3.966   4.348   2.319 -0.0513  0.5841 -0.5087
 5784TIP3    H141547   3.986   4.296   2.240 -0.4122  0.5195 -0.5618
 5784TIP3    H241548   3.912   4.420   2.287 -0.4358  0.4006 -0.2814
 5785TIP3   OH241549   1.743   1.327   1.430  0.1355  0.9360 -0.1911
 5785TIP3    H141550   1.672   1.263   1.437 -0.2982  1.5064  1.0222
 5785TIP3    H241551   1.816   1.277   1.393 -0.1209 -0.3406  0.9129
 5786TIP3   OH241552   4.401   1.489   2.407  0.0622 -0.1573 -0.7322
 5786TIP3    H141553   4.417   1.550   2.479 -0.6592  0.3081 -0.9517
 5786TIP3    H241554   4.323   1.439   2.435 -0.2437  0.0489 -1.1970
 5787TIP3   OH241555   1.336   5.741   2.393  0.7332  0.1764 -0.6839
 5787TIP3    H141556   1.342   5.715   2.484  1.7090 -1.9399 -1.2938
 5787TIP3    H241557   1.242   5.742   2.374  0.4496  1.7666  0.5859
 5788TIP3   OH241558   0.269   2.537   0.487 -0.1973  0.3050 -0.2164
 5788TIP3    H141559   0.293   2.449   0.518  0.0764  0.5592  0.3070
 5788TIP3    H241560   0.344   2.564   0.434 -0.2852  0.2206 -0.3843
 5789TIP3   OH241561   2.342   4.391   2.065  0.5571 -1.0619  0.2687
 5789TIP3    H141562   2.406   4.454   2.032  0.9552 -1.2420  0.6858
 5789TIP3    H241563   2.303   4.434   2.141 -1.1853 -0.1661 -1.0614
 5790TIP3   OH241564   6.335   6.129   2.650 -0.0232 -0.5039  0.5323
 5790TIP3    H141565   6.407   6.125   2.586  0.3333  1.8665  0.6957
 5790TIP3    H241566   6.358   6.062   2.715  1.7589 -0.2097  0.2715
 5791TIP3   OH241567   4.079   3.116   1.065 -0.2687 -0.1160 -0.4929
 5791TIP3    H141568   3.985   3.132   1.076 -0.2565 -0.4844  0.1619
 5791TIP3    H241569   4.099   3.045   1.125  0.9775  1.8185  1.5425
 5792TIP3   OH241570   6.114   3.419   1.660 -0.5645 -0.2399  0.7488
 5792TIP3    H141571   6.148   3.336   1.696  0.2853  0.6844  2.2089
 5792TIP3    H241572   6.134   3.484   1.728 -0.0077  1.4130 -0.9278
 5793TIP3   OH241573   4.211   3.466   1.734 -0.0876  0.2935  0.2949
 5793TIP3    H141574   4.271   3.397   1.762  0.0121  0.9124  1.7080
 5793TIP3    H241575   4.237   3.542   1.787 -1.3415  0.9079  0.0538
 5794TIP3   OH241576   4.262   0.830   1.813  0.2684 -0.0223  0.2205
 5794TIP3    H141577   4.307   0.747   1.827  0.7691  0.4358  1.4985
 5794TIP3    H241578   4.184   0.824   1.869 -0.2575 -0.0589 -0.5141
 5795TIP3   OH241579   3.695   0.302   1.909  0.6459 -0.2439 -0.0705
 5795TIP3    H141580   3.671   0.210   1.920  0.1001  0.0352  1.3972
 5795TIP3    H241581   3.776   0.312   1.959 -0.0661  0.3603  1.0013
 5796TIP3   OH241582   7.579   2.554   1.339 -0.2784  0.5400  0.3645
 5796TIP3    H141583   7.508   2.596   1.289 -0.6159  0.3902  0.7149
 5796TIP3    H241584   7.659   2.591   1.301 -0.5712  1.9515  1.0298
 5797TIP3   OH241585   0.358   7.599   1.060  0.3661 -0.3156  0.7388
 5797TIP3    H141586   0.376   7.510   1.089  1.0038 -0.1908  0.7330
 5797TIP3    H241587   0.333   7.590   0.968 -2.3860 -0.7972  1.4537
 5798TIP3   OH241588   5.844   5.967   2.200  0.0757 -0.1772  0.3185
 5798TIP3    H141589   5.826   5.981   2.293  0.4316 -0.3390  0.4142
 5798TIP3    H241590   5.832   6.053   2.160  1.0300  0.1448  0.6980
 5799TIP3   OH241591   3.351   2.603   0.850 -0.2621 -0.0816  0.9603
 5799TIP3    H141592   3.405   2.678   0.873  0.2878 -0.5059  1.0652
 5799TIP3    H241593   3.408   2.547   0.798 -0.7397 -0.3187  0.6851
 5800TIP3   OH241594   2.273   6.920   0.537  1.0750  0.0431  0.5958
 5800TIP3    H141595   2.239   7.003   0.504  2.3058  0.6293  0.7311
 5800TIP3    H241596   2.286   6.936   0.631  2.1978  0.0156  0.4521
 5801TIP3   OH241597   6.708   7.249   1.317 -0.5807  0.0265  0.1157
 5801TIP3    H141598   6.674   7.185   1.255 -0.4438 -0.8084  0.8840
 5801TIP3    H241599   6.796   7.218   1.338 -0.4208  0.5997  0.3153
 5802TIP3   OH241600   2.478   0.967   1.368  0.7897  0.1634 -0.1424
 5802TIP3    H141601   2.420   0.904   1.410  0.7765  0.6659  0.6134
 5802TIP3    H241602   2.551   0.977   1.430  1.6565 -0.3970 -1.0302
 5803TIP3   OH241603   7.651   6.437   2.398 -0.1934  0.6734 -0.3480
 5803TIP3    H141604   7.589   6.419   2.327  1.2442 -2.4528 -0.9851
 5803TIP3    H241605   7.660   6.353   2.443  2.1258  1.5244  0.9249
 5804TIP3   OH241606   3.356   3.661   0.655  0.1084  0.3221  0.6157
 5804TIP3    H141607   3.358   3.653   0.750 -0.8053  1.0767  0.7168
 5804TIP3    H241608   3.282   3.606   0.628  0.4912 -0.0559  0.3084
 5805TIP3   OH241609   6.875   6.360   1.770 -0.2001 -0.2515  0.2882
 5805TIP3    H141610   6.941   6.333   1.834  0.0310 -1.4557 -0.4249
 5805TIP3    H241611   6.923   6.370   1.688 -0.5498  0.9756  0.2143
 5806TIP3   OH241612   3.010   2.061   2.370 -0.1494 -0.1753  0.3642
 5806TIP3    H141613   2.973   2.005   2.302 -1.2250  1.5912 -0.5741
 5806TIP3    H241614   2.947   2.132   2.381  2.0326  1.9462  0.0631
 5807TIP3   OH241615   1.873   6.262   0.414 -0.1536  0.1961  0.3293
 5807TIP3    H141616   1.950   6.219   0.452  0.1749 -0.0862 -0.6318
 5807TIP3    H241617   1.846   6.204   0.343 -1.1015  0.4325  0.4824
 5808TIP3   OH241618   3.664   0.622   1.225 -0.4722 -0.2555 -0.6436
 5808TIP3    H141619   3.693   0.534   1.199  1.4394  0.2831 -0.4857
 5808TIP3    H241620   3.724   0.681   1.179  0.4680  0.8440  1.8498
 5809TIP3   OH241621   2.551   3.386   0.755 -0.0361 -0.2608 -0.3144
 5809TIP3    H141622   2.506   3.421   0.678 -0.7639 -1.4569 -0.4694
 5809TIP3    H241623   2.643   3.406   0.741 -0.2477  0.1430 -1.1635
 5810TIP3   OH241624   2.238   1.671   2.256  0.1794  0.4500 -0.4721
 5810TIP3    H141625   2.147   1.677   2.282 -0.2328  0.9018 -1.9206
 5810TIP3    H241626   2.254   1.751   2.205  1.0544 -0.1533 -1.1823
 5811TIP3   OH241627   6.003   7.525   1.594 -0.3952 -0.0744  0.6912
 5811TIP3    H141628   6.049   7.535   1.510 -1.3428  0.0366  0.1803
 5811TIP3    H241629   5.928   7.584   1.588  0.6448  1.5660  2.4413
 5812TIP3   OH241630   6.696   1.772   2.492 -0.7639  0.1552 -0.8745
 5812TIP3    H141631   6.754   1.835   2.535  0.3021  0.1604 -2.2247
 5812TIP3    H241632   6.716   1.688   2.533 -0.4576  0.3115 -0.7008
 5813TIP3   OH241633   5.926   1.673   1.394  0.1065  0.2985  0.0876
 5813TIP3    H141634   5.916   1.578   1.390 -0.2708  0.3747 -1.7899
 5813TIP3    H241635   6.003   1.687   1.449 -0.5401 -1.0122  1.4104
 5814TIP3   OH241636   0.222   6.284   0.536 -0.3848  0.1335 -0.1543
 5814TIP3    H141637   0.286   6.335   0.585 -0.4767 -0.2961  0.4303
 5814TIP3    H241638   0.173   6.348   0.486  1.0148  0.4176 -1.2526
 5815TIP3   OH241639   5.426   1.792   0.811  0.0377 -0.4833  0.1671
 5815TIP3    H141640   5.453   1.854   0.742 -0.7728  0.0135  0.2867
 5815TIP3    H241641   5.455   1.833   0.892  1.0183 -1.0832  0.1400
 5816TIP3   OH241642   6.165   2.989   2.867  0.0391 -0.2535  0.5699
 5816TIP3    H141643   6.131   3.067   2.822 -0.7550 -0.0425  1.4944
 5816TIP3    H241644   6.136   3.000   2.958  0.3816 -1.3669  0.8229
 5817TIP3   OH241645   5.612   3.789   0.935  0.8660 -0.1731 -0.2885
 5817TIP3    H141646   5.571   3.875   0.944 -0.8195 -1.0293  0.6559
 5817TIP3    H241647   5.698   3.800   0.976  0.6193  1.0266 -0.0469
 5818TIP3   OH241648   0.749   7.449   3.064 -0.1770 -0.6905 -0.1960
 5818TIP3    H141649   0.770   7.531   3.020 -2.9784  1.3500  1.9213
 5818TIP3    H241650   0.682   7.409   3.009 -0.9577 -0.0236  0.2489
 5819TIP3   OH241651   0.304   0.132   1.781 -0.5906 -0.2620  0.0268
 5819TIP3    H141652   0.373   0.197   1.767  0.1473 -1.1248 -0.4979
 5819TIP3    H241653   0.278   0.143   1.872  0.3586 -0.0190  0.2801
 5820TIP3   OH241654   6.796   0.039   2.533  0.6814 -0.2535  0.0428
 5820TIP3    H141655   6.839  -0.002   2.458 -0.8255  1.2233 -1.7126
 5820TIP3    H241656   6.727  -0.022   2.558  0.3615 -0.1742 -0.6314
 5821TIP3   OH241657   1.370   3.993   2.938  0.2444 -0.0550  0.6841
 5821TIP3    H141658   1.376   3.972   2.844 -3.9791 -3.7386  0.9241
 5821TIP3    H241659   1.454   3.964   2.974  0.8569 -1.3832 -1.5717
 5822TIP3   OH241660   1.203   7.068   3.311 -0.4840 -1.1368 -0.3553
 5822TIP3    H141661   1.292   7.042   3.290 -0.3756 -0.5178 -0.6693
 5822TIP3    H241662   1.153   7.051   3.231  0.0335  1.7194 -1.4101
 5823TIP3   OH241663   5.948   2.833   1.878 -0.1483  0.0314  0.0465
 5823TIP3    H141664   5.969   2.926   1.888 -0.0083 -0.0088  0.1224
 5823TIP3    H241665   6.020   2.787   1.921 -0.0950 -0.1178 -0.2013
 5824TIP3   OH241666   4.463   0.172   2.074 -0.2842  0.0699  0.2304
 5824TIP3    H141667   4.550   0.132   2.076 -0.7550 -0.9974  1.0388
 5824TIP3    H241668   4.413   0.120   2.137 -1.1468  1.4997  0.7531
 5825TIP3   OH241669   2.170   3.645   1.047  0.4960 -0.1613  0.1991
 5825TIP3    H141670   2.206   3.682   1.127 -0.1977  0.9058  0.0354
 5825TIP3    H241671   2.242   3.594   1.009  0.6484 -1.2073  1.8024
 5826TIP3   OH241672   6.736   4.151   2.158 -0.4601 -0.4163 -0.0510
 5826TIP3    H141673   6.701   4.065   2.137  0.5296 -0.6902 -0.6449
 5826TIP3    H241674   6.793   4.173   2.084  1.0939 -0.2569  1.1441
 5827TIP3   OH241675   1.585   1.025   0.736 -0.0900 -0.3593 -0.3716
 5827TIP3    H141676   1.550   1.026   0.825  0.0872 -0.5747 -0.2996
 5827TIP3    H241677   1.679   1.043   0.747 -0.2245  0.5249 -0.5856
 5828TIP3   OH241678   1.963   0.906   1.099 -0.4940 -0.2017  0.9274
 5828TIP3    H141679   1.996   0.994   1.081  1.3562 -0.5735  2.1376
 5828TIP3    H241680   1.918   0.880   1.019  1.8335  0.5839 -0.7501
 5829TIP3   OH241681   2.542   5.041   2.848 -0.4114  0.7929 -0.0027
 5829TIP3    H141682   2.478   4.996   2.902  1.2029 -0.8209  0.6662
 5829TIP3    H241683   2.603   5.080   2.910 -0.1942  1.4848 -0.6364
 5830TIP3   OH241684   3.239   6.825   1.700 -0.1714  0.1442  0.1680
 5830TIP3    H141685   3.236   6.751   1.639  0.5085 -0.4644  0.8501
 5830TIP3    H241686   3.199   6.792   1.781  0.2282  0.4853  0.5140
 5831TIP3   OH241687   7.373   3.408   2.614 -0.1694 -0.0505 -0.1522
 5831TIP3    H141688   7.289   3.376   2.645 -0.9430  1.6920 -0.3593
 5831TIP3    H241689   7.391   3.355   2.535 -0.8092 -0.7593  0.1657
 5832TIP3   OH241690   4.101   5.867   1.922  0.1276  0.0336  0.1203
 5832TIP3    H141691   4.016   5.825   1.904 -0.2236 -0.0622  1.8321
 5832TIP3    H241692   4.080   5.959   1.934  0.8337  0.7497 -3.1405
 5833TIP3   OH241693   7.523   3.794   1.616 -0.3122 -0.5822  0.3012
 5833TIP3    H141694   7.528   3.889   1.604 -1.3856 -0.6784 -1.1703
 5833TIP3    H241695   7.613   3.768   1.638  0.0156  0.7558  0.6302
 5834TIP3   OH241696   0.247   2.592   0.944  0.1665  0.4998 -0.3845
 5834TIP3    H141697   0.256   2.674   0.894  1.8014  1.3882  1.2430
 5834TIP3    H241698   0.330   2.547   0.931 -1.3097 -1.8656 -2.6770
 5835TIP3   OH241699   3.679   1.388   2.311  0.3495  0.3806  0.1863
 5835TIP3    H141700   3.636   1.305   2.292 -1.9636  1.2450  1.3065
 5835TIP3    H241701   3.660   1.443   2.235  1.5352  0.0677 -0.3686
 5836TIP3   OH241702   6.550   5.435   0.558 -0.4010 -0.2040 -0.0866
 5836TIP3    H141703   6.475   5.394   0.601 -0.0884 -0.1069  0.5535
 5836TIP3    H241704   6.522   5.525   0.541  0.0313  0.2399  1.3783
 5837TIP3   OH241705   7.485   0.774   1.867 -0.1802 -0.0886 -0.3211
 5837TIP3    H141706   7.457   0.716   1.796  1.8736 -0.3859 -0.9696
 5837TIP3    H241707   7.489   0.716   1.944 -2.0268  0.1449 -0.0244
 5838TIP3   OH241708   5.813   7.405   2.833  0.1580 -0.5350  0.1543
 5838TIP3    H141709   5.903   7.382   2.811 -0.0139 -0.8619 -0.2100
 5838TIP3    H241710   5.818   7.495   2.864  0.2340  0.3870 -2.3363
 5839TIP3   OH241711   6.439   0.459   2.027  0.0221 -0.0775  0.1763
 5839TIP3    H141712   6.509   0.524   2.028 -0.5678  0.5601  1.3174
 5839TIP3    H241713   6.380   0.486   2.097 -0.7038 -1.3333  0.0724
 5840TIP3   OH241714   5.947   1.335   2.319  0.2594  0.3222  0.2954
 5840TIP3    H141715   5.931   1.241   2.313  0.2577  0.2934  0.7345
 5840TIP3    H241716   5.877   1.375   2.268 -0.3987  0.1364  1.0411
 5841TIP3   OH241717   2.468   6.208   1.346 -0.1846 -0.5289  0.5747
 5841TIP3    H141718   2.443   6.129   1.299 -0.6585  0.2783 -0.6103
 5841TIP3    H241719   2.546   6.240   1.300 -1.4169  0.9902 -0.6010
 5842TIP3   OH241720   4.926   2.095   1.961 -0.5524 -0.1435 -0.1218
 5842TIP3    H141721   4.900   2.008   1.933 -0.1747 -0.9718  1.9399
 5842TIP3    H241722   4.846   2.147   1.959 -0.8793 -0.6730 -0.8704
 5843TIP3   OH241723   1.807   6.804   0.868 -0.5072 -0.2116  0.1633
 5843TIP3    H141724   1.747   6.840   0.933 -1.0916  0.0049 -0.4842
 5843TIP3    H241725   1.809   6.710   0.887 -1.8237 -0.3730 -0.4072
 5844TIP3   OH241726   5.023   6.443   1.739  0.3900  0.1593 -0.0747
 5844TIP3    H141727   4.972   6.496   1.676 -0.1126  0.5413  0.6398
 5844TIP3    H241728   5.106   6.426   1.694 -0.4871 -0.7919 -1.4244
 5845TIP3   OH241729   0.819   7.664   0.582 -0.1975 -0.3178  0.1825
 5845TIP3    H141730   0.734   7.631   0.612 -0.1104 -0.6917  0.0287
 5845TIP3    H241731   0.872   7.585   0.570 -0.0245 -0.1313 -0.3145
 5846TIP3   OH241732   2.749   3.022   3.048 -0.4696  0.2423 -0.5289
 5846TIP3    H141733   2.767   2.980   3.132 -2.5181  0.4335  0.0749
 5846TIP3    H241734   2.714   2.952   2.993 -0.4800  0.4049 -0.7306
 5847TIP3   OH241735   4.273   5.381   0.858 -0.0456  0.2246 -0.5041
 5847TIP3    H141736   4.301   5.309   0.803  1.2302  0.3094 -0.0027
 5847TIP3    H241737   4.268   5.457   0.799 -0.1777 -0.0034 -0.7858
 5848TIP3   OH241738   6.797   2.607   1.143 -0.3003 -0.1276  0.0523
 5848TIP3    H141739   6.737   2.537   1.170 -0.4772 -0.0699 -0.1854
 5848TIP3    H241740   6.884   2.576   1.167 -0.5849  0.6787  2.3548
 5849TIP3   OH241741   3.157   7.410   2.736  0.4374 -0.2531 -0.3776
 5849TIP3    H141742   3.235   7.364   2.768  1.1509  1.5289  0.5811
 5849TIP3    H241743   3.187   7.456   2.658 -0.0082 -0.6285 -0.7687
 5850TIP3   OH241744   2.351   5.121   2.658  0.0212  0.6297 -0.1889
 5850TIP3    H141745   2.403   5.071   2.595 -1.5121 -0.4398 -0.6758
 5850TIP3    H241746   2.405   5.125   2.737  1.6324  1.2883 -1.2880
 5851TIP3   OH241747   5.254   3.334   1.694  0.4802  0.2589  0.2071
 5851TIP3    H141748   5.227   3.407   1.638  0.7345  0.8860  0.8799
 5851TIP3    H241749   5.190   3.334   1.766 -1.0273 -1.7593 -1.0225
 5852TIP3   OH241750   4.376   4.355   1.400 -0.0352  0.2052  0.0761
 5852TIP3    H141751   4.388   4.267   1.366  1.7453  0.5527 -0.3041
 5852TIP3    H241752   4.289   4.382   1.368 -0.1430 -1.0032 -0.6913
 5853TIP3   OH241753   3.609   6.012   1.914 -0.9682 -0.0803  0.3053
 5853TIP3    H141754   3.652   5.927   1.916 -0.0083  0.3980  1.5993
 5853TIP3    H241755   3.574   6.024   2.003 -1.8568  0.4985 -0.1039
 5854TIP3   OH241756   5.639   1.634   0.538 -0.6076 -0.2041 -0.1632
 5854TIP3    H141757   5.704   1.617   0.607 -0.5201  1.1746  0.1126
 5854TIP3    H241758   5.670   1.713   0.495 -0.3698 -1.3084 -2.1654
 5855TIP3   OH241759   4.132   5.393   1.127  0.0727 -0.5303  0.0545
 5855TIP3    H141760   4.137   5.488   1.118  0.8413 -0.4673  1.0135
 5855TIP3    H241761   4.118   5.361   1.038 -0.4108  0.4863 -0.2519
 5856TIP3   OH241762   3.160   0.668   1.910  0.6023 -0.4496 -0.6823
 5856TIP3    H141763   3.225   0.618   1.859 -1.1228 -1.1755 -2.3225
 5856TIP3    H241764   3.133   0.738   1.851  0.9793  0.7915  0.5701
 5857TIP3   OH241765   3.365   0.445   2.034  0.1695  0.4024 -0.3991
 5857TIP3    H141766   3.420   0.423   1.959  0.3970  2.1256 -0.7674
 5857TIP3    H241767   3.404   0.524   2.070 -1.5131  1.1431 -0.0954
 5858TIP3   OH241768   1.534   3.075   1.386  0.4143 -0.0994 -0.2244
 5858TIP3    H141769   1.499   3.113   1.306  0.0454  0.6046  0.2636
 5858TIP3    H241770   1.597   3.139   1.419 -0.6277  0.3960  0.9015
 5859TIP3   OH241771   6.549   4.473   3.383 -0.5905 -0.2404 -0.5583
 5859TIP3    H141772   6.587   4.423   3.455  0.0453 -0.1659 -0.8378
 5859TIP3    H241773   6.619   4.531   3.354 -1.3935  1.0085 -0.0759
 5860TIP3   OH241774   7.671   1.437   2.317 -0.5179  0.0270 -0.2150
 5860TIP3    H141775   7.729   1.452   2.243 -1.3441  0.5431 -0.7629
 5860TIP3    H241776   7.691   1.347   2.344  0.8510  0.3311 -0.0973
 5861TIP3   OH241777   5.551   7.136   0.935 -0.2126  0.1945  0.0726
 5861TIP3    H141778   5.462   7.115   0.909  0.2402  0.7037 -2.1534
 5861TIP3    H241779   5.558   7.231   0.920  0.7550  0.1142 -0.0513
 5862TIP3   OH241780   3.053   2.588   1.622  0.3402  0.6297 -0.0630
 5862TIP3    H141781   3.091   2.671   1.592  1.2480  0.8323  1.5522
 5862TIP3    H241782   2.985   2.568   1.557 -0.5436  3.0974  0.0160
 5863TIP3   OH241783   3.394   1.850   3.069 -0.8689 -0.0431  0.2636
 5863TIP3    H141784   3.440   1.914   3.123 -0.7827 -0.1520  0.3198
 5863TIP3    H241785   3.403   1.768   3.117  0.5600 -0.4684 -0.6770
 5864TIP3   OH241786   1.787   1.806   1.569 -0.5893  0.4171 -0.1444
 5864TIP3    H141787   1.734   1.731   1.543  0.8216 -1.1280  1.1783
 5864TIP3    H241788   1.749   1.834   1.652 -0.5566  0.5611 -0.1782
 5865TIP3   OH241789   2.978   0.532   3.044  0.1748  0.6820 -0.4529
 5865TIP3    H141790   3.065   0.573   3.041  0.0630  1.0185  0.4014
 5865TIP3    H241791   2.922   0.591   2.994  0.5223  0.2324 -1.3841
 5866TIP3   OH241792   3.846   0.123   1.522  0.1574 -0.0856  0.0354
 5866TIP3    H141793   3.893   0.093   1.444 -0.9008 -1.4120 -0.1173
 5866TIP3    H241794   3.822   0.214   1.502 -2.2843 -1.1290 -2.2802
 5867TIP3   OH241795   4.899   0.000   2.923 -0.4633 -0.1661 -0.2382
 5867TIP3    H141796   4.921  -0.093   2.928 -3.0595 -0.7813  2.9938
 5867TIP3    H241797   4.812   0.002   2.883 -0.3347  0.9062 -0.4893
 5868TIP3   OH241798   6.465   3.610   1.104 -0.0460 -0.2496 -0.4272
 5868TIP3    H141799   6.410   3.535   1.077 -1.3385 -0.0978  1.5917
 5868TIP3    H241800   6.420   3.686   1.066 -0.2129 -0.2732 -0.2771
 5869TIP3   OH241801   4.651   4.222   2.229  0.2446 -0.2750 -0.2053
 5869TIP3    H141802   4.647   4.127   2.234  2.1224 -0.3428  1.3161
 5869TIP3    H241803   4.714   4.239   2.159 -0.5061 -0.1077 -0.8575
 5870TIP3   OH241804   6.102   0.402   3.322 -0.3187  0.1590 -0.2089
 5870TIP3    H141805   6.045   0.378   3.249  0.1090  1.4931 -0.9944
 5870TIP3    H241806   6.072   0.489   3.349  0.5599  0.3527  0.1737
 5871TIP3   OH241807   4.089   3.952   0.524  0.4148 -0.1580 -0.2409
 5871TIP3    H141808   4.017   3.889   0.521  0.2007  0.0869 -0.2931
 5871TIP3    H241809   4.104   3.968   0.617  0.4124 -0.2165 -0.2300
 5872TIP3   OH241810   4.252   1.550   1.528  0.6610  0.0566  0.3840
 5872TIP3    H141811   4.337   1.524   1.492  0.3894  0.0807 -0.2946
 5872TIP3    H241812   4.247   1.644   1.511  0.5978  0.1002  0.6398
 5873TIP3   OH241813   5.024   1.148   2.883 -0.2574 -0.0225  0.1031
 5873TIP3    H141814   5.035   1.196   2.965  0.1325 -1.0969  0.7079
 5873TIP3    H241815   5.085   1.074   2.891 -0.5593 -0.3992 -0.9576
 5874TIP3   OH241816   2.066   2.505   3.015  0.3134  0.4266  0.5310
 5874TIP3    H141817   2.013   2.559   2.958 -0.6072  1.6732  2.4439
 5874TIP3    H241818   2.009   2.432   3.040  0.8892 -0.4055 -0.4911
 5875TIP3   OH241819   4.844   4.320   1.155  0.0672 -0.4818 -0.2757
 5875TIP3    H141820   4.864   4.240   1.105  0.7091 -1.1986  1.0543
 5875TIP3    H241821   4.803   4.379   1.092  1.9910 -0.8467 -1.9828
 5876TIP3   OH241822   4.491   4.858   1.715 -0.4327  0.4257  0.7228
 5876TIP3    H141823   4.529   4.886   1.632 -0.1538 -1.5038  0.1522
 5876TIP3    H241824   4.480   4.763   1.706 -1.4991  0.3333  2.4527
 5877TIP3   OH241825   4.647   0.852   2.585  0.6500 -0.3327  0.3900
 5877TIP3    H141826   4.565   0.893   2.612  0.7083 -1.3027  2.2188
 5877TIP3    H241827   4.714   0.895   2.639  0.8649 -1.8651  1.4135
 5878TIP3   OH241828   4.187   7.359   2.170 -0.5382  0.3928 -0.3177
 5878TIP3    H141829   4.247   7.288   2.147 -1.5754  0.3339 -3.2280
 5878TIP3    H241830   4.144   7.382   2.087 -2.2999  2.5081  1.0754
 5879TIP3   OH241831   3.484   3.777   1.061 -0.2985  0.0733  0.7468
 5879TIP3    H141832   3.568   3.743   1.092 -0.3214 -0.5209  0.1773
 5879TIP3    H241833   3.503   3.867   1.034  0.4365 -0.4420 -0.5144
 5880TIP3   OH241834   4.639   5.932   1.723  0.2569  0.1808  0.1194
 5880TIP3    H141835   4.633   5.852   1.670  2.4911 -0.4658  0.7452
 5880TIP3    H241836   4.575   5.919   1.793 -0.8865 -0.0923 -0.9200
 5881TIP3   OH241837   1.385   2.303   1.015 -0.2498  0.5166  0.5835
 5881TIP3    H141838   1.404   2.261   1.099 -0.2157  0.0487  0.3473
 5881TIP3    H241839   1.303   2.349   1.029  0.4687  1.6399  1.2962
 5882TIP3   OH241840   0.282   2.172   1.717 -0.3495 -0.3262  0.0613
 5882TIP3    H141841   0.250   2.260   1.735  0.4360 -0.0713  0.2533
 5882TIP3    H241842   0.204   2.117   1.722 -0.7117  0.2355  0.7907
 5883TIP3   OH241843   0.737   1.463   2.402  0.3666  0.1020 -0.1524
 5883TIP3    H141844   0.715   1.428   2.489  0.9710  0.2709  0.0727
 5883TIP3    H241845   0.741   1.558   2.414  1.4220  0.0697 -0.1231
 5884TIP3   OH241846   5.974   1.201   0.939 -0.1731  0.2252 -0.8146
 5884TIP3    H141847   5.898   1.258   0.953  0.1354  0.9544 -1.9690
 5884TIP3    H241848   5.952   1.120   0.985 -0.5026  1.3511  1.1270
 5885TIP3   OH241849   2.527   6.047   1.896  0.1873  0.3987  0.4900
 5885TIP3    H141850   2.619   6.024   1.904 -0.0002 -0.8520 -0.5551
 5885TIP3    H241851   2.513   6.059   1.802 -0.9452 -0.5278  0.5178
 5886TIP3   OH241852   3.019   7.212   2.885 -0.4947 -0.1087 -0.2345
 5886TIP3    H141853   2.983   7.205   2.796  0.1725 -1.2282 -0.4329
 5886TIP3    H241854   3.067   7.295   2.885  2.2151 -1.5218 -1.9768
 5887TIP3   OH241855   3.468   6.420   0.599 -0.3654 -0.7829 -0.3956
 5887TIP3    H141856   3.504   6.484   0.537 -0.6227  1.3146  1.4829
 5887TIP3    H241857   3.374   6.425   0.586 -0.3951 -0.6448 -0.1333
 5888TIP3   OH241858   6.727   4.866   0.821  0.1935 -0.0038 -0.0296
 5888TIP3    H141859   6.751   4.919   0.897 -1.5417 -1.8509  1.9235
 5888TIP3    H241860   6.727   4.776   0.854 -1.8243 -0.7502 -1.8829
 5889TIP3   OH241861   0.703   6.027   1.416  0.0588  0.1018 -0.1997
 5889TIP3    H141862   0.622   6.060   1.454 -0.7975 -0.4402 -1.4973
 5889TIP3    H241863   0.695   6.045   1.322  0.7729 -1.2920 -0.5571
 5890TIP3   OH241864   7.162   7.137   0.712 -0.1432 -0.0857  0.3262
 5890TIP3    H141865   7.243   7.110   0.756  0.5841  0.0529 -0.8930
 5890TIP3    H241866   7.182   7.223   0.675 -1.1038  0.2895  0.6333
 5891TIP3   OH241867   5.906   2.480   0.879  0.4803 -0.1417 -0.1776
 5891TIP3    H141868   5.908   2.480   0.975  1.2803 -0.0039 -0.1949
 5891TIP3    H241869   5.984   2.431   0.853  1.2728  1.3802 -0.7734
 5892TIP3   OH241870   5.455   4.213   1.846 -0.1335 -0.4924 -0.0128
 5892TIP3    H141871   5.462   4.125   1.809 -0.0162 -1.0383  1.2503
 5892TIP3    H241872   5.473   4.271   1.773 -0.1723 -1.5190 -0.8651
 5893TIP3   OH241873   0.105   0.494   0.857 -0.1144 -0.1369 -0.3131
 5893TIP3    H141874   0.183   0.456   0.816  0.1843  0.7252 -0.5683
 5893TIP3    H241875   0.095   0.579   0.814 -0.4848  0.2795  0.5760
 5894TIP3   OH241876   2.516   5.585   1.975  0.3845  0.0937  0.1314
 5894TIP3    H141877   2.493   5.677   1.980  0.2860  0.2650 -2.2811
 5894TIP3    H241878   2.611   5.585   1.962  0.6541 -0.2616  1.8614
 5895TIP3   OH241879   3.608   4.245   2.723 -0.6701 -0.3191  0.3624
 5895TIP3    H141880   3.549   4.283   2.788  0.0660  0.3721  0.6486
 5895TIP3    H241881   3.554   4.182   2.675 -2.0357  1.2442 -0.2806
 5896TIP3   OH241882   5.189   2.426   0.917  0.5055  0.1786  0.8343
 5896TIP3    H141883   5.216   2.514   0.944  1.5111  0.4657 -0.9363
 5896TIP3    H241884   5.240   2.367   0.973 -0.3004  0.6939  2.1513
 5897TIP3   OH241885   3.396   0.163   2.463  0.5315  0.1220  0.9697
 5897TIP3    H141886   3.358   0.169   2.375 -1.1978 -1.4646  1.5625
 5897TIP3    H241887   3.470   0.224   2.460 -0.6109  1.5632 -0.9839
 5898TIP3   OH241888   7.158   7.287   1.030  0.2519  0.5906 -0.2473
 5898TIP3    H141889   7.135   7.379   1.044  0.2464  0.7132 -0.9950
 5898TIP3    H241890   7.241   7.291   0.983 -1.0669  0.3157 -2.7685
 5899TIP3   OH241891   2.100   2.605   1.023  0.2399  0.5838 -0.2730
 5899TIP3    H141892   2.195   2.613   1.036  0.3068  0.5385 -0.7319
 5899TIP3    H241893   2.076   2.530   1.077  0.7791 -0.6042 -1.6319
 5900TIP3   OH241894   2.433   2.201   1.232  0.4227  0.6460 -0.0784
 5900TIP3    H141895   2.379   2.182   1.155 -0.5117  1.8513  0.2395
 5900TIP3    H241896   2.513   2.239   1.196  0.4057  0.2977 -0.4949
 5901TIP3   OH241897   2.258   1.560   0.776  0.4848 -0.1971  0.1127
 5901TIP3    H141898   2.170   1.545   0.742  0.4999 -0.4642  0.1864
 5901TIP3    H241899   2.254   1.533   0.868  0.7180 -0.5005  0.0380
 5902TIP3   OH241900   5.553   1.877   1.073 -0.4524 -0.5374 -0.3434
 5902TIP3    H141901   5.511   1.932   1.140 -1.0008 -0.3471 -0.8377
 5902TIP3    H241902   5.555   1.790   1.112 -0.6532 -0.4014 -0.0226
 5903TIP3   OH241903   6.877   6.636   2.063  0.9562 -0.0748 -0.1818
 5903TIP3    H141904   6.967   6.642   2.031  0.5829 -0.6782 -1.4235
 5903TIP3    H241905   6.827   6.690   2.001  0.5449  0.8191  0.8981
 5904TIP3   OH241906   0.773   4.536   0.672  0.5163 -0.0887  0.0555
 5904TIP3    H141907   0.794   4.475   0.743 -2.8000 -0.3601  0.9914
 5904TIP3    H241908   0.715   4.486   0.614  2.0007  0.5995 -2.1278
 5905TIP3   OH241909   6.597   6.410   2.839  0.0756 -0.2705 -0.2944
 5905TIP3    H141910   6.688   6.397   2.867  0.6873 -0.1861 -2.1003
 5905TIP3    H241911   6.547   6.348   2.891  1.3322 -1.1761 -0.1156
 5906TIP3   OH241912   2.109   7.081   3.257 -0.1297 -0.3960 -0.0239
 5906TIP3    H141913   2.038   7.017   3.252  0.5086 -1.0275 -1.4856
 5906TIP3    H241914   2.188   7.031   3.235  0.5521  0.6517 -0.0174
 5907TIP3   OH241915   0.463   5.752   2.722 -0.1722  0.3362  0.1070
 5907TIP3    H141916   0.525   5.821   2.745  0.0188 -0.5152  2.4272
 5907TIP3    H241917   0.516   5.672   2.721 -0.7367 -0.0429 -0.7003
 5908TIP3   OH241918   4.423   1.028   1.918 -0.5828 -0.1062  0.1554
 5908TIP3    H141919   4.384   0.955   1.869 -1.5822 -0.6982  1.7579
 5908TIP3    H241920   4.516   1.007   1.921 -0.0888  0.9631 -3.1254
 5909TIP3   OH241921   7.329   1.612   2.138  0.0389  0.2035 -0.1890
 5909TIP3    H141922   7.340   1.518   2.124 -1.8616 -0.5273  2.4855
 5909TIP3    H241923   7.338   1.624   2.233  0.1825  2.7221 -0.4460
 5910TIP3   OH241924   6.024   1.324   1.661  0.8529  0.2714  0.5425
 5910TIP3    H141925   6.118   1.340   1.661  0.7390  1.3106 -1.3829
 5910TIP3    H241926   6.013   1.239   1.617  0.8566  0.9263 -0.7934
 5911TIP3   OH241927   1.132   4.469   1.847 -0.8605  0.1435 -0.1460
 5911TIP3    H141928   1.193   4.450   1.775  0.4634  1.1601  0.6610
 5911TIP3    H241929   1.160   4.411   1.918 -0.2443  1.2055  0.5118
 5912TIP3   OH241930   6.149   0.019   2.994  0.3246 -0.0255  0.4188
 5912TIP3    H141931   6.189  -0.065   2.973 -0.6875 -0.8527  1.6014
 5912TIP3    H241932   6.220   0.071   3.030  0.9332 -0.4474 -0.1603
 5913TIP3   OH241933   0.902   2.663   0.580 -0.2992  0.1354  0.0846
 5913TIP3    H141934   0.821   2.614   0.567  0.1474 -0.4828 -0.4437
 5913TIP3    H241935   0.969   2.613   0.533  0.4113  0.5792  0.5868
 5914TIP3   OH241936   6.240   1.283   0.922 -0.2933  0.0972 -0.2493
 5914TIP3    H141937   6.290   1.280   0.840 -0.5710 -0.8233 -0.3901
 5914TIP3    H241938   6.154   1.248   0.899 -0.3320 -0.2902  0.4728
 5915TIP3   OH241939   4.805   0.627   2.529 -0.5448  0.8623  0.2411
 5915TIP3    H141940   4.815   0.590   2.617  1.1923  0.5153 -0.0521
 5915TIP3    H241941   4.754   0.706   2.542  1.3881  1.9432  1.9157
 5916TIP3   OH241942   4.970   5.437   0.726 -0.2147 -0.1562  0.3440
 5916TIP3    H141943   4.953   5.508   0.665 -0.0715 -0.4921 -0.0918
 5916TIP3    H241944   4.891   5.432   0.779  0.4978  1.5899  1.6862
 5917TIP3   OH241945   7.048   0.841   0.557  0.6886  0.0242  0.0767
 5917TIP3    H141946   7.100   0.785   0.499  1.8823  0.2975  0.8380
 5917TIP3    H241947   7.098   0.922   0.563  0.2939  0.2082  1.0256
 5918TIP3   OH241948   5.193   7.655   0.882 -0.2075 -0.0731 -0.4992
 5918TIP3    H141949   5.110   7.690   0.852 -0.6486  2.0963  2.7870
 5918TIP3    H241950   5.256   7.726   0.866  0.1926 -0.1813  0.5485
 5919TIP3   OH241951   6.966   4.335   2.247 -0.0834 -0.2544 -0.0370
 5919TIP3    H141952   6.874   4.317   2.227  0.3766 -2.4960 -0.3553
 5919TIP3    H241953   6.991   4.402   2.183 -1.3617  0.1226 -0.1841
 5920TIP3   OH241954   2.062   3.924   1.612 -0.3772 -0.2196  0.0477
 5920TIP3    H141955   1.970   3.903   1.601 -0.1912 -0.5341 -1.0985
 5920TIP3    H241956   2.107   3.866   1.550  0.5142  0.4776  0.0201
 5921TIP3   OH241957   1.823   3.455   2.721 -0.2905  0.3665  0.4818
 5921TIP3    H141958   1.774   3.460   2.802  0.7127 -1.2558  1.2390
 5921TIP3    H241959   1.877   3.376   2.730  1.0806  1.0643 -1.0599
 5922TIP3   OH241960   7.215   1.082   0.469  0.3233  0.4751  0.0619
 5922TIP3    H141961   7.279   1.026   0.425  1.2712  0.2017  1.7209
 5922TIP3    H241962   7.191   1.147   0.402 -1.1963 -2.1095 -2.0889
 5923TIP3   OH241963   0.170   5.631   1.923 -0.3436  0.1514 -0.3378
 5923TIP3    H141964   0.226   5.700   1.889  0.8656 -1.1540 -1.0689
 5923TIP3    H241965   0.190   5.627   2.016 -0.3906  0.7455 -0.3007
 5924TIP3   OH241966   1.993   5.999   1.216 -0.0052 -0.0916 -0.5543
 5924TIP3    H141967   2.059   6.056   1.254  1.1324 -0.8511 -1.3123
 5924TIP3    H241968   1.939   6.057   1.162 -0.2306  0.6027  0.3944
 5925TIP3   OH241969   5.093   6.947   1.984  0.3965 -0.0301  0.4279
 5925TIP3    H141970   5.169   6.895   2.007  1.0406  0.1019 -1.2891
 5925TIP3    H241971   5.041   6.891   1.926  1.3121  1.2809 -1.8001
 5926TIP3   OH241972   2.747   3.185   0.968  0.5138  0.0493 -0.0068
 5926TIP3    H141973   2.670   3.140   1.002  0.0951  1.5850  1.1909
 5926TIP3    H241974   2.818   3.122   0.980 -0.2809 -0.8212  0.2904
 5927TIP3   OH241975   1.304   6.350   1.606  0.2414 -0.3993  0.2547
 5927TIP3    H141976   1.354   6.360   1.525  1.1858  0.5195  0.9326
 5927TIP3    H241977   1.217   6.321   1.577  0.9192 -1.2659 -0.9938
 5928TIP3   OH241978   3.380   2.721   1.332  0.1204  0.1787 -0.1926
 5928TIP3    H141979   3.303   2.756   1.378  0.1383 -0.2678  0.1919
 5928TIP3    H241980   3.345   2.651   1.276  0.2349  0.0263 -0.0750
 5929TIP3   OH241981   0.261   1.387   2.200 -0.6679 -0.2908  0.2984
 5929TIP3    H141982   0.334   1.440   2.231 -1.3408  0.5864  0.4608
 5929TIP3    H241983   0.288   1.297   2.212  1.8122 -0.1398 -2.8692
 5930TIP3   OH241984   0.217   3.430   1.864  0.1718  0.6330  0.3311
 5930TIP3    H141985   0.178   3.516   1.853 -1.9453 -0.0857  1.5180
 5930TIP3    H241986   0.304   3.447   1.902 -0.0190  2.2357  0.1099
 5931TIP3   OH241987   6.798   6.305   2.998  0.1760 -0.2859  0.3085
 5931TIP3    H141988   6.746   6.322   3.076 -1.3357  1.2173 -0.9339
 5931TIP3    H241989   6.876   6.359   3.009  0.1989 -0.4460  0.9764
 5932TIP3   OH241990   5.494   0.537   1.978 -0.2280  0.1128  0.1001
 5932TIP3    H141991   5.530   0.614   1.934  0.4224 -0.1768  0.1028
 5932TIP3    H241992   5.401   0.539   1.959  0.0766 -0.1529 -1.5173
 5933TIP3   OH241993   4.754   6.265   2.174  0.1167  0.1884 -0.8632
 5933TIP3    H141994   4.818   6.311   2.228  1.1723 -0.1516 -1.7744
 5933TIP3    H241995   4.756   6.312   2.090 -1.0625  0.3545 -0.8128
 5934TIP3   OH241996   1.263   5.279   0.950  0.6933  0.4278 -0.6610
 5934TIP3    H141997   1.292   5.276   0.859  2.3620 -1.1927 -0.1462
 5934TIP3    H241998   1.344   5.284   1.000  0.0573 -2.3510  0.8343
 5935TIP3   OH241999   0.510   4.532   1.774 -0.6800  0.9534  0.6720
 5935TIP3    H142000   0.442   4.484   1.822 -0.3817  0.5299  0.6741
 5935TIP3    H242001   0.491   4.514   1.681 -0.0721  0.1402  0.6971
 5936TIP3   OH242002   6.577   5.816   1.980  0.3123 -0.5705 -0.1420
 5936TIP3    H142003   6.529   5.843   2.058  0.9222 -0.2297  0.1197
 5936TIP3    H242004   6.665   5.853   1.991  0.2986 -0.2084 -1.1645
 5937TIP3   OH242005   0.125   4.790   1.054 -0.2447  0.0458  0.7333
 5937TIP3    H142006   0.162   4.725   1.113 -0.2835 -1.2627 -0.6282
 5937TIP3    H242007   0.078   4.739   0.988  2.5347  1.1520 -2.3883
 5938TIP3   OH242008   5.577   1.369   1.940 -0.3458  0.5266 -0.4461
 5938TIP3    H142009   5.621   1.389   1.858  1.2844  1.7661  0.6755
 5938TIP3    H242010   5.505   1.433   1.945  0.4917  1.4674 -0.2114
 5939TIP3   OH242011   6.347   6.817   0.993 -0.2689 -0.4669  0.3337
 5939TIP3    H142012   6.339   6.841   1.085 -1.6955  1.0020 -0.1242
 5939TIP3    H242013   6.355   6.722   0.994  0.2205 -0.4443  1.9837
 5940TIP3   OH242014   0.704   3.511   2.919 -0.7445  0.4856 -0.1755
 5940TIP3    H142015   0.720   3.426   2.878  0.6459  0.5303  0.2204
 5940TIP3    H242016   0.720   3.575   2.849  1.3386  0.5461  0.2790
 5941TIP3   OH242017   0.171   1.951   1.150  0.0195  0.0647  0.0027
 5941TIP3    H142018   0.246   1.892   1.140  0.9578  1.4179 -1.5576
 5941TIP3    H242019   0.210   2.035   1.172 -1.3396  0.0342  2.9056
 5942TIP3   OH242020   0.309   3.423   0.608 -0.9444  0.1906  0.2203
 5942TIP3    H142021   0.239   3.359   0.599 -0.1872 -0.6535  0.1410
 5942TIP3    H242022   0.272   3.493   0.661 -2.0210  0.0373 -0.3105
 5943TIP3   OH242023   5.623   3.771   2.131 -0.3678 -0.0385 -0.0446
 5943TIP3    H142024   5.622   3.717   2.052 -0.8613  0.7116 -0.5757
 5943TIP3    H242025   5.633   3.860   2.098  0.7532  0.1850  0.8281
 5944TIP3   OH242026   4.833   2.362   0.473  0.2436 -0.0028  0.2487
 5944TIP3    H142027   4.842   2.438   0.530  1.1195 -0.1695  0.3366
 5944TIP3    H242028   4.738   2.353   0.460  0.1447  1.5312 -0.3481
 5945TIP3   OH242029   2.299   3.249   2.134  0.5190  0.6683  0.1822
 5945TIP3    H142030   2.248   3.200   2.199  2.3033  0.4778  1.5103
 5945TIP3    H242031   2.241   3.320   2.106 -1.8521 -1.5753 -1.1644
 5946TIP3   OH242032   5.650   7.010   1.761  0.3521  0.2708 -0.0683
 5946TIP3    H142033   5.593   7.042   1.831  0.0707  0.1155 -0.2247
 5946TIP3    H242034   5.678   7.089   1.715  1.8845  0.5327  1.2282
 5947TIP3   OH242035   1.173   7.649   3.032  0.4830  0.0360  0.5780
 5947TIP3    H142036   1.090   7.660   2.985 -0.3180 -1.3174  1.6008
 5947TIP3    H242037   1.204   7.738   3.048  0.6509  0.5533 -2.1987
 5948TIP3   OH242038   3.285   5.197   1.603 -0.5015 -0.8057 -0.4153
 5948TIP3    H142039   3.243   5.201   1.517 -1.4587  0.8025  0.0625
 5948TIP3    H242040   3.212   5.183   1.664 -0.1784  0.4625  0.3066
 5949TIP3   OH242041   0.344   1.072   1.358 -0.4686 -0.0575 -0.2280
 5949TIP3    H142042   0.403   1.088   1.432 -0.7575  1.4067 -0.2799
 5949TIP3    H242043   0.382   1.122   1.286  0.8568 -2.9386 -1.6806
 5950TIP3   OH242044   7.357   0.813   3.103 -0.1783 -0.6094  0.1197
 5950TIP3    H142045   7.357   0.909   3.111  2.1842 -0.6581  1.4304
 5950TIP3    H242046   7.265   0.789   3.114 -0.9150  1.5061 -0.7246
 5951TIP3   OH242047   3.817   0.997   3.348 -0.4334  0.8077 -0.4796
 5951TIP3    H142048   3.754   0.968   3.281 -0.9774  1.4365 -0.2449
 5951TIP3    H242049   3.902   0.966   3.315 -0.9224 -0.6126 -0.4866
 5952TIP3   OH242050   1.112   4.896   0.787  0.1352 -0.3103 -0.3045
 5952TIP3    H142051   1.034   4.861   0.744  0.2672 -0.1743 -0.6509
 5952TIP3    H242052   1.078   4.961   0.848 -0.2265 -1.7836  1.1587
 5953TIP3   OH242053   4.323   6.481   2.308  0.8923 -0.3118 -0.9563
 5953TIP3    H142054   4.228   6.470   2.305  0.7060  0.4418  1.0450
 5953TIP3    H242055   4.337   6.562   2.356  2.5633  0.0564 -1.9696
 5954TIP3   OH242056   1.730   4.233   2.370 -0.4768  0.1787  0.2961
 5954TIP3    H142057   1.740   4.154   2.424  1.6142 -0.4636 -0.9085
 5954TIP3    H242058   1.807   4.286   2.391 -0.8331  0.9770 -0.3750
 5955TIP3   OH242059   6.280   2.120   0.703  0.1919  0.1406 -0.0770
 5955TIP3    H142060   6.299   2.090   0.614  0.6823  0.5385 -0.1116
 5955TIP3    H242061   6.335   2.066   0.759  1.8909  1.6072 -0.2091
 5956TIP3   OH242062   0.297   4.470   6.550  0.5743 -0.2163 -0.8829
 5956TIP3    H142063   0.330   4.497   6.464 -2.0096  1.0957 -1.5849
 5956TIP3    H242064   0.278   4.376   6.540  3.0972 -0.8105 -0.6952
 5957TIP3   OH242065   2.397   7.387   1.417  0.5950  0.5734  0.0744
 5957TIP3    H142066   2.356   7.460   1.464 -0.4720 -0.7718  1.3159
 5957TIP3    H242067   2.329   7.321   1.411  1.6483 -0.4873 -0.6905
 5958TIP3   OH242068   6.221   5.157   1.885  0.4049  0.1261  0.0143
 5958TIP3    H142069   6.270   5.075   1.874  0.4313  0.4274 -2.9085
 5958TIP3    H242070   6.141   5.144   1.834 -0.1775  1.4895  0.5334
 5959TIP3   OH242071   5.169   7.453   1.900  0.2190  0.0777 -0.0768
 5959TIP3    H142072   5.128   7.367   1.902  2.7728 -1.2066  0.9298
 5959TIP3    H242073   5.190   7.467   1.807 -0.1212 -0.4301 -0.2341
 5960TIP3   OH242074   1.834   4.635   2.608 -0.0313 -0.0200  0.2020
 5960TIP3    H142075   1.820   4.627   2.702 -2.0342 -2.5566 -0.1631
 5960TIP3    H242076   1.764   4.581   2.570  1.4983 -0.1395 -2.6891
 5961TIP3   OH242077   3.196   5.525   1.801  0.5774 -0.2643 -0.5600
 5961TIP3    H142078   3.146   5.452   1.762  1.0239 -0.6729 -0.3694
 5961TIP3    H242079   3.227   5.575   1.726 -0.4976  0.2536 -0.6764
 5962TIP3   OH242080   7.147   4.229   1.839 -0.2602 -0.6343 -0.1230
 5962TIP3    H142081   7.085   4.223   1.766  0.6057 -0.8412 -0.8649
 5962TIP3    H242082   7.215   4.165   1.818  0.7254  0.2997  0.1602
 5963TIP3   OH242083   2.641   6.528   0.579  0.0810 -0.7442 -0.9505
 5963TIP3    H142084   2.573   6.586   0.545 -0.0353 -0.3712 -0.1145
 5963TIP3    H242085   2.616   6.441   0.548 -1.0937 -0.6924 -0.2054
 5964TIP3   OH242086   3.729   3.469   0.399  0.5138 -0.3444 -0.3730
 5964TIP3    H142087   3.699   3.560   0.400  1.1349 -0.1142 -1.3863
 5964TIP3    H242088   3.694   3.432   0.480  0.2025  0.7777  0.0318
 5965TIP3   OH242089   3.153   7.016   3.055  0.4967 -0.7243 -0.3697
 5965TIP3    H142090   3.076   6.968   3.087 -0.0586  1.6403  2.1663
 5965TIP3    H242091   3.118   7.076   2.989 -0.0718  0.9139  1.3496
 5966TIP3   OH242092   3.192   1.017   2.748 -0.2154  0.5339 -0.6668
 5966TIP3    H142093   3.189   1.018   2.844 -1.2030  0.5520 -0.6785
 5966TIP3    H242094   3.180   1.108   2.722 -2.6954  0.2593 -0.8015
 5967TIP3   OH242095   1.522   2.045   2.322 -0.2635  0.4894 -0.2624
 5967TIP3    H142096   1.525   1.971   2.382  2.1958 -0.8663 -1.9155
 5967TIP3    H242097   1.526   2.122   2.380  0.1457 -0.6967  1.3696
 5968TIP3   OH242098   3.653   5.015   2.298  0.4091 -0.0576  0.1018
 5968TIP3    H142099   3.629   5.047   2.385 -0.1334  2.6532 -0.9337
 5968TIP3    H242100   3.747   5.033   2.290  0.1133  1.3764 -0.4637
 5969TIP3   OH242101   3.736   7.516   1.340 -0.1126 -0.0418  0.5569
 5969TIP3    H142102   3.830   7.526   1.331  0.1295  0.0505  2.6772
 5969TIP3    H242103   3.725   7.449   1.408 -1.5844 -0.5384 -0.1206
 5970TIP3   OH242104   7.069   2.572   1.292 -0.1772 -0.1635 -0.3591
 5970TIP3    H142105   7.042   2.664   1.289  0.4791  0.0106 -1.6727
 5970TIP3    H242106   7.126   2.566   1.368 -0.1044  0.5609 -0.3461
 5971TIP3   OH242107   3.557   4.205   1.443 -0.2373 -0.3865 -0.0531
 5971TIP3    H142108   3.556   4.295   1.477  0.6490 -0.1660 -0.5797
 5971TIP3    H242109   3.537   4.151   1.519 -0.3197  0.2272  0.3725
 5972TIP3   OH242110   2.656   4.837   0.608  0.3783 -0.2150 -0.4370
 5972TIP3    H142111   2.745   4.856   0.640  0.0682  0.2191  0.1865
 5972TIP3    H242112   2.631   4.757   0.654  0.4920 -0.4044 -0.7041
 5973TIP3   OH242113   1.733   3.869   0.471  0.1299  0.0655  0.1226
 5973TIP3    H142114   1.825   3.886   0.491  0.1591 -0.4961  0.4948
 5973TIP3    H242115   1.735   3.787   0.421  0.0189  1.2061 -1.8491
 5974TIP3   OH242116   5.757   4.619   2.234 -0.2527 -0.2309 -0.4237
 5974TIP3    H142117   5.772   4.568   2.314 -2.3519  1.4973  1.1948
 5974TIP3    H242118   5.792   4.705   2.254 -0.6425  0.1751 -1.4309
 5975TIP3   OH242119   0.595   2.124   2.608  0.0266  0.1465 -0.1598
 5975TIP3    H142120   0.596   2.163   2.521  1.2869 -0.0949 -0.2707
 5975TIP3    H242121   0.632   2.191   2.665  1.2316 -0.4754 -0.1828
 5976TIP3   OH242122   4.977   1.247   1.958  0.2830  0.2782 -0.2501
 5976TIP3    H142123   4.939   1.166   1.994  0.9390 -0.3619 -0.9623
 5976TIP3    H242124   5.006   1.223   1.870  1.4198  1.0042 -0.0973
 5977TIP3   OH242125   3.940   3.568   1.790  0.0001 -0.2850 -0.4562
 5977TIP3    H142126   4.016   3.509   1.794 -0.6524 -1.1924 -0.9710
 5977TIP3    H242127   3.961   3.629   1.720  0.2489 -0.5471 -0.6135
 5978TIP3   OH242128   0.071   5.430   0.876 -0.2006 -0.0113 -0.5351
 5978TIP3    H142129   0.088   5.518   0.842  1.0904 -0.7376 -1.9272
 5978TIP3    H242130   0.087   5.373   0.801 -2.7453 -1.3353 -0.1535
 5979TIP3   OH242131   3.755   2.009   1.840 -0.1863 -0.3835  0.1242
 5979TIP3    H142132   3.719   2.048   1.919  2.2480  2.0635  0.1986
 5979TIP3    H242133   3.718   2.060   1.769 -1.2922 -1.6814 -0.2782
 5980TIP3   OH242134   2.008   7.159   1.729  0.3089  0.3175 -0.0255
 5980TIP3    H142135   2.092   7.188   1.764  0.6015  0.4595 -0.8277
 5980TIP3    H242136   1.979   7.230   1.672  0.1932 -0.1967 -0.6293
 5981TIP3   OH242137   1.703   4.187   2.736 -0.0226  0.4298  0.2477
 5981TIP3    H142138   1.755   4.156   2.662  0.5262  0.0920  0.7509
 5981TIP3    H242139   1.769   4.211   2.802 -0.5044 -0.3576  1.0375
 5982TIP3   OH242140   4.212   1.150   1.811  0.7001 -0.5137  0.0450
 5982TIP3    H142141   4.198   1.245   1.822  2.0939 -0.4934  2.0969
 5982TIP3    H242142   4.282   1.129   1.872  0.1095 -2.9802 -0.0476
 5983TIP3   OH242143   3.569   2.301   1.622 -0.1691  0.0471  0.0632
 5983TIP3    H142144   3.540   2.350   1.545 -2.0137  0.1893  0.7999
 5983TIP3    H242145   3.536   2.351   1.696 -0.6854 -1.4454  0.8712
 5984TIP3   OH242146   4.453   7.461   0.926  0.1405  0.6049  0.4306
 5984TIP3    H142147   4.373   7.424   0.963 -0.4107  3.0213  1.8950
 5984TIP3    H242148   4.431   7.481   0.836  0.0719 -1.3309 -0.0327
 5985TIP3   OH242149   2.610   2.702   1.395  0.5312 -0.1615 -0.5695
 5985TIP3    H142150   2.605   2.607   1.405  0.8437 -0.2548 -1.3241
 5985TIP3    H242151   2.582   2.719   1.305 -1.0231  0.5916  0.0167
 5986TIP3   OH242152   3.653   4.374   0.832 -0.3505  0.6740 -0.7986
 5986TIP3    H142153   3.595   4.299   0.837  0.2069  0.2261 -0.9009
 5986TIP3    H242154   3.643   4.418   0.917 -1.0927  0.8036 -0.9525
 5987TIP3   OH242155   2.423   3.596   3.266  0.4465  0.4531 -0.2541
 5987TIP3    H142156   2.495   3.550   3.222  0.5805 -0.0635  0.4992
 5987TIP3    H242157   2.466   3.649   3.333  0.0735 -0.6227  0.8794
 5988TIP3   OH242158   5.146   4.679   1.262  0.1162 -0.1839  0.3243
 5988TIP3    H142159   5.145   4.605   1.322 -0.6668 -1.8906 -1.6591
 5988TIP3    H242160   5.190   4.749   1.310  0.8823 -1.9208  2.2804
 5989TIP3   OH242161   3.114   6.123   1.072 -0.4749 -0.0965  0.2215
 5989TIP3    H142162   3.114   6.194   1.007 -3.8674  0.2659  0.4287
 5989TIP3    H242163   3.169   6.055   1.033 -2.6032 -0.0669 -3.3461
 5990TIP3   OH242164   0.797   4.260   0.599  0.2388 -0.4888  0.5060
 5990TIP3    H142165   0.875   4.244   0.652 -0.4571  0.2171  1.7748
 5990TIP3    H242166   0.807   4.200   0.524  1.3642 -1.3260  1.2891
 5991TIP3   OH242167   4.249   1.881   0.850  0.3061 -0.1243 -0.0344
 5991TIP3    H142168   4.189   1.940   0.804  1.1771  0.5331 -0.3633
 5991TIP3    H242169   4.278   1.931   0.927  1.2898  0.0224 -0.4780
 5992TIP3   OH242170   6.638   4.818   3.079  0.1549  0.5916 -0.1570
 5992TIP3    H142171   6.697   4.829   3.154 -0.1987  0.3308  0.1581
 5992TIP3    H242172   6.658   4.731   3.046  0.7381  0.9363 -0.7418
 5993TIP3   OH242173   7.482   2.143   1.411  0.3552  0.4037  0.3259
 5993TIP3    H142174   7.410   2.160   1.350 -0.9808  0.6179  1.8702
 5993TIP3    H242175   7.449   2.071   1.465  0.2536  2.0563  2.6065
 5994TIP3   OH242176   3.559   7.389   1.921 -0.0247 -0.1818  0.3317
 5994TIP3    H142177   3.494   7.418   1.985  0.0324  0.7341 -0.0097
 5994TIP3    H242178   3.507   7.346   1.852 -0.3028  0.6724 -0.0098
 5995TIP3   OH242179   5.083   4.583   2.010 -0.5138 -0.1644  0.0408
 5995TIP3    H142180   4.993   4.576   2.042 -0.7822  1.1208 -0.3643
 5995TIP3    H242181   5.077   4.570   1.916 -0.3219  0.1985 -0.0253
 5996TIP3   OH242182   6.294   3.167   2.239 -0.4285 -0.6050  0.1339
 5996TIP3    H142183   6.301   3.077   2.269  1.4580 -0.3993  0.4236
 5996TIP3    H242184   6.216   3.201   2.283 -0.8783 -1.9378  0.4025
 5997TIP3   OH242185   3.844   5.699   2.592  0.4381 -0.2392  0.5103
 5997TIP3    H142186   3.839   5.616   2.545  0.2043  0.9265 -1.6308
 5997TIP3    H242187   3.774   5.693   2.657 -0.5151 -1.1700 -0.5449
 5998TIP3   OH242188   7.051   2.957   1.012 -0.0392  0.4109  0.3079
 5998TIP3    H142189   7.141   2.928   1.025 -0.6773 -1.0792  1.7698
 5998TIP3    H242190   7.052   3.003   0.928  1.7848 -0.8017 -0.3775
 5999TIP3   OH242191   6.380   2.123   1.478 -0.0683  0.2069 -0.0360
 5999TIP3    H142192   6.290   2.099   1.499  0.0618 -0.3559 -0.0870
 5999TIP3    H242193   6.422   2.040   1.455  0.3523  0.5196 -0.4286
 6000TIP3   OH242194   1.600   1.831   1.228  0.5404 -0.1166 -0.0996
 6000TIP3    H142195   1.586   1.808   1.136 -0.5406 -0.6981  0.1972
 6000TIP3    H242196   1.515   1.863   1.258  0.9718  0.3842  0.6171
 6001TIP3   OH242197   3.941   6.671   2.369  0.3495  0.3991 -0.5327
 6001TIP3    H142198   3.872   6.646   2.430  1.4022 -1.1092  0.1074
 6001TIP3    H242199   3.996   6.732   2.420  0.8707 -0.3617 -0.1661
 6002TIP3   OH242200   2.776   1.562   2.097  0.2602  0.0444  0.3078
 6002TIP3    H142201   2.778   1.576   2.191  1.0219 -0.3090  0.3511
 6002TIP3    H242202   2.846   1.499   2.080 -1.5437 -1.9328 -0.1747
 6003TIP3   OH242203   4.248   2.824   0.908 -0.1560 -0.0089 -0.1642
 6003TIP3    H142204   4.239   2.848   0.815 -3.9007 -0.0391  0.0489
 6003TIP3    H242205   4.284   2.902   0.949  0.0479  0.5871 -1.4192
 6004TIP3   OH242206   1.075   2.150   1.220 -0.1112  0.0334  0.1796
 6004TIP3    H142207   1.101   2.236   1.188 -0.9842 -0.2356 -1.3572
 6004TIP3    H242208   1.082   2.092   1.144 -0.5217 -1.0341  0.9252
 6005TIP3   OH242209   6.134   5.573   1.561  0.3137  0.2329 -0.4272
 6005TIP3    H142210   6.072   5.592   1.491  1.1491 -1.4737 -1.6850
 6005TIP3    H242211   6.151   5.658   1.602 -0.9323  1.1082 -1.6514
 6006TIP3   OH242212   0.012   2.220   0.728  0.2402  0.3516  0.4048
 6006TIP3    H142213   0.033   2.276   0.802  1.3717 -0.3443  0.6258
 6006TIP3    H242214   0.012   2.279   0.653  0.2439  0.8583  0.8011
 6007TIP3   OH242215   1.293   0.596   3.238 -0.4594 -0.1405  0.3522
 6007TIP3    H142216   1.247   0.670   3.278  0.5366  0.3594  0.5931
 6007TIP3    H242217   1.224   0.533   3.217 -1.3193  0.8351  0.1914
 6008TIP3   OH242218   6.430   3.477   2.267 -0.1168  0.5163 -0.6280
 6008TIP3    H142219   6.397   3.564   2.286 -0.7037  0.5086 -1.5142
 6008TIP3    H242220   6.512   3.470   2.316 -0.9305  0.9084  0.8312
 6009TIP3   OH242221   1.980   0.937   2.559 -0.1304  0.3739  0.0997
 6009TIP3    H142222   2.044   0.869   2.540  1.3159  1.8917 -0.6620
 6009TIP3    H242223   1.998   0.963   2.649 -0.5828 -0.1090  0.3385
 6010TIP3   OH242224   3.711   4.974   3.157  0.3972 -0.2496 -0.1655
 6010TIP3    H142225   3.793   4.924   3.153  0.7057  0.3018 -0.9849
 6010TIP3    H242226   3.722   5.031   3.233  1.0230  0.2165 -0.5882
 6011TIP3   OH242227   0.021   4.019   1.066  0.2071 -0.2234  0.1776
 6011TIP3    H142228   0.090   3.987   1.009  1.1060  2.5554 -0.4622
 6011TIP3    H242229  -0.052   4.040   1.007 -0.7836 -1.9959  0.7059
 6012TIP3   OH242230   5.960   3.100   1.220  0.2578 -0.3151  0.3675
 6012TIP3    H142231   5.994   3.135   1.302  0.4292  0.9268 -0.2086
 6012TIP3    H242232   5.989   3.163   1.154 -2.6005  0.5236 -0.2426
 6013TIP3   OH242233   4.660   6.579   0.634  0.3024 -0.2949  0.2862
 6013TIP3    H142234   4.636   6.653   0.689  3.7090  0.0617  1.5517
 6013TIP3    H242235   4.727   6.613   0.575 -0.3260 -1.6581 -1.3011
 6014TIP3   OH242236   5.162   3.468   1.470 -0.0184 -0.0198 -0.5548
 6014TIP3    H142237   5.073   3.495   1.450  0.2298  1.3790  0.1481
 6014TIP3    H242238   5.191   3.421   1.392 -0.8725  0.7696 -1.3666
 6015TIP3   OH242239   3.648   6.909   1.529 -0.4118  0.5950 -0.0079
 6015TIP3    H142240   3.587   6.898   1.457  0.4370  0.0158 -0.6565
 6015TIP3    H242241   3.593   6.933   1.604 -1.4755 -0.3562 -0.4558
 6016TIP3   OH242242   2.345   3.514   2.270 -0.0194 -0.0672 -0.2466
 6016TIP3    H142243   2.408   3.446   2.243  0.5259  0.0843  0.5891
 6016TIP3    H242244   2.343   3.576   2.197 -0.0231 -0.6396 -0.7415
 6017TIP3   OH242245   5.765   0.725   2.605  0.2432  0.2935  0.0014
 6017TIP3    H142246   5.746   0.818   2.589 -2.3122 -0.3882 -1.5885
 6017TIP3    H242247   5.811   0.724   2.688  0.7591  3.0151 -0.1420
 6018TIP3   OH242248   3.864   4.945   3.520 -0.2770 -0.3758  0.4308
 6018TIP3    H142249   3.874   5.031   3.560 -2.1786 -1.4704  3.6063
 6018TIP3    H242250   3.954   4.913   3.509  0.5255  2.2382 -1.7006
 6019TIP3   OH242251   1.217   7.679   3.359 -0.0743 -0.2798 -0.1515
 6019TIP3    H142252   1.164   7.663   3.438  0.6224  0.2576  0.4383
 6019TIP3    H242253   1.180   7.759   3.321  0.4274  0.2088  0.3709
 6020TIP3   OH242254   4.930   3.813   1.078 -0.3409  0.1067 -0.0345
 6020TIP3    H142255   4.925   3.718   1.090  1.1712  0.0272  0.1761
 6020TIP3    H242256   4.881   3.830   0.998 -2.8587 -0.4994  1.2769
 6021TIP3   OH242257   4.193   0.613   2.580 -0.0581  0.2262  0.2637
 6021TIP3    H142258   4.207   0.601   2.674  1.2106  0.9730  0.1963
 6021TIP3    H242259   4.280   0.605   2.541 -0.7077 -1.1529 -0.9990
 6022TIP3   OH242260   5.004   6.232   1.922  0.8781  0.0223 -0.1145
 6022TIP3    H142261   5.013   6.319   1.881  1.2215  0.4600  0.8687
 6022TIP3    H242262   4.976   6.175   1.850 -1.2918  1.3290 -0.3930
 6023TIP3   OH242263   6.722   6.017   1.205 -0.0055 -0.3725 -0.1214
 6023TIP3    H142264   6.633   5.980   1.208 -0.2541  0.1029 -1.2248
 6023TIP3    H242265   6.711   6.103   1.164  0.9524 -0.2500 -0.1383
 6024TIP3   OH242266   1.347   7.213   1.996  0.0380 -0.4690  1.0565
 6024TIP3    H142267   1.412   7.275   2.029  0.3103 -0.5707  0.7103
 6024TIP3    H242268   1.365   7.206   1.902 -0.6188 -0.3195  0.9129
 6025TIP3   OH242269   2.986   3.277   1.813 -0.6530  0.2970 -0.1496
 6025TIP3    H142270   2.962   3.217   1.885 -0.7372 -1.3863 -1.5111
 6025TIP3    H242271   3.032   3.349   1.857  0.5268 -1.3439  1.4862
 6026TIP3   OH242272   1.277   6.948   2.134 -0.5504 -0.2458  0.5349
 6026TIP3    H142273   1.317   7.022   2.087 -0.8129 -0.1281  0.4944
 6026TIP3    H242274   1.184   6.954   2.112 -0.5651 -0.6146  0.4988
 6027TIP3   OH242275   1.566   3.959   1.925  0.3483  0.0874 -0.7057
 6027TIP3    H142276   1.473   3.979   1.929  0.1275 -0.9804  0.0682
 6027TIP3    H242277   1.585   3.952   1.831  0.1528  2.3500 -0.9713
 6028TIP3   OH242278   2.927   5.212   0.786 -0.2168 -0.6778  0.3317
 6028TIP3    H142279   2.947   5.248   0.872  1.1323 -2.0024  0.6085
 6028TIP3    H242280   3.006   5.227   0.734 -1.7106  2.0687 -1.4580
 6029TIP3   OH242281   0.661   0.668   0.595  0.1138 -0.2665 -0.2701
 6029TIP3    H142282   0.723   0.626   0.535  0.6983 -1.0491  0.8493
 6029TIP3    H242283   0.668   0.761   0.575  2.2008 -0.2422  0.2799
 6030TIP3   OH242284   6.024   0.702   1.932 -0.3313 -0.5102 -0.1802
 6030TIP3    H142285   5.986   0.621   1.898 -1.5941  0.5155 -1.3089
 6030TIP3    H242286   6.065   0.743   1.857 -0.9814  0.5932  0.0459
 6031TIP3   OH242287   2.507   6.752   2.068  0.1002 -0.3488  0.0284
 6031TIP3    H142288   2.471   6.695   2.137 -1.4451 -0.0227 -0.4643
 6031TIP3    H242289   2.528   6.692   1.997  2.6947 -0.8322  1.0829
 6032TIP3   OH242290   5.091   2.316   0.368  0.2314 -0.7360  0.6630
 6032TIP3    H142291   5.013   2.347   0.414 -0.8486 -1.0679 -0.8776
 6032TIP3    H242292   5.060   2.293   0.281  1.8246 -2.0593  0.3999
 6033TIP3   OH242293   7.656   6.573   2.682  0.2018 -0.0680  0.2439
 6033TIP3    H142294   7.580   6.625   2.654 -0.6860 -1.0099  0.8504
 6033TIP3    H242295   7.618   6.500   2.731  1.5933  0.2876  1.9336
 6034TIP3   OH242296   6.124   1.379   2.535 -0.4719  0.0178  0.6727
 6034TIP3    H142297   6.172   1.440   2.480  0.5228 -0.6030  0.8172
 6034TIP3    H242298   6.048   1.354   2.483  0.7839 -1.0534 -0.7207
 6035TIP3   OH242299   2.478   2.712   0.555  0.5873 -0.1748  0.1497
 6035TIP3    H142300   2.396   2.759   0.539 -1.3675 -1.4212  4.8029
 6035TIP3    H242301   2.546   2.774   0.531 -1.6544  1.7776 -1.7684
 6036TIP3   OH242302   2.159   7.245   1.449  0.2560  0.5009  0.5754
 6036TIP3    H142303   2.114   7.294   1.518 -0.4865  1.3015 -0.4456
 6036TIP3    H242304   2.088   7.211   1.394  0.8028 -0.8982  0.6941
 6037TIP3   OH242305   4.592   6.238   2.390  0.1175  0.6044 -0.3361
 6037TIP3    H142306   4.514   6.207   2.345 -0.4916  0.9175  0.4734
 6037TIP3    H242307   4.659   6.244   2.322 -0.0963 -1.1999 -0.7482
 6038TIP3   OH242308   6.186   5.092   2.839 -0.2912 -0.3826  0.0404
 6038TIP3    H142309   6.185   5.027   2.909 -1.7850  0.9156  1.2911
 6038TIP3    H242310   6.263   5.147   2.858 -0.6013 -0.1320  0.5816
 6039TIP3   OH242311   3.842   0.794   1.084  0.5818 -0.0567 -0.1150
 6039TIP3    H142312   3.893   0.874   1.100  1.4879 -0.1596 -2.1603
 6039TIP3    H242313   3.900   0.739   1.031 -0.9627 -0.9686 -0.9348
 6040TIP3   OH242314   6.144   0.644   2.918  0.4929 -0.8032  0.3357
 6040TIP3    H142315   6.102   0.560   2.937  1.7741 -1.4466  0.4008
 6040TIP3    H242316   6.155   0.644   2.823 -0.9397  0.0164  0.1349
 6041TIP3   OH242317   2.923   2.132   3.424 -0.5659 -0.6706 -0.0310
 6041TIP3    H142318   2.839   2.109   3.463 -0.8185  2.6454  1.6652
 6041TIP3    H242319   2.901   2.166   3.337 -0.8973 -0.5619  0.0946
 6042TIP3   OH242320   1.285   6.570   1.774  0.2706  0.2840 -0.2569
 6042TIP3    H142321   1.349   6.568   1.846  0.4029 -0.7228 -0.3861
 6042TIP3    H242322   1.317   6.504   1.712  0.0826  1.0496 -1.1827
 6043TIP3   OH242323   4.070   0.312   1.794  0.2104 -0.0063 -0.1415
 6043TIP3    H142324   4.102   0.349   1.876  0.6817 -0.3665 -0.1513
 6043TIP3    H242325   4.019   0.236   1.820 -0.5158  0.4792 -0.1347
 6044TIP3   OH242326   7.169   5.243   1.773 -0.3157 -0.0545 -0.5853
 6044TIP3    H142327   7.155   5.332   1.803 -1.4511  0.2706 -1.9462
 6044TIP3    H242328   7.263   5.227   1.785 -0.6983 -0.2065  3.5484
 6045TIP3   OH242329   6.273   0.979   1.612  0.2148 -0.0401 -0.5978
 6045TIP3    H142330   6.341   1.019   1.559  0.0041  0.9929 -0.1194
 6045TIP3    H242331   6.293   1.006   1.702 -0.2602 -0.5471 -0.3331
 6046TIP3   OH242332   5.129   5.381   1.416 -0.0524 -0.0321 -0.4147
 6046TIP3    H142333   5.073   5.342   1.484  0.5499 -1.6627 -0.8087
 6046TIP3    H242334   5.159   5.463   1.455  0.1297 -0.8359  1.2336
 6047TIP3   OH242335   3.522   1.731   1.195 -0.2531 -0.4979  1.2747
 6047TIP3    H142336   3.511   1.700   1.285  2.0023  0.9862  2.1798
 6047TIP3    H242337   3.443   1.783   1.178 -1.6986 -2.5171  1.5603
 6048TIP3   OH242338   3.555   2.423   0.725  0.2836 -0.0031  0.1139
 6048TIP3    H142339   3.627   2.477   0.693  0.9356 -0.9145 -0.0051
 6048TIP3    H242340   3.576   2.334   0.695 -0.8213 -0.3145  0.1886
 6049TIP3   OH242341   2.615   0.504   0.519  0.4041 -0.2808 -0.0882
 6049TIP3    H142342   2.663   0.426   0.545  0.7836  0.1664  0.5697
 6049TIP3    H242343   2.551   0.517   0.588  2.0383  1.4601  1.2003
 6050TIP3   OH242344   5.347   5.016   0.638 -0.3225 -0.3518 -0.3568
 6050TIP3    H142345   5.273   5.075   0.646  1.7941  2.2625  2.4859
 6050TIP3    H242346   5.345   4.964   0.719 -0.0800 -1.6143 -1.1322
 6051TIP3   OH242347   0.049   4.367   0.783  0.3661  0.2743 -0.6413
 6051TIP3    H142348   0.133   4.370   0.738  1.7839  2.1645  1.8763
 6051TIP3    H242349   0.060   4.301   0.851 -0.4201  0.0878 -0.6845
 6052TIP3   OH242350   6.441   1.889   2.841 -0.1945  0.3415 -0.2101
 6052TIP3    H142351   6.464   1.807   2.884 -1.1053 -0.4362 -1.1277
 6052TIP3    H242352   6.427   1.951   2.913 -0.6947 -0.6431  0.5786
 6053TIP3   OH242353   2.683   2.882   1.591 -0.1166  0.3953  0.6780
 6053TIP3    H142354   2.770   2.915   1.614  1.0399 -2.3973  0.7382
 6053TIP3    H242355   2.701   2.812   1.528 -1.7645 -3.7913  4.3868
 6054TIP3   OH242356   5.763   4.631   1.974 -0.4593 -0.4032 -0.3983
 6054TIP3    H142357   5.680   4.678   1.978  0.5958  1.4970  0.7786
 6054TIP3    H242358   5.792   4.626   2.065  0.2955 -1.8717 -0.6821
 6055TIP3   OH242359   7.271   2.038   2.089 -0.3250  0.2180  0.0883
 6055TIP3    H142360   7.313   2.118   2.120  1.2894 -0.8225  0.7042
 6055TIP3    H242361   7.276   1.978   2.163  0.0135 -0.9979 -0.8938
 6056TIP3   OH242362   2.588   5.218   1.469  0.6182  0.2767  0.2229
 6056TIP3    H142363   2.582   5.313   1.481 -0.5058  0.2160  0.3065
 6056TIP3    H242364   2.511   5.197   1.416 -0.6966 -0.9440  2.4843
 6057TIP3   OH242365   4.053   0.276   2.337 -0.0345  0.0666 -0.1266
 6057TIP3    H142366   4.018   0.341   2.398 -2.5260 -1.0326 -0.2687
 6057TIP3    H242367   4.044   0.193   2.383 -2.1454 -0.8167 -1.9607
 6058TIP3   OH242368   5.289   6.489   1.231 -0.2079  0.3090  0.2575
 6058TIP3    H142369   5.296   6.439   1.312 -0.6676  0.3020  0.2914
 6058TIP3    H242370   5.279   6.423   1.163 -1.3739  0.3597  0.3583
 6059TIP3   OH242371   6.710   4.480   2.404 -0.5332 -1.0027  0.1223
 6059TIP3    H142372   6.761   4.399   2.412 -2.2871 -2.3415 -1.4502
 6059TIP3    H242373   6.631   4.463   2.454 -2.3988 -1.6413 -2.7988
 6060TIP3   OH242374   1.109   3.337   0.588 -0.0292  0.0356 -0.2273
 6060TIP3    H142375   1.117   3.393   0.511 -0.8490 -1.0908 -1.1670
 6060TIP3    H242376   1.027   3.290   0.575  0.9459 -1.8765  0.1681
 6061TIP3   OH242377   5.174   1.010   0.887 -0.2858  0.9647  0.4341
 6061TIP3    H142378   5.213   1.001   0.974 -1.3387  0.3364  0.8497
 6061TIP3    H242379   5.249   1.032   0.831  0.4385  1.2073  1.4534
 6062TIP3   OH242380   0.210   5.660   0.790  0.0911  0.4519 -0.4407
 6062TIP3    H142381   0.233   5.642   0.699  0.3458 -0.1734 -0.2594
 6062TIP3    H242382   0.207   5.756   0.796 -0.4817  0.4927 -1.2408
 6063TIP3   OH242383   4.556   4.071   0.384 -0.0366  0.5368  1.0691
 6063TIP3    H142384   4.595   4.087   0.298  0.2184  0.0697  1.0980
 6063TIP3    H242385   4.469   4.111   0.378  0.0191  0.6016  0.6308
 6064TIP3   OH242386   0.202   1.203   0.876  0.7525  0.9031  0.6905
 6064TIP3    H142387   0.168   1.147   0.946  1.3657 -1.0955 -0.5348
 6064TIP3    H242388   0.124   1.249   0.842 -0.0903 -0.5671  0.5562
 6065TIP3   OH242389   2.465   0.255   1.955 -0.0061  0.2370 -0.2563
 6065TIP3    H142390   2.378   0.296   1.954 -0.4129 -0.5434  0.7826
 6065TIP3    H242391   2.524   0.322   1.920 -1.0561  0.6922 -1.2176
 6066TIP3   OH242392   5.441   2.520   1.751  0.7057  0.2740  0.0202
 6066TIP3    H142393   5.361   2.478   1.720  0.9483  0.7205 -1.2597
 6066TIP3    H242394   5.411   2.600   1.795  0.3495 -0.4336  1.0884
 6067TIP3   OH242395   0.987   0.545   1.182 -0.4721  0.4221 -0.0276
 6067TIP3    H142396   1.004   0.598   1.105 -1.5696  0.3607 -0.3367
 6067TIP3    H242397   1.046   0.578   1.249 -0.7436  1.6601 -0.3809
 6068TIP3   OH242398   3.478   3.712   3.001 -0.5536 -0.5328 -0.3363
 6068TIP3    H142399   3.429   3.638   2.965 -0.0347 -1.5574  0.9589
 6068TIP3    H242400   3.560   3.713   2.952 -0.2233 -1.3580  0.1697
 6069TIP3   OH242401   3.202   0.386   1.456  0.0715  0.3097  0.5946
 6069TIP3    H142402   3.188   0.312   1.397  1.2677  0.5854 -0.0735
 6069TIP3    H242403   3.291   0.416   1.436 -0.4015  1.9584  0.8075
 6070TIP3   OH242404   0.358   4.964   2.128 -0.2293  0.1925  0.3657
 6070TIP3    H142405   0.344   4.870   2.112  0.2853  0.4592 -2.0297
 6070TIP3    H242406   0.403   4.967   2.212  1.3389 -1.8621 -0.3045
 6071TIP3   OH242407   6.560   5.046   2.309 -0.0085 -0.5072  0.0219
 6071TIP3    H142408   6.542   5.085   2.223  0.2926 -1.5383 -0.5223
 6071TIP3    H242409   6.475   5.012   2.337 -0.6498  1.8648  1.2360
 6072TIP3   OH242410   7.047   4.368   1.604  0.1296 -0.1679 -0.0957
 6072TIP3    H142411   7.139   4.391   1.615  0.0496 -0.0602  0.4068
 6072TIP3    H242412   7.008   4.446   1.563 -0.0945  0.5509  1.3997
 6073TIP3   OH242413   0.314   6.709   2.343  0.1693 -0.0365 -0.0175
 6073TIP3    H142414   0.288   6.735   2.432  0.4330 -0.6094  0.2347
 6073TIP3    H242415   0.353   6.622   2.355  0.7641  0.1454 -0.6140
 6074TIP3   OH242416   1.908   2.518   0.786 -0.4611  0.0342  0.1290
 6074TIP3    H142417   1.892   2.427   0.761 -1.5145  0.2486  0.0091
 6074TIP3    H242418   1.939   2.512   0.877  3.4397 -0.7579 -1.0463
 6075TIP3   OH242419   2.107   0.461   2.674  0.2043 -0.3800 -0.3091
 6075TIP3    H142420   2.028   0.461   2.619 -3.2708 -0.1325  4.0712
 6075TIP3    H242421   2.113   0.551   2.706  0.5128 -1.0231  1.5458
 6076TIP3   OH242422   5.872   6.592   1.357  0.2192 -0.2423 -0.0767
 6076TIP3    H142423   5.838   6.682   1.353  0.7590  0.1326  2.5337
 6076TIP3    H242424   5.964   6.600   1.329  0.0352 -0.1577 -0.6820
 6077TIP3   OH242425   0.699   5.833   1.998 -0.1201 -0.1973  0.8457
 6077TIP3    H142426   0.640   5.845   2.072 -0.9568 -0.2513  0.1991
 6077TIP3    H242427   0.676   5.903   1.937 -0.2039 -0.8145  0.1530
 6078TIP3   OH242428   4.642   6.809   0.770 -0.0149  0.1036  0.0994
 6078TIP3    H142429   4.717   6.831   0.825 -0.4539  0.2009  0.6814
 6078TIP3    H242430   4.587   6.887   0.772  0.3538  0.4200 -1.1819
 6079TIP3   OH242431   2.418   6.482   2.572  0.1722  0.4392 -0.1234
 6079TIP3    H142432   2.462   6.551   2.623  2.3145 -0.1414 -1.0712
 6079TIP3    H242433   2.474   6.406   2.582 -1.1391 -0.6303 -0.6940
 6080TIP3   OH242434   6.532   0.099   0.890 -0.0886 -0.6509  0.0860
 6080TIP3    H142435   6.467   0.130   0.954 -1.2382  0.9723 -1.7403
 6080TIP3    H242436   6.479   0.058   0.821  0.9348 -0.4603 -0.8305
 6081TIP3   OH242437   2.847   2.316   1.513 -0.8027  0.7117 -0.5790
 6081TIP3    H142438   2.752   2.314   1.527 -0.7079  1.7985  0.3419
 6081TIP3    H242439   2.862   2.396   1.463 -0.2449  1.2995  0.4884
 6082TIP3   OH242440   4.572   3.277   2.257  0.2902  0.0133 -0.1963
 6082TIP3    H142441   4.502   3.319   2.207 -0.1599 -0.0440  0.3698
 6082TIP3    H242442   4.547   3.291   2.349  0.2196 -1.3345  0.0044
 6083TIP3   OH242443   3.867   1.648   0.681 -0.2964 -0.3112  0.6780
 6083TIP3    H142444   3.961   1.629   0.683 -0.4253 -1.0007  0.3891
 6083TIP3    H242445   3.830   1.579   0.627 -0.7879  0.7761 -0.3996
 6084TIP3   OH242446   4.219   3.278   1.997 -0.2113  0.1417 -0.5080
 6084TIP3    H142447   4.208   3.254   1.905 -1.7227 -0.7216 -0.1368
 6084TIP3    H242448   4.131   3.295   2.028  0.3416  1.0661  0.6359
 6085TIP3   OH242449   4.544   2.923   2.538 -0.1774 -0.4600 -0.0866
 6085TIP3    H142450   4.612   2.856   2.544  0.1857 -0.0086  1.1066
 6085TIP3    H242451   4.489   2.895   2.466 -1.6106 -3.5337  1.9902
 6086TIP3   OH242452   3.211   2.966   1.202 -0.0871 -0.0309  0.2723
 6086TIP3    H142453   3.306   2.967   1.212  0.0454 -0.8404 -0.7646
 6086TIP3    H242454   3.196   3.006   1.116 -0.7041  0.3306  0.5435
 6087TIP3   OH242455   0.087   0.599   2.266  0.2928  0.1093 -0.0046
 6087TIP3    H142456   0.018   0.547   2.223 -0.6977  0.8495  0.6310
 6087TIP3    H242457   0.068   0.590   2.360  0.2026  1.4693  0.1212
 6088TIP3   OH242458   7.414   0.123   2.641  0.0492 -0.1351 -0.2741
 6088TIP3    H142459   7.351   0.079   2.699  0.5324 -0.4572  0.0190
 6088TIP3    H242460   7.462   0.183   2.699  0.3598 -0.2703 -0.3852
 6089TIP3   OH242461   0.785   2.816   1.247  0.2103 -0.0484 -0.0333
 6089TIP3    H142462   0.786   2.733   1.294 -0.0744 -0.4027 -0.6382
 6089TIP3    H242463   0.850   2.870   1.291  0.2145 -0.5018  0.5245
 6090TIP3   OH242464   2.907   3.182   2.914  0.8411 -0.5488  0.1046
 6090TIP3    H142465   2.843   3.118   2.948 -1.8228  0.6574 -2.2029
 6090TIP3    H242466   2.881   3.265   2.954  0.8986 -0.0227 -0.9288
 6091TIP3   OH242467   0.905   1.379   1.738  0.5409 -0.4439 -0.0915
 6091TIP3    H142468   0.834   1.438   1.766  0.7025 -0.3775  0.1801
 6091TIP3    H242469   0.913   1.316   1.810 -0.6082 -1.6902 -0.9971
 6092TIP3   OH242470   0.997   1.397   0.688  0.3157 -0.1944 -0.2964
 6092TIP3    H142471   0.976   1.320   0.741  0.0391 -0.5994 -0.9796
 6092TIP3    H242472   1.037   1.361   0.609  1.5945  0.4463  0.0333
 6093TIP3   OH242473   0.155   6.386   0.892 -0.0270  0.5221  0.5890
 6093TIP3    H142474   0.131   6.314   0.951  0.8492 -0.3024 -0.0401
 6093TIP3    H242475   0.250   6.389   0.894 -0.0132  0.9853 -0.1971
 6094TIP3   OH242476   5.772   5.916   0.440  0.4902  0.2827 -0.5629
 6094TIP3    H142477   5.693   5.863   0.437  1.1939 -1.0724  2.0942
 6094TIP3    H242478   5.753   5.986   0.503  1.6598 -0.6544  0.9097
 6095TIP3   OH242479   4.153   5.458   1.799  0.2363 -0.5775 -0.0056
 6095TIP3    H142480   4.080   5.464   1.738  0.4956 -1.4983 -0.4255
 6095TIP3    H242481   4.189   5.370   1.786  0.4478 -0.7149  1.3085
 6096TIP3   OH242482   2.223   2.851   0.595  0.5446 -0.7724 -0.2143
 6096TIP3    H142483   2.289   2.917   0.617  0.3211 -0.5366 -0.2576
 6096TIP3    H242484   2.141   2.886   0.630  0.4776 -1.1709  0.0390
 6097TIP3   OH242485   3.260   2.004   1.486  0.9274  0.0306  0.4231
 6097TIP3    H142486   3.251   1.997   1.581  0.2391 -0.0195  0.3564
 6097TIP3    H242487   3.197   1.942   1.451  0.1285  1.0929 -0.0773
 6098TIP3   OH242488   5.305   5.365   1.707 -0.6005  0.0123  0.4354
 6098TIP3    H142489   5.292   5.432   1.775  0.4362 -0.3506  1.0067
 6098TIP3    H242490   5.389   5.387   1.668 -0.9035 -0.1547 -0.3298
 6099TIP3   OH242491   0.059   6.547   1.981  0.4152  0.0302  0.4073
 6099TIP3    H142492   0.049   6.471   2.038 -0.5138 -0.2512 -0.1129
 6099TIP3    H242493   0.094   6.616   2.039 -2.3242  0.3579  1.8462
 6100TIP3   OH242494   1.143   0.686   1.372 -0.7084  0.2505 -0.2933
 6100TIP3    H142495   1.167   0.776   1.393  1.4140 -0.5629  1.1369
 6100TIP3    H242496   1.222   0.649   1.332 -1.3598 -1.1151 -0.3962
 6101TIP3   OH242497   1.730   1.680   0.479 -0.0655 -0.2513 -0.0362
 6101TIP3    H142498   1.737   1.585   0.487  0.9600 -0.2493 -0.7242
 6101TIP3    H242499   1.665   1.694   0.411 -2.7125 -0.3720  2.2913
 6102TIP3   OH242500   7.646   0.869   1.019 -0.0224  0.2007 -0.3013
 6102TIP3    H142501   7.681   0.834   0.937 -0.7021  1.1831 -1.0351
 6102TIP3    H242502   7.719   0.917   1.058  0.1080  0.2995 -0.6649
 6103TIP3   OH242503   1.024   0.336   2.130 -0.0549 -0.1037 -0.0483
 6103TIP3    H142504   1.010   0.243   2.111  0.1227 -0.0469 -0.4643
 6103TIP3    H242505   1.002   0.345   2.223  0.9317 -0.7695  0.2602
 6104TIP3   OH242506   4.379   5.215   3.007  0.2616  0.1274  0.3785
 6104TIP3    H142507   4.359   5.124   3.031  0.5529 -0.3761 -1.2114
 6104TIP3    H242508   4.433   5.247   3.079 -2.2784  0.0409  2.4842
 6105TIP3   OH242509   6.768   5.035   2.508  0.1838 -0.1119 -0.6543
 6105TIP3    H142510   6.830   5.098   2.470 -1.0313  2.3238  1.1285
 6105TIP3    H242511   6.701   5.024   2.440  1.1718 -0.7406 -1.5686
 6106TIP3   OH242512   3.010   7.667   2.263  0.6549 -0.1972  0.0288
 6106TIP3    H142513   3.072   7.599   2.238  1.1191  0.3349 -0.3147
 6106TIP3    H242514   3.017   7.732   2.193 -1.9426 -1.1386 -1.2477
 6107TIP3   OH242515   6.707   0.769   2.619 -0.2792  0.2037  0.2591
 6107TIP3    H142516   6.664   0.845   2.579 -0.6728  0.1432  0.5647
 6107TIP3    H242517   6.667   0.762   2.705 -2.1721 -1.9589 -0.7056
 6108TIP3   OH242518   7.651   5.263   1.963  0.2360 -0.4774  0.0447
 6108TIP3    H142519   7.680   5.193   2.022  0.0855  1.3829  2.5039
 6108TIP3    H242520   7.714   5.334   1.978 -1.8761  1.3587  0.7630
 6109TIP3   OH242521   0.188   1.895   3.495  0.2155 -0.0361 -0.3756
 6109TIP3    H142522   0.093   1.896   3.493  0.2119  0.2637 -2.0112
 6109TIP3    H242523   0.211   1.805   3.470  0.3630 -0.1681  0.2299
 6110TIP3   OH242524   6.713   6.563   1.516 -0.2842 -0.3361 -0.2930
 6110TIP3    H142525   6.717   6.468   1.528 -1.1815 -0.2186  1.2155
 6110TIP3    H242526   6.647   6.576   1.448 -1.3621 -0.7455  0.6545
 6111TIP3   OH242527   7.103   2.799   2.249  0.1504  0.3757 -0.3296
 6111TIP3    H142528   7.049   2.822   2.325  0.7825  1.9164 -0.3161
 6111TIP3    H242529   7.131   2.709   2.266 -0.8519  0.2085  0.5763
 6112TIP3   OH242530   4.883   5.939   2.363 -0.3559 -0.0522 -0.9083
 6112TIP3    H142531   4.825   5.940   2.286 -1.0507 -0.4233 -0.4028
 6112TIP3    H242532   4.839   5.880   2.424  1.3252 -1.5790 -1.0933
 6113TIP3   OH242533   2.923   7.308   1.717  0.0632 -0.1698 -0.0667
 6113TIP3    H142534   2.903   7.359   1.638  1.5958 -0.6731 -0.8345
 6113TIP3    H242535   2.941   7.220   1.685  2.7893  0.0791  0.5096
 6114TIP3   OH242536   5.216   3.867   1.405 -0.5915 -0.3585  0.5183
 6114TIP3    H142537   5.256   3.954   1.399  0.6551 -1.0020 -1.8528
 6114TIP3    H242538   5.122   3.883   1.406 -0.4460  1.0232 -1.7754
 6115TIP3   OH242539   2.174   7.462   2.679  0.6110 -0.4032  0.0404
 6115TIP3    H142540   2.239   7.476   2.748  1.3090  0.8450 -0.8343
 6115TIP3    H242541   2.090   7.477   2.722  1.0619  0.8506  0.5352
 6116TIP3   OH242542   7.037   6.209   2.554  0.3305  0.4528 -0.0221
 6116TIP3    H142543   6.986   6.290   2.550  0.9196  0.7948 -0.9549
 6116TIP3    H242544   7.127   6.237   2.541  0.6375 -0.2664  0.5021
 6117TIP3   OH242545   3.366   1.132   1.237  0.0074 -0.0878 -0.0257
 6117TIP3    H142546   3.364   1.187   1.316 -0.5053 -0.6115  0.3413
 6117TIP3    H242547   3.459   1.119   1.219  0.1334 -0.0564  0.5674
 6118TIP3   OH242548   5.469   6.384   2.126  0.5463  0.4195 -0.1335
 6118TIP3    H142549   5.433   6.422   2.046 -0.0643 -1.7178 -0.9373
 6118TIP3    H242550   5.531   6.318   2.095  0.9455  0.1462  1.1846
 6119TIP3   OH242551   2.013   0.689   2.846  0.1396  0.4033 -0.2181
 6119TIP3    H142552   1.974   0.775   2.860 -0.7020 -0.0664  0.4338
 6119TIP3    H242553   2.106   0.701   2.866 -0.3701  0.6257  2.4026
 6120TIP3   OH242554   6.464   1.187   1.499 -0.2780  0.2617 -0.0702
 6120TIP3    H142555   6.500   1.106   1.462  1.1895  0.9351 -0.1712
 6120TIP3    H242556   6.501   1.257   1.446 -2.1012  0.9977 -0.4327
 6121TIP3   OH242557   2.135   1.361   1.503  0.3997  0.1309 -0.0618
 6121TIP3    H142558   2.139   1.314   1.586  0.4304 -0.7978 -0.5694
 6121TIP3    H242559   2.148   1.453   1.526  0.3295 -0.1047  0.9603
 6122TIP3   OH242560   4.309   1.417   2.864 -0.1043  0.0157  0.2282
 6122TIP3    H142561   4.214   1.428   2.859 -0.1213 -0.4858 -1.1546
 6122TIP3    H242562   4.344   1.505   2.875 -0.7372  0.1954  0.8015
 6123TIP3   OH242563   1.556   0.686   1.998 -0.5695 -0.1597  0.0770
 6123TIP3    H142564   1.616   0.750   1.958 -0.3610  1.0748  2.2127
 6123TIP3    H242565   1.553   0.614   1.936  1.0483  0.9128 -1.3358
 6124TIP3   OH242566   1.177   7.069   1.501 -0.0363  0.1137 -0.1735
 6124TIP3    H142567   1.175   7.005   1.430  0.2066  0.3464 -0.3891
 6124TIP3    H242568   1.190   7.153   1.458 -0.7010  0.3559  0.0801
 6125TIP3   OH242569   4.803   1.683   2.741  0.0043 -0.2050 -0.5091
 6125TIP3    H142570   4.724   1.720   2.781  0.5700  0.4412  0.0599
 6125TIP3    H242571   4.782   1.674   2.648 -1.2146 -1.3762 -0.1417
 6126TIP3   OH242572   4.786   4.745   0.822  0.7390  0.0402 -0.2560
 6126TIP3    H142573   4.759   4.686   0.751  0.7697 -0.3231  0.0304
 6126TIP3    H242574   4.874   4.773   0.798  0.6047  0.2143 -0.5502
 6127TIP3   OH242575   6.721   4.818   1.288  0.0148 -0.0783  0.0526
 6127TIP3    H142576   6.790   4.843   1.350 -0.4941 -0.7982  0.9364
 6127TIP3    H242577   6.639   4.832   1.336 -0.3788 -0.9964 -0.3235
 6128TIP3   OH242578   1.956   2.591   2.779  0.1997 -0.8733 -0.4409
 6128TIP3    H142579   1.879   2.648   2.781  0.8177 -0.0210 -0.6004
 6128TIP3    H242580   1.927   2.514   2.730  0.0785  0.4101 -2.5176
 6129TIP3   OH242581   6.840   5.003   0.624  0.6955 -0.0865 -0.1487
 6129TIP3    H142582   6.795   5.084   0.650 -2.7462 -1.4369 -1.3953
 6129TIP3    H242583   6.810   4.938   0.688  0.2950 -1.1843 -1.4155
 6130TIP3   OH242584   0.760   0.285   1.414 -0.4395 -0.3715 -0.9874
 6130TIP3    H142585   0.672   0.250   1.400 -0.2588 -0.5028 -1.8416
 6130TIP3    H242586   0.786   0.249   1.498 -0.6415 -1.5262 -1.3932
 6131TIP3   OH242587   7.006   6.418   0.637  0.2930  0.5054  0.0269
 6131TIP3    H142588   7.071   6.351   0.613 -1.0829 -0.4890 -1.1927
 6131TIP3    H242589   7.032   6.447   0.724  2.2788  0.0568 -0.3675
 6132TIP3   OH242590   1.820   6.520   0.521  0.4842 -0.1605 -0.0130
 6132TIP3    H142591   1.846   6.433   0.489 -0.6567 -0.6871  0.4163
 6132TIP3    H242592   1.898   6.554   0.564  0.7809 -1.2342  0.3424
 6133TIP3   OH242593   5.337   1.063   1.960  0.0122  0.2647  0.4412
 6133TIP3    H142594   5.395   1.079   1.886  0.2071  0.4159  0.6270
 6133TIP3    H242595   5.342   1.143   2.013  0.4577 -0.1301  1.0129
 6134TIP3   OH242596   0.508   0.726   1.289  0.1914 -0.1524 -0.2633
 6134TIP3    H142597   0.598   0.708   1.315  0.2206  0.9846  0.4936
 6134TIP3    H242598   0.468   0.640   1.279  1.1438 -0.6544  0.1894
 6135TIP3   OH242599   0.092   5.022   2.146 -0.3537  0.0158 -0.7720
 6135TIP3    H142600   0.011   4.975   2.168  1.4071 -3.0662 -0.3391
 6135TIP3    H242601   0.160   4.954   2.148  2.9629  3.0077  2.6172
 6136TIP3   OH242602   6.174   0.334   2.849  0.2794 -0.1607 -0.4576
 6136TIP3    H142603   6.236   0.303   2.915 -0.4209 -1.2601 -0.2966
 6136TIP3    H242604   6.105   0.378   2.899  0.6265  0.5440 -0.5930
 6137TIP3   OH242605   6.899   7.185   1.063 -0.0879  0.3629 -0.1298
 6137TIP3    H142606   6.852   7.232   0.994  0.7296 -0.7360 -1.4910
 6137TIP3    H242607   6.983   7.229   1.069 -1.0509  2.0873  2.0406
 6138TIP3   OH242608   1.585   2.240   2.506 -0.4021  0.3214  0.0968
 6138TIP3    H142609   1.546   2.201   2.584 -0.8663  0.1256 -0.2273
 6138TIP3    H242610   1.527   2.313   2.485  0.9117  1.7215  1.1735
 6139TIP3   OH242611   2.732   1.506   1.827  0.1481 -0.0922  0.1605
 6139TIP3    H142612   2.730   1.528   1.920  0.6226 -1.4482  0.5255
 6139TIP3    H242613   2.694   1.582   1.783  1.5241  1.3339  1.3016
 6140TIP3   OH242614   1.898   6.983   2.556 -0.2035 -0.1621 -0.3815
 6140TIP3    H142615   1.955   7.018   2.625 -0.8606 -1.5026  0.8834
 6140TIP3    H242616   1.952   6.986   2.477  1.4883 -0.9921  0.6873
 6141TIP3   OH242617   3.537   1.200   0.939  0.1166  0.5815 -0.3007
 6141TIP3    H142618   3.582   1.129   0.895  2.5826  0.9784  1.3881
 6141TIP3    H242619   3.459   1.160   0.978  0.2262 -0.6493 -1.3094
 6142TIP3   OH242620   4.133   7.177   2.927 -0.3108 -0.2931 -0.4255
 6142TIP3    H142621   4.092   7.227   2.998  0.0576 -1.8175  0.9085
 6142TIP3    H242622   4.064   7.119   2.895 -0.5509  0.5680 -1.5248
 6143TIP3   OH242623   4.185   7.106   1.654 -0.3321  0.3629  0.0806
 6143TIP3    H142624   4.245   7.037   1.680  0.3649  0.0899 -2.0402
 6143TIP3    H242625   4.228   7.187   1.679 -0.5528  0.0893  1.3980
 6144TIP3   OH242626   6.894   2.556   2.513 -0.2296 -0.7573 -0.9731
 6144TIP3    H142627   6.814   2.575   2.563  0.2064 -0.3621 -0.4091
 6144TIP3    H242628   6.928   2.642   2.490  1.1915 -0.8225  0.6685
 6145TIP3   OH242629   1.631   7.219   2.111 -0.5471  0.1466 -0.3842
 6145TIP3    H142630   1.621   7.227   2.206 -0.7388 -0.4412 -0.3519
 6145TIP3    H242631   1.659   7.129   2.097  3.0621  1.1388 -0.6217
 6146TIP3   OH242632   3.443   6.345   1.032 -0.1670  0.0108 -0.3752
 6146TIP3    H142633   3.432   6.301   1.117 -1.1484 -0.7916 -0.8965
 6146TIP3    H242634   3.473   6.433   1.055  0.1277 -0.3674  0.7803
 6147TIP3   OH242635   1.666   0.602   2.697  0.1619  0.0763  0.2000
 6147TIP3    H142636   1.693   0.694   2.685 -1.5151  0.8039  1.6752
 6147TIP3    H242637   1.736   0.563   2.748  1.1120  0.3806 -0.8202
 6148TIP3   OH242638   4.247   6.844   1.041 -0.1028  0.0997 -0.2456
 6148TIP3    H142639   4.259   6.826   0.948  0.6795  1.4653 -0.4346
 6148TIP3    H242640   4.334   6.870   1.071 -0.4876  0.2842  0.7364
 6149TIP3   OH242641   2.229   3.810   0.635 -0.0613  0.5270  0.1406
 6149TIP3    H142642   2.181   3.728   0.629  0.6715 -0.0680  1.7843
 6149TIP3    H242643   2.187   3.856   0.708  1.0118  0.5768  0.7369
 6150TIP3   OH242644   5.342   1.020   2.815  0.0223  0.1250  0.7314
 6150TIP3    H142645   5.393   0.957   2.765 -0.8515  0.0956 -0.1597
 6150TIP3    H242646   5.320   0.974   2.896 -0.3475 -0.6178  0.2229
 6151TIP3   OH242647   3.740   2.360   2.358  0.2999  0.3684 -0.0866
 6151TIP3    H142648   3.687   2.431   2.395  2.1827  1.2397  1.0570
 6151TIP3    H242649   3.685   2.282   2.367 -1.3488  1.4657 -0.2989
 6152TIP3   OH242650   7.491   6.364   1.876  0.3479  0.0788 -0.1351
 6152TIP3    H142651   7.559   6.328   1.933  0.7912 -1.9133 -1.7722
 6152TIP3    H242652   7.430   6.291   1.863 -0.4435  0.8831 -1.1295
 6153TIP3   OH242653   0.382   7.022   1.936  0.2080 -1.0051  0.0516
 6153TIP3    H142654   0.373   7.008   2.031  1.1573  0.3194  0.3623
 6153TIP3    H242655   0.423   7.108   1.928 -0.9814 -0.5479 -1.6117
 6154TIP3   OH242656   4.085   7.481   2.400  0.0907 -0.4277  0.0449
 6154TIP3    H142657   4.133   7.452   2.322  0.6681  1.6009 -0.4092
 6154TIP3    H242658   4.064   7.400   2.446  0.8626 -1.6005 -1.5583
 6155TIP3   OH242659   3.605   6.849   2.032 -0.0160  0.2310 -0.2428
 6155TIP3    H142660   3.669   6.896   2.086 -0.1555  0.3452 -0.1771
 6155TIP3    H242661   3.614   6.888   1.945 -1.8109  2.0735  0.3305
 6156TIP3   OH242662   1.787   0.113   2.680 -0.0668 -0.3879  0.5409
 6156TIP3    H142663   1.826   0.152   2.758  1.2869 -1.0548  0.2364
 6156TIP3    H242664   1.825   0.164   2.607 -0.4302 -0.5012  0.2697
 6157TIP3   OH242665   0.005   0.016   1.693  0.3550  0.1288  0.1583
 6157TIP3    H142666   0.077   0.074   1.718  0.1776 -0.2089  1.5398
 6157TIP3    H242667   0.047  -0.056   1.645  0.8755  0.2191  0.4720
 6158TIP3   OH242668   7.643   1.837   0.919  0.0734  0.2844  0.6555
 6158TIP3    H142669   7.625   1.744   0.910 -0.4447  0.5632 -2.5854
 6158TIP3    H242670   7.735   1.847   0.895 -0.0166  0.6355  0.4332
 6159TIP3   OH242671   2.234   2.491   0.460  0.0980 -0.2015  0.1048
 6159TIP3    H142672   2.241   2.501   0.555  1.5481 -1.2704  0.1445
 6159TIP3    H242673   2.206   2.578   0.429  0.2513  0.3530  1.4351
 6160TIP3   OH242674   0.052   4.283   1.279 -0.1930  0.5626  0.3602
 6160TIP3    H142675   0.120   4.218   1.263 -0.4044  0.0224  1.5965
 6160TIP3    H242676   0.015   4.259   1.363 -2.4290  0.4215 -0.6063
 6161TIP3   OH242677   7.545   5.887   1.116  0.2869  0.2535  0.4608
 6161TIP3    H142678   7.501   5.802   1.113  1.6123 -0.4529 -0.0294
 6161TIP3    H242679   7.532   5.919   1.205 -0.0145 -0.5810  0.7199
 6162TIP3   OH242680   6.467   6.468   1.803  0.0865  0.2472  0.0478
 6162TIP3    H142681   6.548   6.519   1.810  0.2838 -0.0935  0.2780
 6162TIP3    H242682   6.404   6.528   1.763  0.6775  0.2473 -0.8879
 6163TIP3   OH242683   4.773   4.538   0.635  0.6582 -0.2363  0.2155
 6163TIP3    H142684   4.855   4.499   0.666  0.2016 -1.2148  0.2446
 6163TIP3    H242685   4.746   4.481   0.563 -0.5040 -0.5114  0.8561
 6164TIP3   OH242686   4.254   5.272   0.468  0.0918  0.2797 -0.1589
 6164TIP3    H142687   4.221   5.233   0.549 -0.9115 -1.1335 -1.1998
 6164TIP3    H242688   4.204   5.352   0.458  1.0383  1.0782  1.1852
 6165TIP3   OH242689   0.162   2.316   1.940 -0.1605 -0.2092  0.0146
 6165TIP3    H142690   0.156   2.340   2.032  0.7866 -1.2118  0.3546
 6165TIP3    H242691   0.141   2.397   1.892 -3.0781 -0.2270  1.0579
 6166TIP3   OH242692   1.642   2.518   2.319  0.1018 -0.0587  0.5245
 6166TIP3    H142693   1.599   2.497   2.402 -0.6252  1.8914  0.6884
 6166TIP3    H242694   1.662   2.611   2.325  0.8798 -0.0830 -1.1294
 6167TIP3   OH242695   2.691   4.981   2.613  0.1812  0.0034  0.3795
 6167TIP3    H142696   2.761   5.043   2.633  0.0915 -0.3396  1.8362
 6167TIP3    H242697   2.648   4.965   2.697 -1.4962  0.0058 -0.4455
 6168TIP3   OH242698   0.126   0.497   2.876  0.0059  0.3857  0.1152
 6168TIP3    H142699   0.061   0.551   2.921  0.1181  1.7153 -1.2427
 6168TIP3    H242700   0.091   0.485   2.788  0.4180 -1.0379  0.1115
 6169TIP3   OH242701   0.779   4.828   9.001 -0.1384 -0.5802  0.6515
 6169TIP3    H142702   0.869   4.858   9.016 -0.5529  1.5976 -0.7975
 6169TIP3    H242703   0.784   4.778   8.919 -0.4807  1.1168 -0.4644
 6170TIP3   OH242704   0.165   3.795   1.829  0.7708 -0.2173  0.1560
 6170TIP3    H142705   0.112   3.870   1.857 -2.2435 -1.3067 -2.0761
 6170TIP3    H242706   0.153   3.730   1.899 -0.3161 -0.1802  0.0283
 6171TIP3   OH242707   7.526   5.603   0.767 -0.0613  0.0626 -0.1887
 6171TIP3    H142708   7.435   5.619   0.742 -0.4754  0.9505  1.6911
 6171TIP3    H242709   7.521   5.579   0.860  1.4783 -1.6750 -0.4896
 6172TIP3   OH242710   6.815   1.877   1.292  0.0821 -0.1733  0.4944
 6172TIP3    H142711   6.874   1.802   1.289 -0.2576 -0.4473 -1.9001
 6172TIP3    H242712   6.871   1.952   1.271  0.2562  0.1377  2.0056
 6173TIP3   OH242713   2.159   7.026   2.066  0.5839  0.2721 -0.2762
 6173TIP3    H142714   2.071   7.056   2.046  0.6290  0.4764 -0.1702
 6173TIP3    H242715   2.212   7.105   2.069  0.6301  0.2263  0.3763
 6174TIP3   OH242716   5.829   3.983   2.432 -0.5304 -0.1547  0.2189
 6174TIP3    H142717   5.744   3.987   2.389 -0.9417 -1.8878  0.7996
 6174TIP3    H242718   5.878   3.917   2.383 -0.0282 -0.1643  0.7182
 6175TIP3   OH242719   1.205   5.132   1.433  0.2107  0.6805 -0.3294
 6175TIP3    H142720   1.289   5.086   1.436 -0.2964 -0.2241  1.1106
 6175TIP3    H242721   1.228   5.224   1.443  0.9562  0.2633  3.3744
 6176TIP3   OH242722   5.522   7.453   2.728  0.1609  0.4698  0.0254
 6176TIP3    H142723   5.444   7.426   2.777 -0.5708  0.9929 -0.8139
 6176TIP3    H242724   5.595   7.419   2.779 -0.5917  0.4442  1.1313
 6177TIP3   OH242725   5.551   1.866   3.112 -0.4352 -0.0049 -0.0105
 6177TIP3    H142726   5.572   1.836   3.201  0.2732  2.1152  0.5889
 6177TIP3    H242727   5.461   1.896   3.118 -1.0592 -1.6342 -0.5512
 6178TIP3   OH242728   7.220   1.321   3.286 -0.3982 -0.7582 -0.1453
 6178TIP3    H142729   7.192   1.397   3.338  0.9482 -0.5775  0.3608
 6178TIP3    H242730   7.176   1.332   3.202 -2.5274 -0.9773  0.8775
 6179TIP3   OH242731   6.774   2.339   1.535  0.1840 -0.1074  0.3097
 6179TIP3    H142732   6.707   2.340   1.467 -0.8234  0.0433  1.2643
 6179TIP3    H242733   6.726   2.355   1.616  1.5078  0.9247  0.9370
 6180TIP3   OH242734   0.612   1.010   1.278  0.3181 -0.3752 -0.1102
 6180TIP3    H142735   0.530   0.972   1.308  1.1738 -0.8601  1.6972
 6180TIP3    H242736   0.669   0.935   1.260  0.8033 -0.0174 -0.0888
 6181TIP3   OH242737   0.723   5.019   2.130 -0.0930 -0.0704 -0.3038
 6181TIP3    H142738   0.697   4.930   2.104 -2.5349  0.6777 -0.6659
 6181TIP3    H242739   0.647   5.054   2.176  1.8046  0.9373  2.2970
 6182TIP3   OH242740   6.287   2.214   2.765 -0.1335 -0.2799 -0.1794
 6182TIP3    H142741   6.332   2.156   2.827  0.1036  1.6545  1.5531
 6182TIP3    H242742   6.352   2.279   2.741 -1.1345  0.8467  0.0574
 6183TIP3   OH242743   0.676   1.091   2.323 -0.5263 -0.1239  0.1568
 6183TIP3    H142744   0.586   1.110   2.349 -1.0336 -0.2612 -1.3672
 6183TIP3    H242745   0.700   1.164   2.264  1.8977  2.2358  3.6585
 6184TIP3   OH242746   3.802   5.288   1.051 -0.3637  0.2523  0.3601
 6184TIP3    H142747   3.849   5.350   0.995  1.0249 -0.3604  0.7934
 6184TIP3    H242748   3.730   5.257   0.997  0.6733  0.0236 -0.9311
 6185TIP3   OH242749   1.979   3.592   1.802  0.0996  0.6770 -0.0258
 6185TIP3    H142750   1.909   3.649   1.770 -0.8565 -0.5627 -0.2211
 6185TIP3    H242751   2.047   3.652   1.832 -0.3889  1.9002 -1.2779
 6186TIP3   OH242752   1.193   4.411   0.566  0.0669  0.0104 -0.2117
 6186TIP3    H142753   1.176   4.479   0.502 -0.6291  0.6529  0.6375
 6186TIP3    H242754   1.227   4.338   0.514  1.9434  1.3736 -1.0057
 6187TIP3   OH242755   4.461   6.126   0.565 -0.8471  0.1697 -0.0306
 6187TIP3    H142756   4.453   6.217   0.535 -0.2471 -0.4344 -2.2201
 6187TIP3    H242757   4.479   6.133   0.659 -1.2972  2.2755 -0.0428
 6188TIP3   OH242758   2.333   5.086   2.168 -0.5681 -0.8585 -0.2884
 6188TIP3    H142759   2.328   5.156   2.232  0.5063 -0.5510 -0.5265
 6188TIP3    H242760   2.365   5.128   2.088 -0.7658 -1.4542 -0.6892
 6189TIP3   OH242761   3.008   4.901   2.594  0.0888 -0.6160 -0.4620
 6189TIP3    H142762   2.942   4.898   2.525 -0.7220  2.1354  0.0814
 6189TIP3    H242763   3.084   4.942   2.553  0.4013 -1.0118 -0.2873
 6190TIP3   OH242764   7.274   0.255   0.630  0.3134 -0.0220 -0.0738
 6190TIP3    H142765   7.216   0.278   0.703  0.5816 -0.7994  0.3966
 6190TIP3    H242766   7.361   0.281   0.660  0.1730  1.6738 -1.0070
 6191TIP3   OH242767   2.561   7.469   1.224 -0.2709 -0.1937 -0.2266
 6191TIP3    H142768   2.493   7.415   1.265 -2.5891  1.3288 -1.8429
 6191TIP3    H242769   2.587   7.530   1.292 -0.4049 -0.8752  0.4552
 6192TIP3   OH242770   5.569   5.494   3.293  0.1399  0.2790  0.7126
 6192TIP3    H142771   5.618   5.413   3.277 -0.1735 -0.0899  1.5781
 6192TIP3    H242772   5.530   5.515   3.209 -0.8999 -1.2317  0.7809
 6193TIP3   OH242773   4.207   1.852   1.647  0.1385  0.2322 -0.1288
 6193TIP3    H142774   4.125   1.900   1.637 -1.2711 -1.4678  2.2997
 6193TIP3    H242775   4.224   1.853   1.742  2.5582 -0.0917 -0.4953
 6194TIP3   OH242776   5.979   6.189   0.704  0.1218  0.7036 -0.1012
 6194TIP3    H142777   5.968   6.281   0.728  1.8599  0.5431  1.5889
 6194TIP3    H242778   5.890   6.157   0.688 -0.9225  1.8125  2.8248
 6195TIP3   OH242779   2.311   5.651   1.002 -0.2304 -0.2526 -0.0948
 6195TIP3    H142780   2.228   5.608   0.984 -0.3541 -0.4725  0.8943
 6195TIP3    H242781   2.289   5.722   1.062  0.3845 -0.8366  0.8549
 6196TIP3   OH242782   4.806   0.494   1.227  0.0035  0.2404 -0.7127
 6196TIP3    H142783   4.835   0.582   1.250 -0.4798  0.1949  0.0890
 6196TIP3    H242784   4.769   0.458   1.308  2.0561 -1.4765 -0.4391
 6197TIP3   OH242785   3.242   5.416   2.420  0.0748  0.4246 -0.0554
 6197TIP3    H142786   3.232   5.395   2.327 -1.0312 -0.0553  0.1462
 6197TIP3    H242787   3.158   5.455   2.444 -1.4806 -3.4136  1.7143
 6198TIP3   OH242788   4.183   2.554   1.000  0.3942  0.4789  0.2733
 6198TIP3    H142789   4.253   2.531   1.061  0.8525  0.9655 -0.0546
 6198TIP3    H242790   4.195   2.648   0.984  1.2298  0.0992 -1.6971
 6199TIP3   OH242791   0.977   5.422   1.328 -0.2614 -0.1443  0.0394
 6199TIP3    H142792   0.941   5.381   1.406 -1.2490 -1.1789 -0.9299
 6199TIP3    H242793   0.961   5.359   1.257  0.5325  0.7910 -1.0207
 6200TIP3   OH242794   2.520   3.175   2.345 -0.1265 -0.4901 -0.5219
 6200TIP3    H142795   2.587   3.202   2.409  1.8339 -1.2305 -2.1490
 6200TIP3    H242796   2.437   3.189   2.390  1.0437  1.6163  1.1748
 6201TIP3   OH242797   6.998   6.485   3.021 -0.2454 -0.4161  0.0788
 6201TIP3    H142798   6.993   6.492   3.116 -0.7022  1.9267 -0.0514
 6201TIP3    H242799   7.034   6.569   2.992 -0.6088 -0.8533 -1.8419
 6202TIP3   OH242800   2.454   4.613   2.948 -0.2400 -0.0561  0.4198
 6202TIP3    H142801   2.364   4.633   2.971  0.0231  0.4052  1.0926
 6202TIP3    H242802   2.506   4.678   2.996  0.3661  0.5678 -1.0199
 6203TIP3   OH242803   4.533   1.046   0.655 -0.3912 -0.3444  0.6402
 6203TIP3    H142804   4.611   1.004   0.617 -1.9383 -1.7473 -1.1766
 6203TIP3    H242805   4.569   1.114   0.713  2.2199  0.9308 -2.1506
 6204TIP3   OH242806   2.760   6.400   2.573 -0.4173  0.4090 -0.2420
 6204TIP3    H142807   2.722   6.426   2.656 -3.9853 -2.4596 -0.7378
 6204TIP3    H242808   2.848   6.370   2.595 -0.0326  2.7744  1.8496
 6205TIP3   OH242809   3.079   5.826   1.293  0.1583  0.3992  0.0556
 6205TIP3    H142810   3.159   5.789   1.256  0.2736 -0.2194  0.8888
 6205TIP3    H242811   3.063   5.905   1.241  0.8329  0.0757 -0.6716
 6206TIP3   OH242812   6.727   7.570   1.081 -0.1778  0.0088 -0.4691
 6206TIP3    H142813   6.785   7.603   1.012 -1.0287  0.6822 -0.8783
 6206TIP3    H242814   6.696   7.486   1.048 -0.3186  0.1722 -0.7583
 6207TIP3   OH242815   1.870   0.044   1.743  0.2041  0.2118  0.0269
 6207TIP3    H142816   1.886  -0.029   1.682 -1.5199  0.0246 -0.2446
 6207TIP3    H242817   1.810   0.008   1.808 -0.0811  1.1845  0.3088
 6208TIP3   OH242818   2.757   5.297   1.669 -0.4892 -0.1632 -0.7394
 6208TIP3    H142819   2.697   5.264   1.602 -0.8910 -2.5292  0.6632
 6208TIP3    H242820   2.723   5.383   1.692 -3.1075 -1.1933 -0.3970
 6209TIP3   OH242821   4.445   4.876   1.353 -0.4420  0.5113  0.6752
 6209TIP3    H142822   4.451   4.780   1.344 -0.8792  0.6387 -1.7820
 6209TIP3    H242823   4.518   4.909   1.300 -1.2558  1.5466  0.1686
 6210TIP3   OH242824   4.187   1.100   2.154 -0.7039 -0.7147  0.7329
 6210TIP3    H142825   4.177   1.016   2.110 -1.8895 -0.6136  0.7775
 6210TIP3    H242826   4.097   1.132   2.165 -0.2524  0.7979  0.2464
 6211TIP3   OH242827   0.274   0.924   0.787  0.1995  0.5116 -0.7597
 6211TIP3    H142828   0.285   1.016   0.813  0.5930  0.1424  0.4499
 6211TIP3    H242829   0.296   0.874   0.866  0.0119 -0.6275 -1.4084
 6212TIP3   OH242830   4.449   1.476   1.364  0.4455  0.6297  0.0815
 6212TIP3    H142831   4.469   1.384   1.345  2.0382  0.1617  3.2274
 6212TIP3    H242832   4.491   1.525   1.293  1.2217 -1.0104 -0.6479
 6213TIP3   OH242833   4.398   5.151   0.738 -0.8251  0.1656  0.3524
 6213TIP3    H142834   4.328   5.093   0.711 -1.3271  0.7198  0.4509
 6213TIP3    H242835   4.478   5.106   0.712 -1.2466 -0.0100 -0.6807
 6214TIP3   OH242836   7.651   0.288   1.253 -0.0146  0.1617 -0.2107
 6214TIP3    H142837   7.702   0.213   1.221 -0.2505  0.4253 -1.2293
 6214TIP3    H242838   7.714   0.360   1.256  0.1666 -0.0165  0.5885
 6215TIP3   OH242839   7.247   2.039   0.468  0.1096 -0.1672 -0.2726
 6215TIP3    H142840   7.248   2.117   0.414 -0.7659 -1.7649 -2.7726
 6215TIP3    H242841   7.275   2.069   0.555 -2.1177  3.2770 -0.5420
 6216TIP3   OH242842   1.432   4.198   2.686  0.2753  0.5140 -0.5467
 6216TIP3    H142843   1.417   4.112   2.646 -1.1080  0.3478  0.2538
 6216TIP3    H242844   1.526   4.200   2.706  0.1932 -1.1454  0.1471
 6217TIP3   OH242845   0.912   4.027   2.240 -0.6335  0.9292 -0.3914
 6217TIP3    H142846   0.847   4.048   2.172 -0.1090  1.4396 -0.7496
 6217TIP3    H242847   0.990   4.075   2.213  0.5949 -1.3642 -1.1401
 6218TIP3   OH242848   7.228   5.703   0.488 -0.6686 -0.0819  0.0457
 6218TIP3    H142849   7.237   5.672   0.577 -0.3434  0.1515  0.0967
 6218TIP3    H242850   7.289   5.650   0.437  2.1364  2.3731  0.6033
 6219TIP3   OH242851   6.553   1.817   3.392  0.4705  0.3749 -0.6514
 6219TIP3    H142852   6.575   1.855   3.307 -0.6963  0.3535 -0.9765
 6219TIP3    H242853   6.463   1.784   3.382  0.6743 -0.5261  0.2855
 6220TIP3   OH242854   5.518   7.440   1.911  0.2094 -0.4681  0.6100
 6220TIP3    H142855   5.433   7.398   1.908 -0.0330  0.0316  0.3678
 6220TIP3    H242856   5.527   7.483   1.826 -0.3566  1.4997  1.4726
 6221TIP3   OH242857   3.639   5.232   1.678 -0.1936  0.3976 -0.3619
 6221TIP3    H142858   3.605   5.305   1.730 -0.4709  0.4800 -0.6558
 6221TIP3    H242859   3.728   5.219   1.712 -0.4285  0.3314  0.2540
 6222TIP3   OH242860   1.550   6.969   0.939  0.1257  0.1121  0.0188
 6222TIP3    H142861   1.490   6.895   0.950  0.2040  0.1507  0.7626
 6222TIP3    H242862   1.517   7.015   0.862 -0.4333 -0.2148  0.0534
 6223TIP3   OH242863   7.407   5.813   1.422 -0.0915  0.0760  0.5340
 6223TIP3    H142864   7.401   5.722   1.393 -1.2208  0.0135  0.9012
 6223TIP3    H242865   7.409   5.807   1.518 -1.5322  0.4790  0.6076
 6224TIP3   OH242866   2.234   5.379   0.699  0.2202  0.2512  0.3904
 6224TIP3    H142867   2.278   5.457   0.663 -0.9534  1.0741  0.6882
 6224TIP3    H242868   2.282   5.305   0.661 -0.0621  1.0849 -1.7138
 6225TIP3   OH242869   6.146   1.641   1.522  0.5933  0.2900  0.4352
 6225TIP3    H142870   6.197   1.606   1.596  0.8871 -0.7165 -0.2196
 6225TIP3    H242871   6.151   1.573   1.455 -1.5623  0.1642  0.3122
 6226TIP3   OH242872   0.917   3.513   1.921 -0.4780  0.5116  0.0422
 6226TIP3    H142873   0.844   3.573   1.936  0.2369  1.3068  0.4444
 6226TIP3    H242874   0.982   3.567   1.876  0.4826  0.2542  1.0897
 6227TIP3   OH242875   1.369   7.563   2.286  0.1859  0.1501 -0.6321
 6227TIP3    H142876   1.459   7.556   2.253  0.9038 -1.6065  1.4541
 6227TIP3    H242877   1.375   7.538   2.378 -2.1617  1.9294  0.1251
 6228TIP3   OH242878   5.891   4.260   2.298  0.2826 -0.2838 -0.0594
 6228TIP3    H142879   5.936   4.308   2.228 -1.4701  1.0737 -0.3246
 6228TIP3    H242880   5.845   4.190   2.252 -1.4849  1.0631 -0.4344
 6229TIP3   OH242881   4.722   1.233   0.769  0.0515 -0.0401 -0.0540
 6229TIP3    H142882   4.751   1.295   0.836 -0.5485  0.0175  0.1588
 6229TIP3    H242883   4.719   1.284   0.688 -1.2300  0.4451  0.2660
 6230TIP3   OH242884   5.432   1.267   0.934  0.2247 -0.0365 -0.3900
 6230TIP3    H142885   5.408   1.213   1.009  0.9741 -0.5518 -0.5066
 6230TIP3    H242886   5.492   1.212   0.883  0.5015  0.6702 -0.8463
 6231TIP3   OH242887   7.113   5.695   1.036  0.3330  0.2330 -0.1471
 6231TIP3    H142888   7.043   5.757   1.054  1.3093  1.4693 -0.4321
 6231TIP3    H242889   7.123   5.696   0.941  0.6642 -0.0029 -0.1193
 6232TIP3   OH242890   1.642   6.313   2.029 -0.0162 -0.5437 -0.2774
 6232TIP3    H142891   1.671   6.399   1.999 -0.1968 -0.3991 -0.0417
 6232TIP3    H242892   1.556   6.328   2.068  0.5823 -0.5451  1.1277
 6233TIP3   OH242893   5.508   7.599   0.742 -0.6156 -0.1699  0.1990
 6233TIP3    H142894   5.491   7.690   0.765 -1.0234 -0.2010  0.0349
 6233TIP3    H242895   5.432   7.573   0.690  0.2336 -0.1252 -1.1106
 6234TIP3   OH242896   6.016   5.121   1.100 -0.3189  0.8382  0.0760
 6234TIP3    H142897   6.035   5.097   1.009 -2.1634  1.0178 -0.3858
 6234TIP3    H242898   6.060   5.054   1.152 -0.4294 -0.0967 -1.0060
 6235TIP3   OH242899   6.705   1.906   0.932  0.3089  0.4306  0.4166
 6235TIP3    H142900   6.667   1.844   0.869  1.0799 -0.1574  0.5146
 6235TIP3    H242901   6.700   1.860   1.016 -0.2357  1.0025  0.7042
 6236TIP3   OH242902   5.171   4.305   1.120 -0.2694  0.0845  0.3868
 6236TIP3    H142903   5.186   4.211   1.130  1.2000  0.4432  1.8723
 6236TIP3    H242904   5.253   4.346   1.147 -0.2754  1.7712 -1.8628
 6237TIP3   OH242905   1.516   6.857   2.415  0.4130 -0.0536  0.1323
 6237TIP3    H142906   1.482   6.802   2.485 -1.2388  1.0011  0.2208
 6237TIP3    H242907   1.539   6.939   2.459  1.1757 -0.0417 -0.2725
 6238TIP3   OH242908   6.584   4.003   2.979 -0.0211  0.3252 -0.1903
 6238TIP3    H142909   6.585   3.960   3.065  0.5118 -0.7386 -0.7115
 6238TIP3    H242910   6.494   3.990   2.948 -0.7422  2.2224  0.9038
 6239TIP3   OH242911   4.147   4.720   2.895  0.8116  0.6151  0.5053
 6239TIP3    H142912   4.117   4.652   2.954 -1.6755  0.1714 -1.0984
 6239TIP3    H242913   4.232   4.748   2.930  0.4038 -1.0267  3.0137
 6240TIP3   OH242914   2.698   6.658   2.499 -0.5407 -0.0496 -0.3221
 6240TIP3    H142915   2.623   6.681   2.555 -1.2659 -0.3371 -1.1560
 6240TIP3    H242916   2.702   6.563   2.503  0.1338 -0.0075  0.1521
 6241TIP3   OH242917   7.316   2.836   0.478  0.3051 -0.3139  0.5538
 6241TIP3    H142918   7.342   2.749   0.447 -2.1919 -1.7580  2.1427
 6241TIP3    H242919   7.379   2.896   0.439  1.0809 -2.6410 -2.0368
 6242TIP3   OH242920   2.488   7.009   2.531 -0.0575  0.0641  0.4360
 6242TIP3    H142921   2.536   6.995   2.450 -0.0780  0.9150  0.2718
 6242TIP3    H242922   2.554   7.036   2.594 -0.1775  0.2705  0.4722
 6243TIP3   OH242923   2.970   7.472   1.266 -0.3889  0.2672  0.2387
 6243TIP3    H142924   2.929   7.438   1.187 -0.0198 -0.4612  0.3595
 6243TIP3    H242925   3.059   7.438   1.264 -0.2400  0.6080  0.7419
 6244TIP3   OH242926   1.964   6.620   2.075  0.4840 -0.4401 -0.0038
 6244TIP3    H142927   2.022   6.693   2.096  0.5570 -0.4395 -0.2069
 6244TIP3    H242928   1.896   6.624   2.143  0.8267 -0.5626  0.3494
 6245TIP3   OH242929   4.920   7.282   1.379 -0.3127  0.0229  0.3060
 6245TIP3    H142930   4.989   7.295   1.444 -0.0426  1.1505 -0.1746
 6245TIP3    H242931   4.894   7.191   1.389  3.1220 -1.3446 -1.3204
 6246TIP3   OH242932   4.739   3.235   0.931 -0.3356  0.5661  0.2092
 6246TIP3    H142933   4.713   3.211   1.020 -0.4860  0.8632  0.2475
 6246TIP3    H242934   4.658   3.232   0.880 -0.4179  1.3005  0.2848
 6247TIP3   OH242935   5.684   0.114   0.909  0.2802 -0.3557 -0.7673
 6247TIP3    H142936   5.771   0.135   0.944 -0.7917  2.4474  0.5510
 6247TIP3    H242937   5.640   0.067   0.979  0.1573 -0.2363 -0.7645
 6248TIP3   OH242938   3.828   0.456   0.372 -0.5382 -0.0503  0.1583
 6248TIP3    H142939   3.844   0.388   0.438  1.6730  1.2787  1.1094
 6248TIP3    H242940   3.910   0.463   0.324 -0.7981  1.7196 -0.1029
 6249TIP3   OH242941   1.884   4.706   1.267  0.6058  0.7522 -0.5302
 6249TIP3    H142942   1.802   4.664   1.294 -0.0118  1.9562 -0.4571
 6249TIP3    H242943   1.873   4.723   1.173  1.7225 -1.1292 -1.0529
 6250TIP3   OH242944   7.482   6.505   0.760 -0.4082  0.3996 -0.2774
 6250TIP3    H142945   7.565   6.550   0.777  0.0763 -0.1766 -0.9957
 6250TIP3    H242946   7.509   6.422   0.720 -1.3134 -0.0784  0.0908
 6251TIP3   OH242947   6.723   2.680   0.887  0.5981 -0.0116 -0.4495
 6251TIP3    H142948   6.741   2.773   0.898  1.4533 -0.2515  0.2249
 6251TIP3    H242949   6.729   2.643   0.975 -1.6538 -0.4012 -0.3911
 6252TIP3   OH242950   1.004   2.044   3.122  0.1828 -0.1615 -0.1821
 6252TIP3    H142951   0.940   2.099   3.166  0.4494  0.0932 -0.1076
 6252TIP3    H242952   1.087   2.089   3.136  0.1634  0.3724 -1.6541
 6253TIP3   OH242953   1.986   0.835   1.977  0.6052  0.4815 -0.0771
 6253TIP3    H142954   1.989   0.917   2.026  1.1490  0.4278 -0.0210
 6253TIP3    H242955   1.909   0.845   1.920  1.2358  1.4410 -0.7898
 6254TIP3   OH242956   1.768   0.569   2.188  0.5086  0.3363  0.8450
 6254TIP3    H142957   1.787   0.645   2.243  0.6724  0.2747  0.8735
 6254TIP3    H242958   1.699   0.599   2.128  0.1647  0.3338  1.2365
 6255TIP3   OH242959   2.225   5.325   2.275  0.8643  0.2523 -0.1701
 6255TIP3    H142960   2.137   5.294   2.253  0.1133  1.3329  1.1785
 6255TIP3    H242961   2.211   5.415   2.304  2.4317  0.4236  0.0850
 6256TIP3   OH242962   2.580   0.033   2.085 -0.5004 -0.8156  0.1426
 6256TIP3    H142963   2.546  -0.030   2.021 -0.5542  1.0619 -1.7533
 6256TIP3    H242964   2.545   0.117   2.058  2.6407  0.6895  0.2571
 6257TIP3   OH242965   0.182   7.561   0.775 -0.1119  0.0104 -0.4399
 6257TIP3    H142966   0.207   7.532   0.688  0.6794  1.3976 -0.7027
 6257TIP3    H242967   0.168   7.655   0.766  1.8836  0.5572  1.3009
 6258TIP3   OH242968   1.672   6.604   2.158 -0.0330  0.0536  0.0960
 6258TIP3    H142969   1.582   6.628   2.181 -0.2873  0.5948 -1.4020
 6258TIP3    H242970   1.674   6.603   2.063  1.1431 -1.5533  0.0905
 6259TIP3   OH242971   6.572   1.308   0.539  0.2399 -0.1250 -0.1698
 6259TIP3    H142972   6.622   1.226   0.541  3.6658  1.7535  1.7785
 6259TIP3    H242973   6.621   1.364   0.478 -0.1952  1.3971  0.8042
 6260TIP3   OH242974   7.238   6.285   0.601 -0.0519 -0.2110 -0.7019
 6260TIP3    H142975   7.208   6.206   0.555  1.9702 -0.7877 -1.1331
 6260TIP3    H242976   7.333   6.284   0.590  0.3671  0.4911  2.1683
 6261TIP3   OH242977   6.517   5.779   3.055  0.1820 -0.1276  0.2147
 6261TIP3    H142978   6.526   5.718   2.981 -0.9885  1.0158 -0.9493
 6261TIP3    H242979   6.602   5.823   3.061  0.4467 -0.5849 -0.1348
 6262TIP3   OH242980   3.319   5.852   0.594  0.3078  0.0952 -0.2480
 6262TIP3    H142981   3.344   5.812   0.678 -1.9520 -1.3391 -0.1608
 6262TIP3    H242982   3.269   5.930   0.619  0.0603 -0.0574 -0.2623
 6263TIP3   OH242983   4.279   5.658   1.563 -0.3162  0.0581  0.1153
 6263TIP3    H142984   4.265   5.572   1.523  0.9910 -0.2795  0.3529
 6263TIP3    H242985   4.295   5.717   1.490  1.0782 -0.3643  0.0554
 6264TIP3   OH242986   4.099   2.248   1.694  0.3687  0.6057  0.0339
 6264TIP3    H142987   4.084   2.190   1.620 -0.0798 -1.4006  1.6185
 6264TIP3    H242988   4.028   2.312   1.689 -0.6805 -0.5409 -0.3435
 6265TIP3   OH242989   4.221   5.605   0.625  0.0809  0.1897  0.1595
 6265TIP3    H142990   4.270   5.681   0.593  1.0459  0.1133  1.3832
 6265TIP3    H242991   4.190   5.562   0.546 -0.1753  1.6500 -0.5655
 6266TIP3   OH242992   2.005   2.398   1.154 -0.0275 -1.2920  0.5142
 6266TIP3    H142993   1.962   2.466   1.205  1.0970  0.2234 -0.4763
 6266TIP3    H242994   1.944   2.380   1.082  0.4246 -0.0074 -0.2231
 6267TIP3   OH242995   1.644   1.262   1.114  0.8283  0.1359  0.0409
 6267TIP3    H142996   1.593   1.190   1.077 -0.6605  1.6407 -1.0188
 6267TIP3    H242997   1.578   1.319   1.155  2.0008  0.6660  1.2413
 6268TIP3   OH242998   7.444   1.947   1.602  0.2618 -0.7343  0.7690
 6268TIP3    H142999   7.539   1.938   1.606  0.5668  1.6251  0.2897
 6268TIP3    H243000   7.416   1.958   1.693  0.4495 -1.2413  0.8916
 6269TIP3   OH243001   3.146   6.791   2.761 -0.1673 -0.0714  0.2295
 6269TIP3    H143002   3.095   6.840   2.697  2.1083 -1.3524 -2.7885
 6269TIP3    H243003   3.086   6.724   2.794 -0.9949 -0.4540 -1.8983
 6270TIP3   OH243004   7.221   3.927   0.904 -0.3593 -0.7470  0.7621
 6270TIP3    H143005   7.270   3.904   0.825 -1.1332 -0.4617  0.1838
 6270TIP3    H243006   7.288   3.940   0.970  0.4029  0.3255 -0.1810
 6271TIP3   OH243007   1.054   5.075   1.648  0.0008  0.9189 -0.3304
 6271TIP3    H143008   1.113   5.056   1.721 -0.5330  2.5550  0.5942
 6271TIP3    H243009   1.109   5.072   1.570  1.2460  2.0566  0.4617
 6272TIP3   OH243010   5.805   6.705   1.847  0.3403 -0.0347  0.5718
 6272TIP3    H143011   5.736   6.771   1.854  1.1102  1.1419 -1.7028
 6272TIP3    H243012   5.789   6.645   1.919 -4.0745 -0.8389 -0.7609
 6273TIP3   OH243013   3.212   2.460   3.173  0.4669 -0.1470 -0.9474
 6273TIP3    H143014   3.277   2.524   3.203  0.0875  0.6039 -1.7063
 6273TIP3    H243015   3.191   2.409   3.252  1.6126 -0.0934 -0.5867
 6274TIP3   OH243016   0.438   6.396   0.951  0.3806 -0.1807 -0.1729
 6274TIP3    H143017   0.516   6.405   1.006 -0.3249 -2.2486  1.3000
 6274TIP3    H243018   0.430   6.302   0.935 -2.1631 -0.1234  0.2917
 6275TIP3   OH243019   4.573   5.497   2.560 -0.2249 -0.1393  0.0643
 6275TIP3    H143020   4.645   5.507   2.622  0.8295 -0.0739 -1.1402
 6275TIP3    H243021   4.598   5.550   2.485 -1.3888 -0.3692 -0.5090
 6276TIP3   OH243022   4.303   2.928   0.659 -0.3775  0.2694  0.3923
 6276TIP3    H143023   4.263   2.975   0.586  0.2112 -1.7649 -1.3519
 6276TIP3    H243024   4.394   2.915   0.633 -0.4404 -1.5444  0.9015
 6277TIP3   OH243025   0.998   4.325   2.232  0.7015  0.1660  0.0949
 6277TIP3    H143026   1.092   4.310   2.222  0.7982  0.9472 -0.2538
 6277TIP3    H243027   0.979   4.304   2.324  0.5424 -3.3337 -0.6048
 6278TIP3   OH243028   5.163   1.401   0.921 -0.8563 -0.2789 -0.4294
 6278TIP3    H143029   5.222   1.329   0.942 -1.7996 -1.0440 -0.2917
 6278TIP3    H243030   5.176   1.417   0.828 -0.7495 -0.7459 -0.4996
 6279TIP3   OH243031   2.722   0.749   0.433  0.2330 -0.2347 -0.2618
 6279TIP3    H143032   2.644   0.777   0.385 -0.5831 -3.9748 -1.4309
 6279TIP3    H243033   2.696   0.669   0.478  2.5976  0.0726  1.8695
 6280TIP3   OH243034   3.070   7.587   3.376 -0.0047 -0.0390 -0.0661
 6280TIP3    H143035   3.008   7.622   3.312  1.0126  0.3116 -0.8890
 6280TIP3    H243036   3.015   7.548   3.444 -1.1175 -0.9046 -1.4151
 6281TIP3   OH243037   3.103   3.981   2.430  0.3507  0.3504  0.0207
 6281TIP3    H143038   3.177   3.968   2.371  0.1879 -1.8360  0.2259
 6281TIP3    H243039   3.028   3.996   2.372  1.1582  4.8767 -0.1981
 6282TIP3   OH243040   6.766   4.966   1.076  0.2947 -0.4037 -0.1063
 6282TIP3    H143041   6.859   4.957   1.094  0.1220  1.4579  2.0267
 6282TIP3    H243042   6.723   4.937   1.156 -0.8457  1.2790 -0.0740
 6283TIP3   OH243043   0.805   1.335   0.924 -0.2995  0.2851  0.2967
 6283TIP3    H143044   0.772   1.320   1.013 -1.5974 -0.8590 -0.3154
 6283TIP3    H243045   0.807   1.430   0.914 -0.3827  0.4223  1.4639
 6284TIP3   OH243046   7.318   3.197   0.704 -0.2702  0.9323 -0.8044
 6284TIP3    H143047   7.306   3.185   0.610 -0.1688  1.1982 -0.8536
 6284TIP3    H243048   7.339   3.110   0.738 -0.6464  0.7755 -0.9757
 6285TIP3   OH243049   6.942   5.109   1.876 -0.3024 -0.7531  0.2346
 6285TIP3    H143050   6.968   5.017   1.886  0.8987 -0.4393  0.2139
 6285TIP3    H243051   7.021   5.152   1.844 -1.3229  0.0002 -1.3929
 6286TIP3   OH243052   0.481   0.868   2.499  0.0563 -0.0576  0.8075
 6286TIP3    H143053   0.452   0.854   2.409 -0.0848 -0.9828  0.9879
 6286TIP3    H243054   0.406   0.909   2.543 -0.0295 -0.0090  0.6166
 6287TIP3   OH243055   4.346   7.610   2.210 -0.8588  0.1893 -0.1392
 6287TIP3    H143056   4.388   7.524   2.205  0.9455  1.0530 -1.2764
 6287TIP3    H243057   4.275   7.606   2.147 -0.8318 -0.5005 -0.1281
 6288TIP3   OH243058   7.042   6.643   0.898  0.5358 -0.0820  0.1993
 6288TIP3    H143059   7.136   6.646   0.881  0.5666  1.0027  0.5298
 6288TIP3    H243060   7.033   6.664   0.991 -0.0826  0.5023  0.0148
 6289TIP3   OH243061   6.598   7.251   0.665 -0.3174 -0.3598  0.1023
 6289TIP3    H143062   6.581   7.237   0.571 -1.4344  0.1590  0.2030
 6289TIP3    H243063   6.587   7.345   0.677  0.1946 -0.3732  0.6868
 6290TIP3   OH243064   3.058   7.320   3.499  0.3016 -0.0743  0.0137
 6290TIP3    H143065   3.120   7.294   3.431 -0.5696 -0.6529 -0.5853
 6290TIP3    H243066   2.973   7.291   3.466 -0.5391  2.1268  0.0653
 6291TIP3   OH243067   1.733   0.977   1.317 -0.4545  0.8601 -0.2426
 6291TIP3    H143068   1.753   0.940   1.231 -1.9670  1.7824 -1.0483
 6291TIP3    H243069   1.783   1.059   1.320  1.9087 -0.5462  1.0221
 6292TIP3   OH243070   0.588   2.543   2.494 -0.4041  0.5825  0.3996
 6292TIP3    H143071   0.546   2.474   2.443  1.0887 -0.3502  0.3764
 6292TIP3    H243072   0.528   2.559   2.566  0.1636 -2.3393  1.6633
 6293TIP3   OH243073   5.763   1.797   0.931 -0.1911  0.1467  0.0001
 6293TIP3    H143074   5.823   1.784   1.004  0.3356 -0.9366 -0.6019
 6293TIP3    H243075   5.690   1.847   0.968  0.7635  0.9182  0.8998
 6294TIP3   OH243076   3.141   2.192   2.605 -0.3625  0.1795  0.4001
 6294TIP3    H143077   3.084   2.172   2.679 -1.4123  0.9987 -0.1528
 6294TIP3    H243078   3.109   2.134   2.535  0.7792 -0.7662  0.6293
 6295TIP3   OH243079   6.737   0.983   3.079 -0.0775 -0.0085 -0.6018
 6295TIP3    H143080   6.814   0.960   3.131 -1.5381 -1.2095  1.1630
 6295TIP3    H243081   6.713   1.071   3.109 -1.0372 -0.7730  1.0474
 6296TIP3   OH243082   7.573   6.613   1.720 -0.4459 -0.0914  0.0725
 6296TIP3    H143083   7.613   6.573   1.797 -1.2599  0.3992  0.7676
 6296TIP3    H243084   7.521   6.542   1.682  0.2146 -0.4261 -0.2204
 6297TIP3   OH243085   5.629   3.470   2.199  0.5192  0.2410 -0.2339
 6297TIP3    H143086   5.687   3.546   2.206 -1.1143  1.5566 -0.4462
 6297TIP3    H243087   5.664   3.408   2.263  0.9003  1.8437  1.1981
 6298TIP3   OH243088   5.578   6.164   2.524  0.4922 -0.3311 -0.4521
 6298TIP3    H143089   5.621   6.204   2.600 -1.5766 -0.6377  0.9501
 6298TIP3    H243090   5.614   6.075   2.521  0.4754 -0.3700  0.2680
 6299TIP3   OH243091   2.201   0.073   2.074  0.2163  0.5073 -0.5879
 6299TIP3    H143092   2.187  -0.006   2.126  0.2026  0.3844 -0.7746
 6299TIP3    H243093   2.248   0.042   1.997  1.6725  0.9362  0.1014
 6300TIP3   OH243094   1.109   3.865   3.177 -0.2957 -0.1383 -0.4191
 6300TIP3    H143095   1.105   3.961   3.171 -0.1601  0.1344  2.4330
 6300TIP3    H243096   1.031   3.841   3.227 -0.3267 -1.5684 -1.0979
 6301TIP3   OH243097   2.290   7.271   3.132 -0.0720  0.2785  0.1536
 6301TIP3    H143098   2.222   7.205   3.146  0.9481 -0.8886 -0.1970
 6301TIP3    H243099   2.370   7.221   3.119  0.4567  1.5319 -1.8153
 6302TIP3   OH243100   5.284   0.126   2.751  0.1253  0.6082  0.3315
 6302TIP3    H143101   5.206   0.180   2.735  0.0229  0.8679  1.6312
 6302TIP3    H243102   5.253   0.051   2.801  0.9291  1.6062  2.4706
 6303TIP3   OH243103   6.427   3.911   1.051  0.2159  0.0366  0.3349
 6303TIP3    H143104   6.397   3.961   1.127  0.7904 -0.0297  0.6066
 6303TIP3    H243105   6.519   3.934   1.042  0.0643  0.3320 -0.5743
 6304TIP3   OH243106   6.733   7.457   1.746 -0.0802 -0.4385 -0.0778
 6304TIP3    H143107   6.691   7.502   1.672 -1.5011  0.2032  1.0607
 6304TIP3    H243108   6.660   7.434   1.804  1.0663 -0.0426  1.5880
 6305TIP3   OH243109   3.282   0.129   1.364 -0.3517  0.0450 -0.3615
 6305TIP3    H143110   3.283   0.073   1.442 -0.9630  1.6521  0.8496
 6305TIP3    H243111   3.375   0.139   1.341 -0.1062  0.1610  0.6213
 6306TIP3   OH243112   2.201   0.801   1.155 -0.2771 -0.6604 -0.3473
 6306TIP3    H143113   2.223   0.853   1.078 -0.7652  0.4524  0.2443
 6306TIP3    H243114   2.109   0.821   1.171  0.1017 -0.0636  1.1497
 6307TIP3   OH243115   0.610   4.536   1.136 -0.2497  0.5166 -0.0491
 6307TIP3    H143116   0.691   4.583   1.115  0.7272 -0.1530  1.9331
 6307TIP3    H243117   0.548   4.604   1.161  0.1112  0.9573 -0.3418
 6308TIP3   OH243118   7.081   3.397   1.993 -0.7127 -0.2900  0.1297
 6308TIP3    H143119   7.082   3.304   1.970  0.4613  0.0936 -1.5336
 6308TIP3    H243120   7.061   3.442   1.911 -0.1822  0.9779  0.6686
 6309TIP3   OH243121   1.049   6.029   0.647  0.2626 -0.0144 -0.9595
 6309TIP3    H143122   0.980   5.971   0.615 -1.1244  1.2675 -0.3863
 6309TIP3    H243123   1.124   5.971   0.660 -1.2931 -1.8535  0.3891
 6310TIP3   OH243124   4.842   6.312   2.650  0.4089 -0.1058  0.3756
 6310TIP3    H143125   4.895   6.259   2.710 -0.5262 -1.0350  0.4123
 6310TIP3    H243126   4.863   6.279   2.563  2.4481  1.8495  0.0502
 6311TIP3   OH243127   1.905   3.187   2.299  0.0521  0.3647 -0.1693
 6311TIP3    H143128   1.932   3.095   2.288 -0.3180 -0.0629  1.9489
 6311TIP3    H243129   1.986   3.233   2.320 -0.1628 -0.1684  2.1439
 6312TIP3   OH243130   4.541   6.295   1.380 -0.2896  0.1470  0.0155
 6312TIP3    H143131   4.495   6.217   1.349 -2.6050  1.4610 -0.0861
 6312TIP3    H243132   4.556   6.278   1.473  0.4549 -0.9578 -0.2918
 6313TIP3   OH243133   1.866   1.906   1.286  0.4744 -0.4355 -0.4693
 6313TIP3    H143134   1.774   1.885   1.267 -0.3443  1.4792  0.9894
 6313TIP3    H243135   1.897   1.948   1.206 -1.3028  2.7529  0.3310
 6314TIP3   OH243136   1.975   2.081   1.112 -0.1845 -0.4892 -0.8430
 6314TIP3    H143137   2.051   2.131   1.083  1.1878 -1.7700  0.3585
 6314TIP3    H243138   1.953   2.026   1.036 -0.4772  0.5032 -1.4915
 6315TIP3   OH243139   6.219   5.089   0.491  0.3089  0.0256 -0.7090
 6315TIP3    H143140   6.242   5.105   0.399  0.7087  0.0181 -0.6138
 6315TIP3    H243141   6.136   5.135   0.504  1.3655  1.9965 -0.4647
 6316TIP3   OH243142   0.890   7.522   2.268  0.2511 -0.0868 -0.9750
 6316TIP3    H143143   0.817   7.513   2.206  1.5827 -2.3467 -2.3801
 6316TIP3    H243144   0.864   7.594   2.326 -1.8959  0.9227 -3.0151
 6317TIP3   OH243145   4.896   4.819   2.166  0.1429  1.0943  0.0301
 6317TIP3    H143146   4.828   4.810   2.232 -1.1858  1.0430 -1.2847
 6317TIP3    H243147   4.896   4.911   2.142 -0.4939  0.8492 -0.9873
 6318TIP3   OH243148   1.517   1.100   1.759  0.4778 -0.3162  0.2042
 6318TIP3    H143149   1.445   1.039   1.771 -0.2122  0.2723 -0.7516
 6318TIP3    H243150   1.533   1.136   1.846 -2.2275  1.5115  0.0988
 6319TIP3   OH243151   3.341   0.596   1.719  0.5233  0.7017  0.1571
 6319TIP3    H143152   3.433   0.572   1.732  0.0082 -0.6770  1.6595
 6319TIP3    H243153   3.313   0.546   1.643  0.3861 -0.8983  1.2090
 6320TIP3   OH243154   2.736   6.508   0.836 -0.3733  0.1761 -0.0670
 6320TIP3    H143155   2.675   6.500   0.762 -0.8534  0.4021  0.2930
 6320TIP3    H243156   2.701   6.582   0.887  0.5252  0.6744 -0.1545
 6321TIP3   OH243157   6.647   2.153   0.761 -0.1670 -0.0183  0.1740
 6321TIP3    H143158   6.647   2.057   0.768 -0.7401 -0.1192 -0.9960
 6321TIP3    H243159   6.727   2.173   0.713 -0.1243  0.0811  0.2863
 6322TIP3   OH243160   4.697   5.481   2.100  0.1565 -0.6362 -0.0894
 6322TIP3    H143161   4.784   5.474   2.062 -0.3924  1.7865 -2.0980
 6322TIP3    H243162   4.643   5.423   2.047 -0.1327  0.9046 -1.5953
 6323TIP3   OH243163   5.877   5.760   1.696  0.1492  0.2717 -0.2345
 6323TIP3    H143164   5.887   5.789   1.786  0.8019 -4.1251  1.3839
 6323TIP3    H243165   5.961   5.781   1.655  0.7936  0.1111  0.9597
 6324TIP3   OH243166   6.245   3.528   1.433  0.0507  0.2233  0.1595
 6324TIP3    H143167   6.201   3.517   1.518  1.5863  0.3851  1.0104
 6324TIP3    H243168   6.338   3.530   1.455  0.4342  1.2433 -1.4344
 6325TIP3   OH243169   4.038   1.046   0.669  0.0500 -0.5077  0.2726
 6325TIP3    H143170   3.991   0.979   0.620  2.2682 -2.6849  0.9515
 6325TIP3    H243171   4.113   1.069   0.615  0.4545 -0.1445  0.9639
 6326TIP3   OH243172   2.168   6.390   2.479  0.0461 -0.3182 -0.1510
 6326TIP3    H143173   2.170   6.368   2.385 -0.8914  1.7512 -0.7152
 6326TIP3    H243174   2.260   6.398   2.503  0.2972 -0.1524 -1.0995
 6327TIP3   OH243175   2.028   3.803   2.578 -0.0413  0.7234 -0.8087
 6327TIP3    H143176   1.962   3.737   2.562  0.0083  0.2206  0.9523
 6327TIP3    H243177   2.094   3.788   2.510  0.2094 -1.3695 -0.1622
 6328TIP3   OH243178   6.753   2.037   2.905  0.6910 -0.2304  0.8505
 6328TIP3    H143179   6.843   2.060   2.880 -0.0259  0.7158 -1.1193
 6328TIP3    H243180   6.739   1.951   2.865  0.2940  0.2651 -0.1310
 6329TIP3   OH243181   1.187   1.302   0.531  0.2362 -0.1326 -0.8371
 6329TIP3    H143182   1.240   1.265   0.602  0.0154 -0.7118 -0.9631
 6329TIP3    H243183   1.251   1.341   0.472  0.7666 -2.5044 -1.9719
 6330TIP3   OH243184   2.939   2.518   1.884 -0.9537  0.3227 -0.2400
 6330TIP3    H143185   2.926   2.611   1.905  0.2990 -0.0186  2.4000
 6330TIP3    H243186   2.968   2.519   1.793 -1.5112  2.4562 -0.4627
 6331TIP3   OH243187   0.304   0.280   2.879 -0.1437 -0.2621  0.4166
 6331TIP3    H143188   0.249   0.359   2.872 -0.9905 -0.8832 -0.0643
 6331TIP3    H243189   0.363   0.286   2.804 -1.8953 -1.3297 -1.1449
 6332TIP3   OH243190   4.630   3.594   2.096 -0.2462  0.6570 -0.2806
 6332TIP3    H143191   4.627   3.665   2.160  1.7755 -0.0214  0.6804
 6332TIP3    H243192   4.548   3.547   2.107  0.2760  0.2123  2.3060
 6333TIP3   OH243193   3.506   4.443   2.513 -0.5090 -0.0655 -0.6349
 6333TIP3    H143194   3.511   4.456   2.608  1.3079 -1.2281 -0.5276
 6333TIP3    H243195   3.557   4.515   2.476  0.3925 -0.6645 -0.5991
 6334TIP3   OH243196   7.156   6.583   1.726 -0.4865 -0.2080 -0.0188
 6334TIP3    H143197   7.076   6.612   1.682 -0.2502  0.3794 -0.0667
 6334TIP3    H243198   7.194   6.518   1.666 -0.1696  0.5845 -0.6903
 6335TIP3   OH243199   0.079   4.571   1.540 -0.3352 -0.2808  0.4451
 6335TIP3    H143200   0.153   4.620   1.577 -0.7006  1.0977 -0.5947
 6335TIP3    H243201   0.006   4.592   1.598 -0.2308 -0.5419  0.6746
 6336TIP3   OH243202   4.913   6.361   1.318 -0.1471 -0.2936 -0.0428
 6336TIP3    H143203   4.923   6.437   1.375 -0.6964  0.2449 -0.6488
 6336TIP3    H243204   4.829   6.376   1.273  0.4559 -0.5113 -1.2698
 6337TIP3   OH243205   0.935   0.040   2.458 -0.3884 -0.2887 -0.1825
 6337TIP3    H143206   1.029   0.023   2.470 -0.6194 -1.3951  0.1895
 6337TIP3    H243207   0.893  -0.007   2.530 -1.1799  0.9764  0.2187
 6338TIP3   OH243208   7.582   7.446   0.637  0.5470  0.4726  0.3422
 6338TIP3    H143209   7.607   7.362   0.598 -0.2780  0.5734 -0.4348
 6338TIP3    H243210   7.492   7.460   0.608 -0.3263  0.2995  2.7413
 6339TIP3   OH243211   2.365   2.531   1.616 -0.2431  0.4640 -0.5574
 6339TIP3    H143212   2.389   2.624   1.616 -0.6578  0.5747 -0.7725
 6339TIP3    H243213   2.291   2.526   1.677 -0.9881  0.4822 -1.4408
 6340TIP3   OH243214   0.154   6.503   0.411 -0.8689 -0.0384  0.1715
 6340TIP3    H143215   0.238   6.548   0.417 -0.8006 -0.2801  1.1764
 6340TIP3    H243216   0.112   6.541   0.334  1.0562 -1.4647 -1.7024
 6341TIP3   OH243217   5.350   2.872   2.109 -0.4271 -0.2395 -0.0257
 6341TIP3    H143218   5.347   2.802   2.174  0.1072 -1.2086 -1.0137
 6341TIP3    H243219   5.443   2.896   2.103 -0.6220  0.6673  0.4087
 6342TIP3   OH243220   0.843   4.922   1.759  0.0452 -0.1840 -0.3519
 6342TIP3    H143221   0.906   4.977   1.714 -0.2715  0.2200 -0.3031
 6342TIP3    H243222   0.876   4.833   1.747  0.3491 -0.0170 -0.7554
 6343TIP3   OH243223   1.676   5.360   0.718  0.0716  0.0224 -0.1116
 6343TIP3    H143224   1.638   5.447   0.724 -0.2879 -0.0889 -0.7648
 6343TIP3    H243225   1.770   5.375   0.711  0.0109  0.3589 -0.2022
 6344TIP3   OH243226   2.311   7.271   2.139 -0.0207  0.6303 -0.3049
 6344TIP3    H143227   2.323   7.303   2.228 -0.3839 -1.0510  0.3939
 6344TIP3    H243228   2.394   7.227   2.117  0.3922  1.7893 -1.1518
 6345TIP3   OH243229   0.858   4.180   1.682 -0.1937 -0.3202  0.0636
 6345TIP3    H143230   0.798   4.166   1.608 -0.4120  1.4971 -0.1446
 6345TIP3    H243231   0.839   4.269   1.711  2.0207  0.1075  0.3572
 6346TIP3   OH243232   1.047   3.322   2.352 -0.5716 -0.3850 -0.3931
 6346TIP3    H143233   0.991   3.336   2.275  1.7857 -0.5385 -2.2284
 6346TIP3    H243234   1.134   3.350   2.324  0.9600 -3.0416  1.2680
 6347TIP3   OH243235   1.151   6.675   2.735 -0.3260  0.8205 -0.6528
 6347TIP3    H143236   1.116   6.666   2.647 -0.4423  1.7542 -0.7186
 6347TIP3    H243237   1.080   6.647   2.793 -0.6953  1.3858 -0.8272
 6348TIP3   OH243238   3.707   1.635   3.018  0.1972  0.0661  0.7926
 6348TIP3    H143239   3.742   1.625   2.929  1.7751  1.5411  1.2004
 6348TIP3    H243240   3.619   1.598   3.013  0.1236  0.4161 -1.4663
 6349TIP3   OH243241   7.061   7.179   2.796 -0.1095  0.5222  0.0825
 6349TIP3    H143242   6.997   7.157   2.864 -0.4366  0.1932 -0.3242
 6349TIP3    H243243   7.088   7.268   2.816  0.7756 -0.0118  1.4147
 6350TIP3   OH243244   1.211   0.665   1.950  0.0268  0.4636 -0.6610
 6350TIP3    H143245   1.145   0.638   1.886 -2.2281  0.1164  1.6295
 6350TIP3    H243246   1.278   0.597   1.947 -1.2623 -0.8296 -0.9887
 6351TIP3   OH243247   2.886   0.592   2.029 -0.1075  0.2365 -0.1497
 6351TIP3    H143248   2.902   0.664   1.968 -0.1175 -1.0343 -1.7168
 6351TIP3    H243249   2.967   0.541   2.027  0.8338  1.4013  2.7586
 6352TIP3   OH243250   0.236   6.398   1.255 -0.4067  0.6880  0.1295
 6352TIP3    H143251   0.198   6.361   1.175  0.8222  1.9111 -1.0834
 6352TIP3    H243252   0.181   6.364   1.326 -1.3575 -0.6765 -1.1929
 6353TIP3   OH243253   2.407   2.336   2.827  0.0540  0.5119  0.0845
 6353TIP3    H143254   2.365   2.309   2.909 -1.1248 -2.5427 -1.3441
 6353TIP3    H243255   2.334   2.344   2.766  1.1118 -0.1330 -1.3110
 6354TIP3   OH243256   6.649   0.972   1.689 -0.0391  0.2725  0.5185
 6354TIP3    H143257   6.689   0.990   1.775 -0.4765  0.5333  0.6713
 6354TIP3    H243258   6.555   0.965   1.707 -0.5073  3.1294 -0.3299
 6355TIP3   OH243259   0.134   1.470   1.159  0.9792  0.1871  0.1936
 6355TIP3    H143260   0.047   1.435   1.138  0.9007  0.3506  0.2457
 6355TIP3    H243261   0.148   1.447   1.251  0.8966  0.3519  0.2492
 6356TIP3   OH243262   1.549   5.305   0.977  0.0897 -0.4564 -0.5520
 6356TIP3    H143263   1.606   5.284   0.903  1.6777 -0.6350  0.6635
 6356TIP3    H243264   1.538   5.400   0.972 -0.1515 -0.5101 -1.2233
 6357TIP3   OH243265   2.400   5.159   0.652 -0.2850 -0.3045 -0.6184
 6357TIP3    H143266   2.351   5.081   0.679 -0.8478 -0.7788 -2.7741
 6357TIP3    H243267   2.465   5.125   0.590 -0.4879  0.9059 -1.5326
 6358TIP3   OH243268   2.067   1.089   1.660  0.2522  0.1708  0.1058
 6358TIP3    H143269   2.042   1.003   1.626  0.3256  0.0394  0.3763
 6358TIP3    H243270   2.150   1.073   1.705 -0.3279  0.1282  1.2081
 6359TIP3   OH243271   1.472   0.919   1.431  0.0067 -0.5115  0.6617
 6359TIP3    H143272   1.557   0.940   1.392 -0.6366 -0.4101 -0.7811
 6359TIP3    H243273   1.468   0.823   1.427 -0.5033 -0.4621 -0.6123
 6360TIP3   OH243274   1.864   0.705   0.420  0.1387 -0.4177  0.2504
 6360TIP3    H143275   1.790   0.744   0.465  0.9114  0.0162  1.1970
 6360TIP3    H243276   1.827   0.664   0.342 -0.6767  2.6831 -1.1298
 6361TIP3   OH243277   6.370   2.456   0.955  0.2839 -0.2066  0.5350
 6361TIP3    H143278   6.386   2.421   1.042  1.3098 -0.1345  0.3903
 6361TIP3    H243279   6.305   2.525   0.968  0.1728 -0.4310  1.1878
 6362TIP3   OH243280   4.996   2.682   1.020  0.1222  0.2854  0.5247
 6362TIP3    H143281   4.971   2.748   0.956 -1.0283  0.4996  1.1701
 6362TIP3    H243282   4.926   2.617   1.017  0.4628 -0.1108  0.9849
 6363TIP3   OH243283   6.227   7.208   2.263 -0.4756  1.5576 -0.1810
 6363TIP3    H143284   6.149   7.229   2.211  0.8689 -0.5266 -3.3394
 6363TIP3    H243285   6.286   7.281   2.250  0.8743  0.0299 -4.0805
 6364TIP3   OH243286   5.830   2.510   0.552  0.2178  0.3769 -0.1397
 6364TIP3    H143287   5.845   2.490   0.645  0.0818  2.3288  0.3431
 6364TIP3    H243288   5.738   2.489   0.538  0.6318 -1.5177 -0.3150
 6365TIP3   OH243289   0.251   1.804   3.192  0.2689  0.0256  0.0156
 6365TIP3    H143290   0.172   1.856   3.178  1.8148  2.0980 -1.8402
 6365TIP3    H243291   0.317   1.867   3.218  1.9104 -1.2004 -0.9297
 6366TIP3   OH243292   5.862   3.983   1.464  0.3444  0.1894 -0.1394
 6366TIP3    H143293   5.908   4.060   1.497  0.6886 -0.1735  0.2369
 6366TIP3    H243294   5.922   3.910   1.480  0.5753  0.0218 -1.7040
 6367TIP3   OH243295   1.885   2.249   0.774 -0.0657 -0.2822 -1.3599
 6367TIP3    H143296   1.830   2.233   0.850  2.3943 -1.0082  0.4152
 6367TIP3    H243297   1.924   2.164   0.754  0.6858  0.2588 -2.2841
 6368TIP3   OH243298   5.006   6.488   2.784  0.7089 -0.4878 -0.1040
 6368TIP3    H143299   4.917   6.453   2.783  0.3657  0.2864  1.1810
 6368TIP3    H243300   5.036   6.478   2.694 -0.3240 -1.6258 -0.3548
 6369TIP3   OH243301   3.387   1.715   1.916  0.3941  0.2135 -0.5684
 6369TIP3    H143302   3.424   1.767   1.986  2.0364 -0.1563 -1.1295
 6369TIP3    H243303   3.455   1.710   1.850  0.1940 -2.2860 -0.7141
 6370TIP3   OH243304   2.282   5.514   2.477  0.5543 -0.1269 -0.1847
 6370TIP3    H143305   2.270   5.602   2.442 -2.3419 -0.0601  0.6915
 6370TIP3    H243306   2.326   5.526   2.561  1.0752  0.3646 -0.5218
 6371TIP3   OH243307   0.196   6.920   2.851 -0.5285  0.3951 -0.1547
 6371TIP3    H143308   0.184   7.002   2.804 -0.6555 -0.0233 -0.8594
 6371TIP3    H243309   0.112   6.904   2.894 -0.7297  0.2680 -0.5986
 6372TIP3   OH243310   2.130   1.675   2.553  0.4689  0.0501  0.2489
 6372TIP3    H143311   2.202   1.614   2.568  1.0194  0.4096 -0.8657
 6372TIP3    H243312   2.053   1.618   2.544  0.3873 -0.2928  2.3981
 6373TIP3   OH243313   1.628   1.433   2.283 -0.1094 -0.5012  0.1332
 6373TIP3    H143314   1.539   1.464   2.270  0.3461  0.3313 -1.1508
 6373TIP3    H243315   1.641   1.439   2.378 -0.8329  1.0465  0.1726
 6374TIP3   OH243316   3.181   6.303   0.896  0.9215 -0.0554  0.1542
 6374TIP3    H143317   3.272   6.278   0.882  0.7055 -0.2891 -0.9194
 6374TIP3    H243318   3.156   6.351   0.817  0.2008  0.2728  0.5644
 6375TIP3   OH243319   4.563   1.947   1.391  0.1265  0.4072  0.7127
 6375TIP3    H143320   4.533   1.896   1.466 -1.1013 -1.1622 -0.7582
 6375TIP3    H243321   4.541   2.037   1.413 -0.0652  0.0100  2.2912
 6376TIP3   OH243322   2.421   2.900   3.110 -0.6483  0.2180  0.1328
 6376TIP3    H143323   2.357   2.866   3.047 -0.6917  2.9046 -1.4473
 6376TIP3    H243324   2.503   2.902   3.061 -0.5930  1.9691  0.2408
 6377TIP3   OH243325   3.203   2.348   1.936 -0.2105  0.2013 -0.0817
 6377TIP3    H143326   3.121   2.353   1.887  0.8736 -0.0197 -2.0282
 6377TIP3    H243327   3.218   2.438   1.967 -0.6278  0.4907 -0.7002
 6378TIP3   OH243328   3.946   0.264   0.749 -0.0953  0.4521 -0.0545
 6378TIP3    H143329   3.908   0.260   0.662 -0.2562 -1.2858  0.0693
 6378TIP3    H243330   3.886   0.320   0.799 -1.5439 -0.7969 -0.3387
 6379TIP3   OH243331   4.333   4.129   0.655  0.2369 -0.2337  1.0408
 6379TIP3    H143332   4.276   4.073   0.709 -0.9762 -0.3021 -0.2584
 6379TIP3    H243333   4.293   4.128   0.569  1.3738  0.9896  0.4628
 6380TIP3   OH243334   1.503   1.250   2.001  0.1107 -0.4364  0.5554
 6380TIP3    H143335   1.570   1.312   1.971 -0.3049 -0.3733 -0.2566
 6380TIP3    H243336   1.420   1.293   1.981 -0.1791 -0.8494  0.8582
 6381TIP3   OH243337   0.120   1.191   1.516 -0.4100  0.0560 -0.2079
 6381TIP3    H143338   0.172   1.195   1.597 -2.1864  1.6338  0.9480
 6381TIP3    H243339   0.185   1.184   1.446  1.1755 -2.1139  1.3517
 6382TIP3   OH243340   0.145   0.694   2.666 -0.0997 -0.1494  0.4974
 6382TIP3    H143341   0.116   0.614   2.624 -1.8820 -0.1294  1.5853
 6382TIP3    H243342   0.225   0.670   2.712  1.2228 -0.4418 -1.8487
 6383TIP3   OH243343   3.295   3.000   2.135  0.1494 -0.5907  0.1917
 6383TIP3    H143344   3.328   3.083   2.101 -1.0689  1.0354  2.6830
 6383TIP3    H243345   3.371   2.960   2.178  0.2266  0.3582  0.9562
 6384TIP3   OH243346   1.444   6.868   1.304 -0.0775  0.3174  0.6339
 6384TIP3    H143347   1.424   6.859   1.397 -0.6710 -3.1023  0.3320
 6384TIP3    H243348   1.361   6.895   1.264 -0.2127  0.3998  0.9655
 6385TIP3   OH243349   7.372   0.675   1.610  0.5234 -0.2470  0.4430
 6385TIP3    H143350   7.380   0.728   1.530 -1.7712 -1.5516 -0.7460
 6385TIP3    H243351   7.408   0.590   1.586 -1.1000 -0.9579  0.4319
 6386TIP3   OH243352   6.700   1.405   0.776 -0.1861  0.2810  0.4216
 6386TIP3    H143353   6.788   1.384   0.808  0.1585 -0.3645 -0.8818
 6386TIP3    H243354   6.675   1.329   0.723 -0.2497  1.7452 -1.7799
 6387TIP3   OH243355   6.262   3.173   3.161  0.1305 -0.2275  0.8025
 6387TIP3    H143356   6.183   3.125   3.184  1.7309 -1.7876  3.7272
 6387TIP3    H243357   6.306   3.117   3.097  0.0878 -0.7363  1.2043
 6388TIP3   OH243358   4.382   1.672   2.586 -0.9317 -0.5662 -0.5860
 6388TIP3    H143359   4.396   1.764   2.563  1.1484 -0.2700  1.5206
 6388TIP3    H243360   4.370   1.673   2.681  0.6184 -2.5831 -0.3082
 6389TIP3   OH243361   0.588   3.362   0.605  0.0148 -0.4081 -0.1474
 6389TIP3    H143362   0.494   3.369   0.615  0.1258 -1.1882  2.0782
 6389TIP3    H243363   0.623   3.440   0.648  0.3884 -0.4623 -0.3515
 6390TIP3   OH243364   2.251   7.543   1.597  0.0989 -0.0714 -0.2090
 6390TIP3    H143365   2.241   7.604   1.670 -1.1850 -0.2271 -0.2274
 6390TIP3    H243366   2.163   7.508   1.583  0.1483  0.5253 -2.3429
 6391TIP3   OH243367   5.630   5.624   1.318 -0.3020  0.1464 -0.6145
 6391TIP3    H143368   5.631   5.674   1.400 -1.5045 -1.1886  0.2765
 6391TIP3    H243369   5.721   5.600   1.304 -0.0832  0.2771  0.4443
 6392TIP3   OH243370   1.076   6.638   0.867 -0.2915 -0.3375  0.7922
 6392TIP3    H143371   1.034   6.683   0.794  1.2413  0.0412  0.1103
 6392TIP3    H243372   1.107   6.555   0.830  0.6244 -0.0813  0.9658
 6393TIP3   OH243373   3.434   6.966   3.090 -0.1198 -0.4523  0.1238
 6393TIP3    H143374   3.423   6.904   3.018  0.9283 -0.7121  0.1667
 6393TIP3    H243375   3.346   6.985   3.120 -0.5689 -0.4419 -1.1436
 6394TIP3   OH243376   5.977   1.568   3.444 -0.0314 -0.5585 -0.0102
 6394TIP3    H143377   6.055   1.518   3.468 -1.1898 -0.7844  4.0255
 6394TIP3    H243378   5.907   1.502   3.439 -0.9704  0.1850  2.2116
 6395TIP3   OH243379   0.985   5.500   2.986  0.5190  0.6998  0.0069
 6395TIP3    H143380   0.929   5.489   3.063  0.1044 -1.4444 -0.5475
 6395TIP3    H243381   0.966   5.589   2.955  0.8610  1.7196  2.4557
 6396TIP3   OH243382   1.656   3.527   7.921 -0.5131  0.2275 -0.1947
 6396TIP3    H143383   1.651   3.585   7.845  0.3651  0.1310 -0.3380
 6396TIP3    H243384   1.683   3.583   7.993 -1.1185  0.2722  0.0071
 6397TIP3   OH243385   0.191   6.753   2.612  0.0734  0.0098  0.4819
 6397TIP3    H143386   0.203   6.818   2.681  0.0856  1.1887 -0.5930
 6397TIP3    H243387   0.114   6.703   2.638  0.7660 -0.3551  1.9244
 6398TIP3   OH243388   6.422   3.754   2.014  0.9107  0.1918  0.1289
 6398TIP3    H143389   6.393   3.713   2.096  0.6818  0.8657  0.3968
 6398TIP3    H243390   6.471   3.686   1.969  1.0595 -0.1834  0.8392
 6399TIP3   OH243391   1.487   1.785   2.464  0.5797 -0.2245 -0.3131
 6399TIP3    H143392   1.422   1.784   2.393  0.9582 -0.2550 -0.6613
 6399TIP3    H243393   1.543   1.710   2.446  0.0050 -0.9182  0.6575
 6400TIP3   OH243394   0.800   2.885   2.145 -0.0613  0.3323 -0.4153
 6400TIP3    H143395   0.757   2.812   2.189 -0.4268  0.4467 -0.5751
 6400TIP3    H243396   0.881   2.848   2.111 -0.1515  0.0482 -0.3276
 6401TIP3   OH243397   1.616   2.345   1.392 -0.0968  0.0008 -0.2026
 6401TIP3    H143398   1.524   2.331   1.415  0.3167 -1.2216  0.8043
 6401TIP3    H243399   1.631   2.438   1.411 -0.8392 -0.0391  0.6829
 6402TIP3   OH243400   7.333   3.273   1.565  0.0306 -0.3763  0.6332
 6402TIP3    H143401   7.281   3.218   1.625 -0.2787 -0.0438  0.6690
 6402TIP3    H243402   7.356   3.350   1.617 -0.8193  0.2362  0.1194
 6403TIP3   OH243403   0.782   6.841   0.479  0.1314  0.1984  0.1600
 6403TIP3    H143404   0.701   6.811   0.439 -0.7710  0.0337  1.9967
 6403TIP3    H243405   0.777   6.937   0.473  0.4575  0.1505 -0.9403
 6404TIP3   OH243406   7.480   7.137   1.912  0.0719  0.2928  0.3131
 6404TIP3    H143407   7.569   7.143   1.946  0.5429 -0.5909 -0.6867
 6404TIP3    H243408   7.491   7.102   1.823 -1.2143  1.0182 -0.1579
 6405TIP3   OH243409   2.217   6.406   0.794 -0.4218 -0.2124  0.1493
 6405TIP3    H143410   2.173   6.327   0.761 -0.2262  0.1212 -0.9149
 6405TIP3    H243411   2.242   6.382   0.884  0.5072 -1.7156 -0.4755
 6406TIP3   OH243412   4.761   1.057   2.739 -0.1363  0.2557  0.0885
 6406TIP3    H143413   4.851   1.077   2.766  0.8109  0.2384 -2.7384
 6406TIP3    H243414   4.708   1.074   2.817  2.0573  2.2748  1.2595
 6407TIP3   OH243415   6.424   2.648   1.566 -0.8174 -0.0679 -0.0291
 6407TIP3    H143416   6.459   2.729   1.602 -0.6402  0.1205 -0.6163
 6407TIP3    H243417   6.338   2.672   1.532 -0.0468  0.3064 -1.8175
 6408TIP3   OH243418   2.413   7.510   1.971 -0.8557  0.1711  0.0806
 6408TIP3    H143419   2.438   7.553   1.889  0.1441  0.4330  0.5055
 6408TIP3    H243420   2.448   7.421   1.962  0.7776  0.6859  0.8859
 6409TIP3   OH243421   3.527   5.269   1.972 -0.4476  0.1120 -0.0441
 6409TIP3    H143422   3.490   5.186   1.944 -1.7337  0.4322  0.6136
 6409TIP3    H243423   3.494   5.333   1.909 -0.2570  0.2706  0.0135
 6410TIP3   OH243424   2.761   4.094   2.815  0.2013 -0.3562  0.3262
 6410TIP3    H143425   2.747   4.002   2.834  0.9397 -0.4502  0.4618
 6410TIP3    H243426   2.848   4.113   2.850  0.9464 -0.1399 -1.5220
 6411TIP3   OH243427   5.143   3.974   1.144  0.3071  0.0570  0.1686
 6411TIP3    H143428   5.086   3.908   1.107 -1.0302  1.4036 -0.2601
 6411TIP3    H243429   5.122   3.974   1.238 -1.2824  1.3309 -0.1518
 6412TIP3   OH243430   1.897   3.477   1.433 -0.0244 -0.0483  0.3488
 6412TIP3    H143431   1.920   3.410   1.499 -1.8584 -1.4222 -0.3201
 6412TIP3    H243432   1.963   3.545   1.445  0.6226 -0.9497  2.5734
 6413TIP3   OH243433   0.653   5.105   2.552 -1.2179 -0.1132 -0.3964
 6413TIP3    H143434   0.682   5.164   2.622 -1.5413 -0.9265  0.4338
 6413TIP3    H243435   0.709   5.028   2.561 -1.2193 -0.2058 -1.0924
 6414TIP3   OH243436   0.545   5.474   1.409  0.2513  0.0964 -0.6204
 6414TIP3    H143437   0.506   5.560   1.392  0.8757  0.5795  0.3105
 6414TIP3    H243438   0.594   5.454   1.330  2.2716  1.8324  0.1051
 6415TIP3   OH243439   0.969   3.078   3.139  0.5273 -0.4633  1.0441
 6415TIP3    H143440   1.061   3.053   3.140  0.6104 -0.1540  1.0980
 6415TIP3    H243441   0.954   3.119   3.224  0.5927  0.3978  0.6519
 6416TIP3   OH243442   3.585   4.722   0.632  0.4484 -0.0345 -0.6374
 6416TIP3    H143443   3.599   4.641   0.583 -2.2921 -1.7505  1.1674
 6416TIP3    H243444   3.664   4.731   0.686  1.5820 -0.4459 -2.1549
 6417TIP3   OH243445   2.869   2.241   2.001  0.0736  0.0221 -0.2285
 6417TIP3    H143446   2.820   2.205   1.927  0.1638 -0.1443 -0.2074
 6417TIP3    H243447   2.904   2.324   1.968 -2.0624  1.2543  0.4377
 6418TIP3   OH243448   6.834   3.173   1.908 -0.1808  0.3926 -0.3727
 6418TIP3    H143449   6.883   3.177   1.826 -0.8274  0.4942 -0.7618
 6418TIP3    H243450   6.811   3.081   1.918 -1.1550  0.5654 -0.9445
 6419TIP3   OH243451   4.021   1.872   2.465 -0.3169 -0.0943  0.2484
 6419TIP3    H143452   3.988   1.783   2.450 -1.2073 -0.1958  2.3234
 6419TIP3    H243453   4.115   1.861   2.477 -0.1485 -0.4765 -1.2527
 6420TIP3   OH243454   3.519   5.181   0.593 -0.0219 -0.4186 -0.5419
 6420TIP3    H143455   3.463   5.247   0.553 -1.5121 -1.9635 -1.0906
 6420TIP3    H243456   3.473   5.099   0.581  0.4076 -1.2660  2.5762
 6421TIP3   OH243457   2.589   3.670   0.910 -0.0034  0.3249 -0.3057
 6421TIP3    H143458   2.548   3.722   0.979  0.1388 -1.2052  1.0107
 6421TIP3    H243459   2.646   3.609   0.958 -1.0990 -1.8732 -1.6348
 6422TIP3   OH243460   3.451   0.458   1.437 -0.0946 -0.0732 -0.5042
 6422TIP3    H143461   3.523   0.514   1.467  1.7133 -2.3094 -0.4809
 6422TIP3    H243462   3.443   0.477   1.344  0.6187  0.0686 -0.5370
 6423TIP3   OH243463   6.515   5.556   1.547  0.2821  0.0824  0.2474
 6423TIP3    H143464   6.447   5.488   1.551  1.0315 -0.6712  0.3888
 6423TIP3    H243465   6.484   5.623   1.608  0.2727 -0.8353  1.2969
 6424TIP3   OH243466   3.265   5.871   1.842 -0.3370  0.2375  0.1339
 6424TIP3    H143467   3.260   5.966   1.828 -0.4325 -0.1614 -3.4745
 6424TIP3    H243468   3.359   5.851   1.836 -0.4926 -0.1179 -1.7748
 6425TIP3   OH243469   7.526   4.883   1.075  0.2393  0.6964 -0.3093
 6425TIP3    H143470   7.483   4.951   1.024  0.1882  0.5728 -0.4308
 6425TIP3    H243471   7.612   4.873   1.036 -0.2128 -0.2104 -1.1086
 6426TIP3   OH243472   1.312   6.484   1.354  0.2096  0.2607 -0.0596
 6426TIP3    H143473   1.364   6.429   1.295  1.2611  0.0065  1.0506
 6426TIP3    H243474   1.226   6.488   1.313  0.9921  0.4294 -1.8140
 6427TIP3   OH243475   6.561   0.027   2.235 -0.7784 -0.0928 -0.4797
 6427TIP3    H143476   6.553   0.087   2.162 -0.6462  0.2321 -0.2322
 6427TIP3    H243477   6.479   0.035   2.283 -0.7095 -0.0070 -0.3732
 6428TIP3   OH243478   0.471   6.827   2.894 -0.3953 -0.6338  0.1293
 6428TIP3    H143479   0.384   6.855   2.864 -0.0117  0.4316 -0.0228
 6428TIP3    H243480   0.465   6.827   2.989 -0.0185  1.3207  0.1874
 6429TIP3   OH243481   1.069   5.000   1.216  0.2027 -0.0966  0.1334
 6429TIP3    H143482   1.140   5.023   1.276 -0.3525  1.4514  0.2433
 6429TIP3    H243483   1.000   5.063   1.235  0.0994  0.6455 -2.3037
 6430TIP3   OH243484   5.805   2.938   0.790  0.4377  0.2250  0.7775
 6430TIP3    H143485   5.851   3.018   0.763 -0.1973  0.2431 -0.3349
 6430TIP3    H243486   5.845   2.869   0.737 -1.2789  0.3630 -0.7890
 6431TIP3   OH243487   1.587   6.614   3.270 -0.4503 -0.1794  0.3891
 6431TIP3    H143488   1.647   6.632   3.342 -0.3186  3.4687 -0.4488
 6431TIP3    H243489   1.639   6.562   3.208  1.4104  1.5579  0.3983
 6432TIP3   OH243490   3.540   4.470   1.555 -0.4490 -0.0416 -0.3649
 6432TIP3    H143491   3.529   4.551   1.505 -2.5296  1.0957  1.7556
 6432TIP3    H243492   3.627   4.478   1.594  0.5716 -0.2491 -2.4598
 6433TIP3   OH243493   3.397   6.813   2.862 -0.2703  0.0771 -0.2451
 6433TIP3    H143494   3.305   6.809   2.838 -0.2961 -0.2379 -0.0924
 6433TIP3    H243495   3.412   6.735   2.916 -0.0336  0.3920  0.1474
 6434TIP3   OH243496   3.017   6.534   1.347 -0.0275 -0.3514 -0.2873
 6434TIP3    H143497   2.939   6.485   1.373 -1.0676  1.4454  0.1561
 6434TIP3    H243498   3.052   6.486   1.272 -1.8060 -0.9777 -0.7575
 6435TIP3   OH243499   3.646   6.737   2.797 -0.2345  0.3189  0.0122
 6435TIP3    H143500   3.675   6.703   2.882 -0.3362  0.7458  0.2196
 6435TIP3    H243501   3.563   6.780   2.816 -0.8822 -0.6560 -0.5291
 6436TIP3   OH243502   3.811   6.234   2.180 -0.1381 -0.2063 -0.0678
 6436TIP3    H143503   3.802   6.286   2.100  0.4482  0.7672  0.4706
 6436TIP3    H243504   3.766   6.286   2.247  1.0828 -0.0052  0.6318
 6437TIP3   OH243505   1.479   3.456   1.642 -0.6456  0.2550  0.0804
 6437TIP3    H143506   1.425   3.380   1.662 -1.8908  0.3440 -2.4561
 6437TIP3    H243507   1.418   3.520   1.606  0.8830  1.0197 -1.3268
 6438TIP3   OH243508   5.091   0.810   2.170  0.4175  0.2467  0.3810
 6438TIP3    H143509   5.019   0.748   2.157 -0.7472  1.7718 -0.7778
 6438TIP3    H243510   5.111   0.805   2.263  0.1309 -1.5950  0.3821
 6439TIP3   OH243511   2.626   7.285   1.529 -0.1606 -0.3078  0.5009
 6439TIP3    H143512   2.542   7.319   1.498 -0.6140 -0.7827  1.1813
 6439TIP3    H243513   2.681   7.363   1.541 -1.1150  0.1834  1.8474
 6440TIP3   OH243514   6.161   5.378   2.364  0.1049 -0.2589 -0.0988
 6440TIP3    H143515   6.191   5.300   2.410 -0.0043 -1.3329 -1.7574
 6440TIP3    H243516   6.067   5.383   2.384  0.3609  0.2403  1.0729
 6441TIP3   OH243517   7.244   5.273   2.158 -0.0261  0.2476  0.8214
 6441TIP3    H143518   7.291   5.199   2.120 -0.3523 -0.4151  1.7036
 6441TIP3    H243519   7.287   5.350   2.119 -1.1953 -0.3670 -1.9632
 6442TIP3   OH243520   6.124   2.064   1.501  0.2799  0.0566  0.6110
 6442TIP3    H143521   6.054   2.069   1.436  0.0403  1.9455  0.9576
 6442TIP3    H243522   6.080   2.078   1.585  1.2483  3.6608  0.6680
 6443TIP3   OH243523   0.834   2.570   1.960 -0.0438 -0.1528 -0.2405
 6443TIP3    H143524   0.871   2.484   1.942  2.3722  1.2425 -2.9316
 6443TIP3    H243525   0.897   2.611   2.020 -0.3728  0.2453 -0.1596
 6444TIP3   OH243526   2.517   1.928   1.886  0.2086 -0.7522  0.2996
 6444TIP3    H143527   2.588   1.880   1.928  1.0661  1.4239  1.4962
 6444TIP3    H243528   2.559   2.007   1.852 -1.6678  0.6835  1.2052
 6445TIP3   OH243529   2.104   1.426   1.245  0.0167 -0.1407 -0.0753
 6445TIP3    H143530   2.145   1.409   1.330  0.9337 -0.3768 -0.5487
 6445TIP3    H243531   2.024   1.373   1.246 -0.5999  0.7666  1.0898
 6446TIP3   OH243532   3.129   6.510   1.081 -0.1777 -0.1690 -0.1183
 6446TIP3    H143533   3.150   6.427   1.038 -0.7215 -0.0327 -0.6679
 6446TIP3    H243534   3.088   6.562   1.012  1.4506  1.1016 -0.1819
 6447TIP3   OH243535   4.171   1.967   1.335 -0.7207  0.4241  0.0478
 6447TIP3    H143536   4.162   1.899   1.269  0.3192 -0.2598  0.5640
 6447TIP3    H243537   4.203   1.920   1.413 -2.3640  1.1153  1.1937
 6448TIP3   OH243538   7.647   7.304   0.977 -0.0381  0.0670  0.4257
 6448TIP3    H143539   7.710   7.265   1.038  0.9302  1.9581  0.7062
 6448TIP3    H243540   7.632   7.236   0.912  2.7527 -0.2930  0.0331
 6449TIP3   OH243541   3.785   7.418   0.767  0.5065 -0.1560 -0.2877
 6449TIP3    H143542   3.730   7.341   0.755  0.5443 -0.0299 -1.4590
 6449TIP3    H243543   3.777   7.440   0.860 -2.7053  0.7837 -0.6764
 6450TIP3   OH243544   4.481   4.418   2.318  0.1247 -0.4705  0.2523
 6450TIP3    H143545   4.539   4.352   2.281 -1.1590  0.0589 -3.1244
 6450TIP3    H243546   4.539   4.476   2.368  2.2481 -0.9650 -1.4761
 6451TIP3   OH243547   7.023   5.147   2.798 -0.1336  0.0546 -0.0344
 6451TIP3    H143548   7.066   5.062   2.784 -0.5173 -0.0493 -0.6200
 6451TIP3    H243549   6.971   5.134   2.877 -1.0539 -0.6125 -0.7268
 6452TIP3   OH243550   6.651   7.508   1.341 -0.4127 -0.0790 -0.6354
 6452TIP3    H143551   6.675   7.535   1.253  0.4961  0.2482 -0.2989
 6452TIP3    H243552   6.652   7.412   1.338  3.9031 -0.2599  0.0420
 6453TIP3   OH243553   3.198   1.710   3.362  0.4047 -0.3054  0.4660
 6453TIP3    H143554   3.134   1.644   3.334  1.1720 -0.1541 -1.9158
 6453TIP3    H243555   3.279   1.685   3.317  1.6155  0.4203  2.1484
 6454TIP3   OH243556   0.105   2.798   2.077 -0.0025  0.5624 -0.5826
 6454TIP3    H143557   0.104   2.756   2.163 -0.1452  0.7883 -0.4746
 6454TIP3    H243558   0.021   2.774   2.038  0.4372 -0.3249 -1.0425
 6455TIP3   OH243559   0.114   1.065   1.144 -0.0062 -0.0674 -0.2136
 6455TIP3    H143560   0.045   1.125   1.175  1.0630  0.4573  1.2700
 6455TIP3    H243561   0.181   1.068   1.213  2.3567  0.8450 -2.3991
 6456TIP3   OH243562   4.238   0.124   2.676 -0.1104  0.4847  0.0959
 6456TIP3    H143563   4.288   0.171   2.609 -0.7921 -0.9053 -1.4762
 6456TIP3    H243564   4.250   0.175   2.755  0.0870  2.6721 -1.2550
 6457TIP3   OH243565   3.841   4.510   2.135 -0.3655  0.0950 -0.1944
 6457TIP3    H143566   3.777   4.443   2.110 -1.3817 -0.3353  3.0759
 6457TIP3    H243567   3.809   4.590   2.093 -0.8744 -0.8487 -1.6758
 6458TIP3   OH243568   6.050   5.200   1.686  0.1886 -0.3754 -0.5345
 6458TIP3    H143569   6.070   5.134   1.620 -0.2560  0.6954 -1.7819
 6458TIP3    H243570   5.985   5.257   1.644  1.4181  1.5460  0.0397
 6459TIP3   OH243571   1.425   5.900   1.516  1.1591 -0.0874 -0.3991
 6459TIP3    H143572   1.330   5.905   1.526  1.0990  2.5851 -1.4621
 6459TIP3    H243573   1.438   5.865   1.428  0.9099  3.6581 -2.1260
 6460TIP3   OH243574   6.121   2.535   0.619 -0.3854 -0.1378  0.1852
 6460TIP3    H143575   6.042   2.506   0.573 -1.1454  0.8427  0.8168
 6460TIP3    H243576   6.169   2.455   0.637  0.0348 -0.5568 -2.4397
 6461TIP3   OH243577   3.329   4.319   0.701  0.0228 -0.2913 -0.1979
 6461TIP3    H143578   3.387   4.243   0.713 -1.8810 -1.9048 -0.6989
 6461TIP3    H243579   3.314   4.323   0.607  1.1909  1.6239 -0.3459
 6462TIP3   OH243580   2.008   5.782   2.770  0.6099  0.0904 -0.3205
 6462TIP3    H143581   2.056   5.707   2.805  1.0677  0.3462 -0.3885
 6462TIP3    H243582   1.993   5.838   2.847 -0.6053 -0.5312 -0.0897
 6463TIP3   OH243583   2.732   4.182   1.810 -0.4214 -0.4407 -0.2571
 6463TIP3    H143584   2.640   4.186   1.838 -0.5357 -1.1341 -0.5226
 6463TIP3    H243585   2.772   4.259   1.851 -1.3311  0.4102 -0.9024
 6464TIP3   OH243586   0.658   7.478   0.695 -0.1657 -0.4287  0.3346
 6464TIP3    H143587   0.745   7.446   0.720  1.1678  1.9498 -0.8336
 6464TIP3    H243588   0.618   7.405   0.648  1.7312 -1.1862 -0.2069
 6465TIP3   OH243589   7.647   0.504   1.667 -0.3652 -0.4890 -0.4619
 6465TIP3    H143590   7.643   0.484   1.761  0.3921 -0.7725 -0.4868
 6465TIP3    H243591   7.678   0.423   1.627  0.1621 -0.0952 -0.8620
 6466TIP3   OH243592   2.628   2.759   1.869  0.2566  0.3198 -0.0919
 6466TIP3    H143593   2.618   2.796   1.781  1.6910  0.3877 -0.2462
 6466TIP3    H243594   2.711   2.793   1.900 -0.5024  0.7658  1.5510
 6467TIP3   OH243595   6.183   2.109   2.250  0.3726  0.7487 -0.3228
 6467TIP3    H143596   6.123   2.182   2.264 -0.3555  0.0781  0.1029
 6467TIP3    H243597   6.227   2.098   2.334  0.3846  0.5976 -0.3493
 6468TIP3   OH243598   5.592   6.542   1.367  0.0978  0.1997  0.3487
 6468TIP3    H143599   5.504   6.509   1.347  0.5172 -0.7835  0.0758
 6468TIP3    H243600   5.624   6.576   1.283  0.1452  0.1450  0.3445
 6469TIP3   OH243601   7.242   3.685   2.571 -0.2193 -0.3127 -0.0617
 6469TIP3    H143602   7.264   3.594   2.590 -0.3226 -0.6361 -1.4370
 6469TIP3    H243603   7.262   3.696   2.478  1.6270  1.6177  0.4779
 6470TIP3   OH243604   0.613   3.634   0.657 -0.5287 -0.0661  0.7530
 6470TIP3    H143605   0.590   3.669   0.571 -0.1041 -0.2153  0.5813
 6470TIP3    H243606   0.685   3.688   0.687 -0.1270 -0.5451  0.6568
 6471TIP3   OH243607   5.368   0.809   1.070 -0.0835 -0.0707 -0.0163
 6471TIP3    H143608   5.341   0.718   1.078 -0.1327  0.0148  0.9263
 6471TIP3    H243609   5.425   0.811   0.993  0.7663 -1.1089  0.5587
 6472TIP3   OH243610   7.212   4.539   1.153  0.7809  0.0204 -0.1657
 6472TIP3    H143611   7.232   4.446   1.145 -2.6454 -0.7939 -0.4668
 6472TIP3    H243612   7.177   4.549   1.242 -0.7818  0.5553 -0.8027
 6473TIP3   OH243613   3.585   3.823   2.242 -0.2001  0.0617  0.5663
 6473TIP3    H143614   3.678   3.802   2.250  0.0496  0.7110 -0.4055
 6473TIP3    H243615   3.547   3.799   2.327  1.1552  1.2743  1.5643
 6474TIP3   OH243616   4.642   3.612   1.592  0.0002 -0.2357  0.3937
 6474TIP3    H143617   4.566   3.669   1.608 -0.3812 -0.5976 -0.1052
 6474TIP3    H243618   4.606   3.534   1.551  0.4077 -1.2668  1.9233
 6475TIP3   OH243619   5.828   0.692   1.677 -0.5000  0.1035  0.9421
 6475TIP3    H143620   5.804   0.622   1.616  2.5681 -0.1025 -0.2011
 6475TIP3    H243621   5.924   0.695   1.674 -0.4153  2.9140  2.6115
 6476TIP3   OH243622   2.276   1.416   2.324 -0.2051  0.1359  1.2163
 6476TIP3    H143623   2.285   1.506   2.294  0.0059 -0.0215  0.8058
 6476TIP3    H243624   2.195   1.384   2.283  0.5829 -0.3822  0.0387
 6477TIP3   OH243625   6.258   4.672   1.497 -0.4780  0.5369 -0.0071
 6477TIP3    H143626   6.313   4.750   1.500 -2.6753  2.5766 -3.7786
 6477TIP3    H243627   6.281   4.629   1.414  0.6273 -2.9666  1.9298
 6478TIP3   OH243628   1.347   3.729   2.011  0.2469  0.8898 -0.0503
 6478TIP3    H143629   1.426   3.674   2.007 -1.0981 -1.2139  0.6097
 6478TIP3    H243630   1.325   3.732   2.104 -0.8507  0.8000 -0.2938
 6479TIP3   OH243631   2.101   3.822   3.391 -0.2429  0.7296  0.1049
 6479TIP3    H143632   2.070   3.908   3.419 -0.3569  0.5405  0.5583
 6479TIP3    H243633   2.190   3.815   3.427 -0.3273  0.5538  0.2786
 6480TIP3   OH243634   6.781   3.668   1.006 -0.1843  0.6711 -0.6023
 6480TIP3    H143635   6.742   3.599   0.953  0.5170  0.7843 -1.2709
 6480TIP3    H243636   6.874   3.648   1.009 -0.1981  0.7025  0.5466
 6481TIP3   OH243637   1.269   2.868   1.478  1.0704 -0.0297 -0.6832
 6481TIP3    H143638   1.284   2.774   1.466 -2.1570 -0.8881  0.9416
 6481TIP3    H243639   1.341   2.897   1.533  0.6373 -2.2423  1.1662
 6482TIP3   OH243640   0.241   0.541   1.838  0.4011 -0.2363 -0.0029
 6482TIP3    H143641   0.202   0.573   1.757 -0.4334 -0.8737  0.1331
 6482TIP3    H243642   0.289   0.461   1.813  0.2199 -0.3827  0.1120
 6483TIP3   OH243643   5.241   0.726   1.449 -0.6582 -0.6598  0.6983
 6483TIP3    H143644   5.304   0.756   1.513  0.2298 -0.5415 -0.2132
 6483TIP3    H243645   5.289   0.663   1.395 -1.4597 -0.9566  0.3085
 6484TIP3   OH243646   1.548   2.399   2.037 -0.1809  0.1825  0.0885
 6484TIP3    H143647   1.613   2.333   2.012 -0.6667 -0.0713 -0.5353
 6484TIP3    H243648   1.571   2.422   2.127 -0.4405 -1.3960  0.5873
 6485TIP3   OH243649   5.437   0.823   2.517  0.4635  0.2593  0.6687
 6485TIP3    H143650   5.382   0.782   2.584 -1.3892 -0.2301 -1.0560
 6485TIP3    H243651   5.453   0.753   2.453  1.2185  1.0015  0.0318
 6486TIP3   OH243652   7.232   4.152   1.247  0.3536 -0.0748 -0.0071
 6486TIP3    H143653   7.276   4.088   1.303 -0.5753 -0.2032  0.6074
 6486TIP3    H243654   7.285   4.231   1.253  0.4744 -0.2075  0.7686
 6487TIP3   OH243655   5.176   4.937   2.926 -0.5569  0.3375  1.0266
 6487TIP3    H143656   5.260   4.909   2.963  0.5018 -0.9795 -2.0512
 6487TIP3    H243657   5.188   5.029   2.906  1.1369 -0.3108 -1.4544
 6488TIP3   OH243658   7.584   4.526   0.575 -0.1012  0.5533  0.3510
 6488TIP3    H143659   7.644   4.484   0.637  0.4678  1.2108  0.2548
 6488TIP3    H243660   7.541   4.453   0.530  0.6814  0.0659  0.3757
 6489TIP3   OH243661   5.584   7.014   1.170 -0.3291  0.3779  0.1563
 6489TIP3    H143662   5.609   7.062   1.091 -0.7320  0.1907 -0.0900
 6489TIP3    H243663   5.644   7.046   1.237 -0.4253  1.0434 -0.0613
 6490TIP3   OH243664   6.605   0.360   2.676 -0.3737 -0.0247 -0.0722
 6490TIP3    H143665   6.514   0.331   2.669 -1.2635  2.8376 -1.9204
 6490TIP3    H243666   6.643   0.339   2.590  0.1690  0.4836  0.0423
 6491TIP3   OH243667   4.814   7.243   1.099  0.0336  0.0449  0.1112
 6491TIP3    H143668   4.724   7.259   1.073  0.2121 -0.7339 -1.0533
 6491TIP3    H243669   4.808   7.190   1.178 -0.5701 -1.4418 -0.8781
 6492TIP3   OH243670   5.775   1.370   3.386  0.6951 -0.4005 -0.3053
 6492TIP3    H143671   5.695   1.319   3.370  0.1175  0.1349  0.7145
 6492TIP3    H243672   5.831   1.351   3.312 -0.6708 -0.2460 -1.4269
 6493TIP3   OH243673   3.260   5.019   1.181 -0.1305  0.8121 -0.2272
 6493TIP3    H143674   3.322   4.984   1.245 -1.1018  0.3725  0.4944
 6493TIP3    H243675   3.304   5.096   1.145 -0.1682  2.0373  2.1469
 6494TIP3   OH243676   3.975   0.581   2.205  0.0372 -0.3529  0.0633
 6494TIP3    H143677   4.060   0.621   2.187 -1.1733  2.2303 -0.4238
 6494TIP3    H243678   3.978   0.559   2.298  1.0730  0.1204  0.1538
 6495TIP3   OH243679   5.337   5.789   2.360 -0.2763 -0.4844 -0.5690
 6495TIP3    H143680   5.353   5.816   2.451 -2.0581  1.1353 -0.6702
 6495TIP3    H243681   5.362   5.865   2.308 -1.3654 -0.5530 -1.2319
 6496TIP3   OH243682   1.193   4.111   2.171  0.3982  0.4368  0.0547
 6496TIP3    H143683   1.227   4.200   2.174 -1.2126  1.1334 -1.1908
 6496TIP3    H243684   1.238   4.071   2.097  0.5889  0.4225  0.1752
 6497TIP3   OH243685   1.915   5.125   1.829 -0.3477 -0.8300  0.2883
 6497TIP3    H143686   1.822   5.119   1.850 -0.3522  1.1662  1.0223
 6497TIP3    H243687   1.959   5.131   1.913  0.1999  0.8321 -0.0837
 6498TIP3   OH243688   0.093   3.892   0.792 -0.7807  0.3650  0.0360
 6498TIP3    H143689   0.160   3.928   0.734 -1.0557  0.5380 -0.1751
 6498TIP3    H243690   0.138   3.822   0.840 -0.5461  0.2338 -0.3724
 6499TIP3   OH243691   0.232   6.302   1.672  0.0713  0.2200 -0.2963
 6499TIP3    H143692   0.225   6.267   1.583 -0.9479  1.1635 -0.6159
 6499TIP3    H243693   0.221   6.397   1.661 -0.6186  0.2941  0.8996
 6500TIP3   OH243694   4.826   1.146   2.379 -0.1984 -0.5221 -0.0633
 6500TIP3    H143695   4.734   1.163   2.400 -0.0591 -0.2758  0.3662
 6500TIP3    H243696   4.863   1.113   2.461  0.4815  0.9611  0.2696
 6501TIP3   OH243697   4.104   5.540   0.377 -0.6728  0.5522  0.5488
 6501TIP3    H143698   4.124   5.618   0.325 -1.7554 -0.5988 -1.7619
 6501TIP3    H243699   4.008   5.538   0.381 -0.7276 -1.2207 -0.4780
 6502TIP3   OH243700   6.065   3.057   2.059 -0.3192  0.4010  0.4490
 6502TIP3    H143701   6.119   2.978   2.057  0.3375  0.7920  1.5865
 6502TIP3    H243702   6.127   3.128   2.041 -1.2494  0.5655 -2.6980
 6503TIP3   OH243703   1.735   0.491   0.844 -0.4119  0.4085  0.1961
 6503TIP3    H143704   1.778   0.417   0.887 -0.6509  0.9135  1.3525
 6503TIP3    H243705   1.792   0.513   0.770  0.2811 -0.1721  0.5477
 6504TIP3   OH243706   2.887   3.851   1.554 -0.2825 -0.1357 -0.6354
 6504TIP3    H143707   2.820   3.865   1.488  0.8629  1.4867 -1.5279
 6504TIP3    H243708   2.970   3.857   1.507  0.5474 -1.9815  0.4494
 6505TIP3   OH243709   0.885   5.435   2.598 -0.3116  0.5622  0.3212
 6505TIP3    H143710   0.937   5.367   2.642  3.4836  1.2250 -2.6274
 6505TIP3    H243711   0.924   5.517   2.629 -0.2229  1.1215 -1.1970
 6506TIP3   OH243712   4.705   5.061   1.569  0.6728 -0.6250  0.4994
 6506TIP3    H143713   4.639   5.128   1.582 -0.7092 -1.9335  0.5782
 6506TIP3    H243714   4.710   5.049   1.474 -0.6163 -1.8234  0.5574
 6507TIP3   OH243715   2.615   7.669   1.476 -0.1035  0.5510  0.6968
 6507TIP3    H143716   2.527   7.696   1.450 -0.2035  0.3840  0.8524
 6507TIP3    H243717   2.618   7.684   1.570 -0.6980 -1.3727  1.0696
 6508TIP3   OH243718   6.963   1.910   2.256  0.2297 -0.2813 -0.0578
 6508TIP3    H143719   6.961   1.915   2.160 -1.3687  0.7442 -0.0086
 6508TIP3    H243720   6.872   1.895   2.281  0.8576 -2.2698  1.2683
 6509TIP3   OH243721   4.701   0.946   1.926 -0.2974 -0.1608 -0.6553
 6509TIP3    H143722   4.773   0.982   1.978  0.9005 -1.9628 -0.9731
 6509TIP3    H243723   4.730   0.953   1.836 -1.7363  1.5769 -1.0407
 6510TIP3   OH243724   2.043   2.758   1.485  0.4351  0.0366 -0.1656
 6510TIP3    H143725   2.044   2.726   1.395 -1.2166  0.8405 -0.5124
 6510TIP3    H243726   2.048   2.854   1.476 -0.0678  0.1342  0.5771
 6511TIP3   OH243727   5.893   5.410   1.952 -1.0804  0.4469 -0.0427
 6511TIP3    H143728   5.955   5.342   1.979 -0.8496  0.9981  0.8365
 6511TIP3    H243729   5.880   5.394   1.859  1.9026  1.5127 -0.7380
 6512TIP3   OH243730   3.049   2.468   2.587  0.2363  0.0676 -0.0750
 6512TIP3    H143731   2.978   2.501   2.531 -0.8922 -0.7695  0.8179
 6512TIP3    H243732   3.060   2.377   2.560  1.3998  0.3379 -0.5933
 6513TIP3   OH243733   4.773   4.732   1.593 -0.1695 -0.5588  0.3984
 6513TIP3    H143734   4.775   4.684   1.677  0.7996 -0.2872  0.5396
 6513TIP3    H243735   4.842   4.797   1.601  0.8335 -1.3843 -1.1188
 6514TIP3   OH243736   2.955   2.927   1.679  0.3754 -0.5418  0.0600
 6514TIP3    H143737   2.987   2.921   1.769 -0.3183 -0.0864  0.3365
 6514TIP3    H243738   3.019   2.983   1.634  0.2226 -0.0152  0.4952
 6515TIP3   OH243739   0.233   5.780   0.494  0.0414  0.7761 -0.6807
 6515TIP3    H143740   0.262   5.871   0.497 -0.5876  1.0644 -2.2147
 6515TIP3    H243741   0.146   5.781   0.534  0.3515  0.7136 -0.0106
 6516TIP3   OH243742   2.179   6.879   1.385  0.3831  0.2002 -0.6434
 6516TIP3    H143743   2.127   6.876   1.466  1.8920  1.1491  0.4149
 6516TIP3    H243744   2.115   6.865   1.315 -1.3700  1.6822  0.5565
 6517TIP3   OH243745   5.553   3.458   0.663 -1.0111 -0.0848  0.4086
 6517TIP3    H143746   5.603   3.477   0.743  1.1591  1.0513 -1.1213
 6517TIP3    H243747   5.528   3.366   0.673  2.4576 -1.1516  0.8295
 6518TIP3   OH243748   7.342   3.196   1.229 -0.2824  0.1221  0.3289
 6518TIP3    H143749   7.354   3.163   1.318 -2.0752  0.9338  0.9168
 6518TIP3    H243750   7.357   3.290   1.235 -2.2321  0.4954  0.2358
 6519TIP3   OH243751   3.695   4.989   1.964  0.5754  0.1201 -0.0225
 6519TIP3    H143752   3.665   5.047   1.894  0.0881  1.1376  0.9959
 6519TIP3    H243753   3.628   4.996   2.031  0.3704 -1.8386  0.0489
 6520TIP3   OH243754   4.756   4.105   2.510 -0.1204  0.7151  0.1087
 6520TIP3    H143755   4.818   4.149   2.567  0.3457  1.9916 -1.2982
 6520TIP3    H243756   4.729   4.027   2.558  1.6918  0.7340  1.2391
 6521TIP3   OH243757   3.787   4.721   1.953 -0.1078 -0.4424 -0.2964
 6521TIP3    H143758   3.758   4.806   1.988  1.4074 -0.3751  0.9144
 6521TIP3    H243759   3.831   4.744   1.871  2.8133  0.4147  1.3494
 6522TIP3   OH243760   2.698   0.489   0.892 -0.0699  0.1170 -0.0669
 6522TIP3    H143761   2.652   0.563   0.854 -0.9151  0.0608  0.8147
 6522TIP3    H243762   2.736   0.443   0.817 -1.8351 -0.1024 -0.8688
 6523TIP3   OH243763   5.084   2.263   3.261 -0.1901 -0.1380  0.1173
 6523TIP3    H143764   5.158   2.222   3.305  0.2705  1.8396  1.3438
 6523TIP3    H243765   5.013   2.199   3.267  1.4172 -2.1637 -1.2819
 6524TIP3   OH243766   5.978   5.689   1.385  0.3651  0.0157  0.8426
 6524TIP3    H143767   5.934   5.666   1.303  0.5087 -0.6295  0.9493
 6524TIP3    H243768   5.936   5.771   1.411 -0.3433 -0.2669  0.6163
 6525TIP3   OH243769   6.820   5.924   2.022  0.0407 -0.5139 -0.2574
 6525TIP3    H143770   6.830   5.974   1.941 -3.2687 -0.0546 -0.5298
 6525TIP3    H243771   6.796   5.989   2.088 -1.9443 -1.3681 -0.0652
 6526TIP3   OH243772   0.731   0.818   2.284  0.5584  0.3791 -0.6622
 6526TIP3    H143773   0.804   0.804   2.343  1.0004 -0.8945 -1.4699
 6526TIP3    H243774   0.697   0.905   2.307  0.5008 -0.1947  1.6595
 6527TIP3   OH243775   4.909   3.538   1.095  0.5087  0.3309 -0.3001
 6527TIP3    H143776   4.951   3.506   1.015  2.1676  2.9722 -0.5929
 6527TIP3    H243777   4.934   3.474   1.162  1.4235 -0.4410 -1.3327
 6528TIP3   OH243778   6.158   4.662   2.822  0.7492  0.0671  0.0108
 6528TIP3    H143779   6.099   4.622   2.886  0.6768 -0.7738 -0.5557
 6528TIP3    H243780   6.121   4.637   2.737  1.8635 -0.4283 -0.3522
 6529TIP3   OH243781   1.278   0.386   1.926  0.3648 -0.7193 -0.2111
 6529TIP3    H143782   1.321   0.349   2.003  0.0592 -0.6123  0.0096
 6529TIP3    H243783   1.186   0.391   1.949  0.1945 -1.1391 -0.7594
 6530TIP3   OH243784   4.927   6.073   1.205  0.3704  0.0679 -0.3904
 6530TIP3    H143785   5.012   6.108   1.178  0.4623  0.8044  0.7912
 6530TIP3    H243786   4.866   6.145   1.193  0.1568 -0.0466 -0.0258
 6531TIP3   OH243787   7.444   0.456   1.455 -0.0837 -0.0588  0.0855
 6531TIP3    H143788   7.405   0.462   1.368 -2.6369  0.7738  1.1976
 6531TIP3    H243789   7.539   0.455   1.439 -0.4798 -0.4050 -2.6875
 6532TIP3   OH243790   4.087   4.753   1.170 -0.0723 -0.0805  0.7521
 6532TIP3    H143791   4.061   4.789   1.086  2.0439  1.5731  0.7005
 6532TIP3    H243792   4.175   4.717   1.155  0.2371  0.0028  2.1553
 6533TIP3   OH243793   6.055   5.246   2.134 -0.4729 -0.4890 -0.6661
 6533TIP3    H143794   6.138   5.203   2.112 -0.5921  0.0751 -2.3604
 6533TIP3    H243795   6.080   5.323   2.184 -0.0956 -1.1422  0.1807
 6534TIP3   OH243796   1.364   0.757   3.634  0.8151 -0.2382  0.2949
 6534TIP3    H143797   1.438   0.817   3.636  0.5777  0.0861 -0.4442
 6534TIP3    H243798   1.404   0.670   3.634  1.1891 -0.0683  0.0535
 6535TIP3   OH243799   5.524   2.589   0.885  0.2328 -0.4999  0.0220
 6535TIP3    H143800   5.603   2.630   0.920  0.2978 -2.0015  1.8014
 6535TIP3    H243801   5.521   2.503   0.927 -3.2083  0.0913  1.3462
 6536TIP3   OH243802   4.123   1.345   2.570  0.1849 -0.5020  0.3133
 6536TIP3    H143803   4.143   1.413   2.634 -0.7609  1.0612 -0.9750
 6536TIP3    H243804   4.029   1.355   2.552  0.4792 -0.6851 -1.5245
 6537TIP3   OH243805   5.663   2.660   3.472 -0.3406  0.0840  0.0382
 6537TIP3    H143806   5.718   2.595   3.430 -0.0885 -0.3622  1.0167
 6537TIP3    H243807   5.627   2.615   3.549 -0.3021  1.0323  0.6368
 6538TIP3   OH243808   3.383   6.900   1.409  0.5104  0.3558  0.4904
 6538TIP3    H143809   3.346   6.927   1.326 -0.5531 -0.2691  0.7372
 6538TIP3    H243810   3.307   6.877   1.463  1.2674 -1.8798  0.7033
 6539TIP3   OH243811   3.899   5.500   1.698 -0.1414 -0.1861 -0.0106
 6539TIP3    H143812   3.829   5.496   1.633  0.3555 -0.9814 -0.5271
 6539TIP3    H243813   3.888   5.421   1.750  1.6594 -1.5539 -1.5207
 6540TIP3   OH243814   2.867   0.895   1.160 -0.2376  0.2525  0.1495
 6540TIP3    H143815   2.910   0.846   1.091 -0.4395  0.6509 -0.2628
 6540TIP3    H243816   2.929   0.966   1.181 -0.5026  0.5800 -0.1559
 6541TIP3   OH243817   3.451   4.982   0.916  0.3270  0.1729  0.1710
 6541TIP3    H143818   3.454   4.948   0.827 -0.7813  1.3059 -0.3309
 6541TIP3    H243819   3.385   4.928   0.960 -0.3964  0.7135 -0.2184
 6542TIP3   OH243820   3.220   5.038   2.226  0.0823  0.7727  0.0514
 6542TIP3    H143821   3.291   5.013   2.166  1.2708 -0.3405  1.8266
 6542TIP3    H243822   3.183   4.955   2.256 -0.9498  1.3207  0.3343
 6543TIP3   OH243823   3.524   5.773   1.427  0.0596 -0.2657 -0.2445
 6543TIP3    H143824   3.520   5.680   1.452 -1.2241 -0.3180 -0.5482
 6543TIP3    H243825   3.479   5.777   1.343 -1.7656  0.9145  0.7131
 6544TIP3   OH243826   6.675   1.869   0.602 -0.2716  0.1793 -0.2541
 6544TIP3    H143827   6.726   1.788   0.603 -1.2540 -0.4857 -1.4806
 6544TIP3    H243828   6.736   1.936   0.573  0.5456 -0.1207  0.7387
 6545TIP3   OH243829   2.726   3.448   1.038 -0.7207  0.2736 -0.1976
 6545TIP3    H143830   2.711   3.369   0.987  0.4118  0.4504 -0.8563
 6545TIP3    H243831   2.729   3.419   1.128  1.8104 -0.8410 -0.5605
 6546TIP3   OH243832   3.302   3.947   0.617 -0.0538 -0.3442  0.2264
 6546TIP3    H143833   3.302   3.853   0.637 -0.9624 -0.6460 -1.0269
 6546TIP3    H243834   3.214   3.976   0.639 -0.5999 -0.3679 -1.7409
 6547TIP3   OH243835   7.607   3.979   1.871 -0.2541  0.0544 -0.8202
 6547TIP3    H143836   7.559   3.899   1.893 -0.1051 -0.3049 -1.7941
 6547TIP3    H243837   7.561   4.015   1.795  0.3158  0.3411 -1.0342
 6548TIP3   OH243838   1.187   0.775   3.394  0.4496  0.7161 -0.0099
 6548TIP3    H143839   1.241   0.772   3.474 -0.7111 -0.7638  0.7633
 6548TIP3    H243840   1.098   0.759   3.425  0.1832 -1.6884 -1.7584
 6549TIP3   OH243841   6.598   1.107   0.925 -0.0258 -0.1583  0.4110
 6549TIP3    H143842   6.671   1.095   0.865 -0.7184  3.3424 -1.3961
 6549TIP3    H243843   6.639   1.141   1.005  0.5499 -0.8841  0.4333
 6550TIP3   OH243844   6.307   0.265   2.479  0.0890 -0.2121  0.0500
 6550TIP3    H143845   6.319   0.211   2.400 -1.4321  0.6358 -0.8069
 6550TIP3    H243846   6.330   0.354   2.451  1.1461 -0.1509  1.0425
 6551TIP3   OH243847   1.869   3.264   3.153 -0.2531  0.0440 -0.2042
 6551TIP3    H143848   1.837   3.190   3.102  0.0801 -0.6011  0.5041
 6551TIP3    H243849   1.852   3.240   3.244  1.3290  0.1017  0.1420
 6552TIP3   OH243850   6.536   1.579   2.055  0.8149 -0.4102 -0.2042
 6552TIP3    H143851   6.602   1.600   2.121  1.4341  0.1558 -0.9869
 6552TIP3    H243852   6.556   1.637   1.981 -0.7971  0.0421 -0.3202
 6553TIP3   OH243853   1.846   1.195   2.298  0.3196 -0.1506 -0.1305
 6553TIP3    H143854   1.797   1.193   2.380  1.3077 -0.5175  0.4698
 6553TIP3    H243855   1.790   1.243   2.237 -1.0799 -1.1711  0.3268
 6554TIP3   OH243856   2.239   1.704   1.387 -0.3830 -0.4528  0.4065
 6554TIP3    H143857   2.270   1.616   1.364 -1.1298 -0.8029  0.7260
 6554TIP3    H243858   2.287   1.762   1.328 -1.0488 -1.2037 -0.9309
 6555TIP3   OH243859   1.720   6.957   2.217 -0.2192  0.6659 -0.6463
 6555TIP3    H143860   1.652   6.941   2.283  1.1453  1.7483  1.1230
 6555TIP3    H243861   1.786   6.891   2.234  1.3246  2.4763  0.8558
 6556TIP3   OH243862   2.457   4.186   1.889 -0.0486 -0.8992 -0.6534
 6556TIP3    H143863   2.444   4.240   1.967  0.5046 -1.9726  0.2135
 6556TIP3    H243864   2.419   4.237   1.818 -1.2564 -0.2065  0.4342
 6557TIP3   OH243865   2.489   0.672   0.782  0.0054 -1.1285  0.0144
 6557TIP3    H143866   2.405   0.672   0.738  0.2456 -1.4793 -0.4545
 6557TIP3    H243867   2.510   0.764   0.795 -1.1274 -1.0444  1.4695
 6558TIP3   OH243868   7.224   1.641   1.013  0.0666  0.3655  0.6657
 6558TIP3    H143869   7.135   1.672   1.026  0.5502  1.7757  0.6987
 6558TIP3    H243870   7.246   1.668   0.924  0.2382 -0.5562  0.4181
 6559TIP3   OH243871   4.831   2.978   2.225  0.0938 -0.3311 -0.8143
 6559TIP3    H143872   4.876   2.929   2.294 -1.0234 -0.9307 -0.4951
 6559TIP3    H243873   4.838   3.070   2.253  5.2330  0.3362 -3.0863
 6560TIP3   OH243874   3.634   3.323   0.630 -0.3691  0.9966  0.3785
 6560TIP3    H143875   3.643   3.394   0.693  0.7471  1.0212  0.2187
 6560TIP3    H243876   3.688   3.253   0.665 -2.0039 -0.0655  0.8969
 6561TIP3   OH243877   3.614   5.205   0.851  0.4007  0.8788 -0.4336
 6561TIP3    H143878   3.610   5.215   0.755  0.5511  0.6776 -0.4617
 6561TIP3    H243879   3.534   5.159   0.874  1.0996 -0.4908 -0.6498
 6562TIP3   OH243880   0.995   2.785   1.477 -0.4018  0.4896  0.2303
 6562TIP3    H143881   0.936   2.815   1.546  0.3797  0.7454  0.8012
 6562TIP3    H243882   1.078   2.829   1.495  0.4228 -1.0409  0.3603
 6563TIP3   OH243883   1.303   3.980   1.949  0.1189 -0.8359 -0.1346
 6563TIP3    H143884   1.288   3.886   1.942  0.2055 -0.7638 -1.6205
 6563TIP3    H243885   1.230   4.019   1.902  1.0859 -0.2438 -1.1919
 6564TIP3   OH243886   0.357   2.063   1.480  0.6294 -0.1332  0.0684
 6564TIP3    H143887   0.338   2.092   1.570  0.0192  1.3221 -0.4887
 6564TIP3    H243888   0.345   1.969   1.482 -1.7534  0.1257  0.9726
 6565TIP3   OH243889   1.409   2.826   2.411 -0.1868 -0.2379 -0.8627
 6565TIP3    H143890   1.498   2.814   2.377 -1.4655 -2.0844 -4.0264
 6565TIP3    H243891   1.381   2.739   2.438 -0.2406  0.7341  2.7054
 6566TIP3   OH243892   7.633   6.862   0.677  0.5583 -0.0047 -0.2877
 6566TIP3    H143893   7.545   6.866   0.638  0.9397 -1.0910 -1.2969
 6566TIP3    H243894   7.637   6.775   0.718  1.5495 -0.4219 -1.2306
 6567TIP3   OH243895   4.598   2.755   1.524  0.0937  0.2083 -0.5586
 6567TIP3    H143896   4.575   2.672   1.567  0.0436  0.0586 -0.8696
 6567TIP3    H243897   4.688   2.772   1.552  0.2264 -0.1330 -0.7657
 6568TIP3   OH243898   3.934   0.787   3.200 -0.0715 -0.0747 -0.0051
 6568TIP3    H143899   3.849   0.808   3.159 -1.2286  0.1027  2.3003
 6568TIP3    H243900   3.920   0.703   3.242  1.2969 -0.5837 -0.5172
 6569TIP3   OH243901   6.829   3.859   1.868  0.0196 -0.3290  0.0435
 6569TIP3    H143902   6.752   3.916   1.872  0.4711  0.4779 -1.5896
 6569TIP3    H243903   6.811   3.789   1.931 -2.1425 -0.2860 -0.4420
 6570TIP3   OH243904   5.180   4.826   0.532  0.6707  0.2006  0.0215
 6570TIP3    H143905   5.228   4.744   0.542 -0.2373 -0.3513 -0.0145
 6570TIP3    H243906   5.248   4.894   0.530  1.3963 -0.4699  0.8765
 6571TIP3   OH243907   4.515   0.592   0.964 -0.1540  0.2551  0.0728
 6571TIP3    H143908   4.579   0.522   0.955 -0.4149  0.0403 -0.1494
 6571TIP3    H243909   4.523   0.643   0.883  0.0871  0.5258  0.2663
 6572TIP3   OH243910   4.070   5.338   2.323 -0.2136  0.2526  0.3381
 6572TIP3    H143911   4.081   5.429   2.294  1.0024 -0.3918 -1.3919
 6572TIP3    H243912   4.159   5.306   2.336 -0.5271 -1.2360 -0.9169
 6573TIP3   OH243913   5.864   6.794   1.130 -0.1542  0.5236  0.1158
 6573TIP3    H143914   5.887   6.864   1.190  2.2537 -0.2743  0.2570
 6573TIP3    H243915   5.934   6.795   1.065 -2.6208  1.3322 -2.7672
 6574TIP3   OH243916   2.254   3.390   1.708  0.0641 -0.1671 -0.3768
 6574TIP3    H143917   2.274   3.361   1.797 -3.0919  0.6499  0.7049
 6574TIP3    H243918   2.328   3.447   1.685  1.5870 -1.3914  1.1474
 6575TIP3   OH243919   6.435   6.215   2.964  0.1143  0.9835  0.1982
 6575TIP3    H143920   6.484   6.197   3.045  3.1813  1.1293 -1.4546
 6575TIP3    H243921   6.370   6.145   2.959  1.2584 -0.2741  1.7630
 6576TIP3   OH243922   2.325   1.754   0.606 -0.1435 -0.2512 -0.1124
 6576TIP3    H143923   2.331   1.681   0.668 -0.1436 -1.0707 -1.0551
 6576TIP3    H243924   2.231   1.764   0.588 -0.1197 -0.2112 -0.2174
 6577TIP3   OH243925   2.990   0.101   2.020  0.6066  0.9041 -0.5285
 6577TIP3    H143926   3.051   0.174   2.010 -0.2192  1.4764 -1.4778
 6577TIP3    H243927   2.918   0.121   1.961 -0.9057  0.6260  1.1479
 6578TIP3   OH243928   4.241   5.908   2.216  0.5737 -0.5877  0.2834
 6578TIP3    H143929   4.283   5.913   2.130  2.6948 -0.4973  1.2632
 6578TIP3    H243930   4.223   5.814   2.228  1.2413 -0.7383  0.1646
 6579TIP3   OH243931   2.834   0.318   3.099 -0.3047 -0.0754 -0.3499
 6579TIP3    H143932   2.889   0.394   3.079 -0.7184 -0.1255 -1.7809
 6579TIP3    H243933   2.746   0.355   3.110 -0.2705 -0.1891  0.3460
 6580TIP3   OH243934   3.705   5.476   1.476 -0.0819 -0.2533 -0.1786
 6580TIP3    H143935   3.647   5.410   1.438 -0.4174 -0.4845  0.7238
 6580TIP3    H243936   3.774   5.487   1.410  0.3212 -1.9564 -0.0950
 6581TIP3   OH243937   4.286   2.309   1.295  0.0963 -0.3511 -0.6661
 6581TIP3    H143938   4.357   2.267   1.344 -0.5111  0.6413  1.1947
 6581TIP3    H243939   4.317   2.398   1.277  0.1693 -0.5974 -1.8139
 6582TIP3   OH243940   2.694   5.191   3.018  0.3935 -0.1384  0.2014
 6582TIP3    H143941   2.719   5.267   2.966 -3.9757  1.0053 -0.5769
 6582TIP3    H243942   2.698   5.221   3.109 -1.4296  1.1747 -0.1075
 6583TIP3   OH243943   4.422   4.267   0.875  0.2552  0.6632  0.8393
 6583TIP3    H143944   4.517   4.260   0.862  0.3813 -0.3798  2.1227
 6583TIP3    H243945   4.385   4.256   0.788  1.2840  0.3109  0.4286
 6584TIP3   OH243946   6.070   0.471   1.758 -0.2635  0.2718 -0.1729
 6584TIP3    H143947   6.047   0.444   1.669 -0.9092  0.9042 -0.2001
 6584TIP3    H243948   6.166   0.467   1.759 -0.2880 -0.9247 -0.5114
 6585TIP3   OH243949   5.682   6.549   1.637  0.0260  0.3368 -0.1651
 6585TIP3    H143950   5.658   6.531   1.546 -1.3752 -0.7176  0.3776
 6585TIP3    H243951   5.743   6.623   1.632 -1.1064  1.2149 -1.8673
 6586TIP3   OH243952   6.245   5.799   2.206 -0.4876 -0.4876 -0.0529
 6586TIP3    H143953   6.173   5.810   2.144  0.2628  1.3145 -0.6546
 6586TIP3    H243954   6.227   5.715   2.248 -1.8241 -1.0547 -1.6424
 6587TIP3   OH243955   1.876   6.049   2.267 -0.4393  0.1254  0.0996
 6587TIP3    H143956   1.802   6.024   2.212 -1.5103 -0.1941  1.6274
 6587TIP3    H243957   1.848   6.130   2.310  1.1446  1.4364 -1.2267
 6588TIP3   OH243958   6.706   6.282   1.476 -0.3657 -0.1290 -0.7072
 6588TIP3    H143959   6.612   6.279   1.460 -0.3160  0.0894 -1.0672
 6588TIP3    H243960   6.731   6.192   1.495 -0.5677 -0.2692 -1.0947
 6589TIP3   OH243961   4.072   4.417   1.953  0.1654  0.5939 -0.2756
 6589TIP3    H143962   4.132   4.436   2.025  0.4611 -0.2687 -0.2739
 6589TIP3    H243963   4.028   4.500   1.936  0.1443  0.8332  0.8459
 6590TIP3   OH243964   4.509   5.488   0.681 -0.1085 -0.0379  0.0918
 6590TIP3    H143965   4.546   5.441   0.607 -1.2418  1.2682 -1.3654
 6590TIP3    H243966   4.436   5.433   0.710 -1.1293  0.5496 -1.2912
 6591TIP3   OH243967   6.765   3.980   3.253 -0.2611  0.2790 -0.0141
 6591TIP3    H143968   6.848   3.946   3.221 -0.0430 -0.1204  0.9332
 6591TIP3    H243969   6.702   3.909   3.238 -0.6193  0.8813 -1.4715
 6592TIP3   OH243970   5.919   1.403   1.277 -0.4735 -0.1165  0.6178
 6592TIP3    H143971   5.887   1.395   1.188 -1.5396  1.2946  0.8406
 6592TIP3    H243972   5.850   1.365   1.331  0.0693 -0.7669  0.8713
 6593TIP3   OH243973   6.565   4.979   2.707  0.5155  0.3665 -0.2586
 6593TIP3    H143974   6.617   5.033   2.648 -0.8590  1.3777 -0.5800
 6593TIP3    H243975   6.489   4.952   2.656  1.3708 -2.3744 -0.2910
 6594TIP3   OH243976   0.475   3.740   2.179 -0.6753  0.4362  0.0274
 6594TIP3    H143977   0.399   3.697   2.218 -0.7669  1.3752  0.9086
 6594TIP3    H243978   0.545   3.731   2.244 -0.2710  0.3349 -0.4114
 6595TIP3   OH243979   5.605   7.232   3.085 -0.2647 -0.1449  0.2057
 6595TIP3    H143980   5.521   7.272   3.062 -1.6033 -0.7794  3.4540
 6595TIP3    H243981   5.655   7.303   3.127  0.1761 -0.1761 -0.2574
 6596TIP3   OH243982   4.318   3.286   0.553 -0.0500 -0.3960  0.3679
 6596TIP3    H143983   4.337   3.374   0.521 -0.5756 -0.6959 -0.8144
 6596TIP3    H243984   4.279   3.300   0.639 -0.0071  0.5169  0.2534
 6597TIP3   OH243985   3.856   4.167   1.432 -0.1837  0.2389  0.2934
 6597TIP3    H143986   3.807   4.225   1.373  0.3523 -0.0453 -0.4573
 6597TIP3    H243987   3.843   4.204   1.519 -0.1410  1.2804 -0.1289
 6598TIP3   OH243988   5.039   2.173   1.155  0.0749 -0.0209 -0.0666
 6598TIP3    H143989   5.033   2.085   1.191  0.4175 -0.1791 -0.3819
 6598TIP3    H243990   5.082   2.225   1.224 -0.2221 -0.0730  0.1592
 6599TIP3   OH243991   3.030   3.703   1.801  0.5185  0.1548  0.7106
 6599TIP3    H143992   2.938   3.689   1.824 -0.5737  2.3629 -1.8040
 6599TIP3    H243993   3.036   3.676   1.709  2.7551 -1.1139  1.1520
 6600TIP3   OH243994   0.866   5.290   1.648  0.3281  0.2381 -0.6572
 6600TIP3    H143995   0.922   5.213   1.656  0.4548  0.4836  1.3080
 6600TIP3    H243996   0.907   5.355   1.705 -1.5417  0.6519  0.2871
 6601TIP3   OH243997   2.378   4.577   1.359  0.3416  0.5015 -0.3005
 6601TIP3    H143998   2.338   4.568   1.273 -0.6375 -0.5116  0.2339
 6601TIP3    H243999   2.472   4.581   1.341  0.0801  2.5881 -1.5520
 6602TIP3   OH244000   4.025   3.457   3.174  0.4800 -0.1898  0.7157
 6602TIP3    H144001   4.035   3.401   3.251  0.8992 -0.7952  0.2385
 6602TIP3    H244002   4.110   3.500   3.165  0.4365 -0.1296  0.5888
 6603TIP3   OH244003   3.109   7.157   1.183  0.1872 -0.0655  0.3002
 6603TIP3    H144004   3.159   7.196   1.111  2.0055 -0.6002  1.2050
 6603TIP3    H244005   3.140   7.202   1.261 -0.5377 -0.6378  0.9383
 6604TIP3   OH244006   2.098   5.677   0.655 -0.0180 -0.0458 -0.4740
 6604TIP3    H144007   2.128   5.669   0.746  0.2899  1.1623 -0.4519
 6604TIP3    H244008   2.171   5.644   0.603  0.2613  0.3224 -0.3195
 6605TIP3   OH244009   0.879   4.954   2.624  0.3305  0.2081 -0.5852
 6605TIP3    H144010   0.939   4.933   2.552  0.1554 -0.6382 -0.4849
 6605TIP3    H244011   0.894   4.886   2.689  1.2792  1.5561  0.6875
 6606TIP3   OH244012   6.315   3.878   1.784 -0.1636 -0.1046  0.5707
 6606TIP3    H144013   6.394   3.888   1.730  0.1086  0.0873  0.9908
 6606TIP3    H244014   6.347   3.837   1.865 -0.1398  1.6866  1.5332
 6607TIP3   OH244015   6.856   5.808   1.076 -0.4715 -0.3132  0.3578
 6607TIP3    H144016   6.815   5.872   1.135  1.4831  0.8260  0.5809
 6607TIP3    H244017   6.819   5.724   1.101 -1.0857  0.3998  1.9473
 6608TIP3   OH244018   7.080   6.100   1.492  0.6155  0.2856  0.0343
 6608TIP3    H144019   6.992   6.127   1.464  0.9611  0.3248 -1.0701
 6608TIP3    H244020   7.098   6.020   1.441  2.1813  1.6332 -1.6751
 6609TIP3   OH244021   5.781   3.231   1.444  0.0551 -0.7075  0.3805
 6609TIP3    H144022   5.708   3.171   1.461 -0.6325 -0.3579 -1.1537
 6609TIP3    H244023   5.812   3.206   1.357  1.3243 -0.3829  0.7182
 6610TIP3   OH244024   6.002   6.833   6.556  0.9620  0.0840 -0.0287
 6610TIP3    H144025   6.077   6.810   6.611  0.6430 -1.5579 -0.2268
 6610TIP3    H244026   5.933   6.773   6.584  0.5922 -0.3363 -1.7423
 6611TIP3   OH244027   6.855   0.201   0.530  0.2414 -0.5217  0.4353
 6611TIP3    H144028   6.898   0.284   0.510 -1.4491 -0.1159 -2.0328
 6611TIP3    H244029   6.924   0.146   0.568  1.1527  2.2961  3.2846
 6612TIP3   OH244030   5.966   2.048   0.956 -0.2974  0.3436 -0.0416
 6612TIP3    H144031   6.049   2.091   0.976  0.1356  0.3505 -1.7168
 6612TIP3    H244032   5.985   1.955   0.961  0.0852  0.3397 -1.4248
 6613TIP3   OH244033   7.026   6.209   1.945 -0.0827 -0.1572 -0.4581
 6613TIP3    H144034   7.074   6.135   1.909  0.1947 -0.4650  0.5060
 6613TIP3    H244035   6.951   6.170   1.989 -0.3027  0.1867 -0.5257
 6614TIP3   OH244036   5.151   5.966   2.054  0.1482 -0.0580  0.1763
 6614TIP3    H144037   5.128   5.893   1.996 -0.6293 -0.2807  0.7635
 6614TIP3    H244038   5.110   6.043   2.014  1.8004  0.2715 -1.0021
 6615TIP3   OH244039   5.509   6.013   1.561 -0.1720  0.3200  0.6574
 6615TIP3    H144040   5.550   6.028   1.476  0.1695  0.1277  0.7890
 6615TIP3    H244041   5.415   6.016   1.543 -0.1885 -2.6899 -0.2883
 6616TIP3   OH244042   2.471   0.905   0.405  0.0928  0.3959 -0.3008
 6616TIP3    H144043   2.388   0.890   0.451 -0.3402 -0.4336 -1.3059
 6616TIP3    H244044   2.494   0.996   0.426 -0.7035  0.4080  0.5657
 6617TIP3   OH244045   3.602   1.559   2.064 -0.0027  0.3709  0.0524
 6617TIP3    H144046   3.566   1.521   1.984 -1.2964 -0.4392  0.9620
 6617TIP3    H244047   3.548   1.636   2.081  1.8018  1.9808 -1.0967
 6618TIP3   OH244048   5.299   4.670   0.845  0.2180  0.1322  1.0626
 6618TIP3    H144049   5.362   4.742   0.849  3.3927 -2.3667  0.1949
 6618TIP3    H244050   5.299   4.643   0.754 -1.9100 -0.2428  1.1167
 6619TIP3   OH244051   3.792   6.142   2.458 -0.1117  0.5257  0.5169
 6619TIP3    H144052   3.829   6.149   2.370 -1.8348  1.1504 -0.2161
 6619TIP3    H244053   3.817   6.223   2.501  0.6232  0.2793  0.5589
 6620TIP3   OH244054   2.664   1.481   1.087  0.6319 -0.4348 -0.8661
 6620TIP3    H144055   2.646   1.396   1.126  3.1996 -1.4225 -1.6515
 6620TIP3    H244056   2.725   1.463   1.016  2.0154  2.1600 -0.4661
 6621TIP3   OH244057   7.209   2.537   1.527  0.5378  0.1145  0.0135
 6621TIP3    H144058   7.302   2.517   1.531  0.8727  1.7867  2.2722
 6621TIP3    H244059   7.166   2.457   1.557  1.2024 -0.6421 -0.9652
 6622TIP3   OH244060   5.816   3.590   2.758  0.1963 -0.2507 -0.1867
 6622TIP3    H144061   5.818   3.515   2.699 -1.0662  0.7099 -1.5406
 6622TIP3    H244062   5.872   3.656   2.717  0.3589 -0.0324  0.3681
 6623TIP3   OH244063   4.385   1.198   1.206  0.9504  1.2747  0.1992
 6623TIP3    H144064   4.455   1.173   1.267 -0.1657  1.0917  1.4632
 6623TIP3    H244065   4.304   1.176   1.253  0.0320  0.1998 -1.7636
 6624TIP3   OH244066   2.941   6.866   0.836 -0.0087 -0.2517 -0.1969
 6624TIP3    H144067   3.032   6.874   0.808  0.7074 -2.3478  1.2764
 6624TIP3    H244068   2.941   6.792   0.897 -2.7639 -0.5152 -0.3825
 6625TIP3   OH244069   4.924   0.825   3.011 -0.2391 -0.3013  0.2269
 6625TIP3    H144070   5.014   0.852   3.026 -0.3104 -0.6751  1.4572
 6625TIP3    H244071   4.922   0.733   3.038 -0.9845 -0.2977  0.2059
 6626TIP3   OH244072   7.263   4.542   3.014 -0.1528 -0.2556  0.3213
 6626TIP3    H144073   7.240   4.616   2.958 -1.9139 -0.4565  0.7487
 6626TIP3    H244074   7.347   4.567   3.053  0.0239  0.8325 -0.6996
 6627TIP3   OH244075   5.150   2.120   2.112  1.0439 -0.0863  0.0408
 6627TIP3    H144076   5.072   2.097   2.062  0.9189  0.0356  0.1793
 6627TIP3    H244077   5.160   2.214   2.100  0.6558  0.0519  0.7457
 6628TIP3   OH244078   1.602   0.326   1.480  0.3485  0.3384 -0.1891
 6628TIP3    H144079   1.539   0.398   1.487  1.5092  1.3888 -0.2356
 6628TIP3    H244080   1.670   0.360   1.423  1.8133 -0.1283  1.2228
 6629TIP3   OH244081   5.728   2.770   1.002  0.5226  0.2592 -0.4065
 6629TIP3    H144082   5.755   2.824   1.075 -0.7114  1.2689 -0.6593
 6629TIP3    H244083   5.766   2.812   0.925  0.3491  0.2190 -0.5152
 6630TIP3   OH244084   0.490   6.485   2.335 -0.2190  0.2844  0.0019
 6630TIP3    H144085   0.578   6.512   2.308 -0.4720  3.9839  2.1883
 6630TIP3    H244086   0.506   6.419   2.403  0.8380  0.3860 -0.1291
 6631TIP3   OH244087   2.989   0.805   0.417 -0.2536  0.5918  0.4748
 6631TIP3    H144088   2.895   0.799   0.433 -0.0494 -0.0821  1.5235
 6631TIP3    H244089   3.020   0.715   0.427  0.2605  0.5116 -1.5638
 6632TIP3   OH244090   6.846   2.243   2.052 -0.0611  0.0433 -0.2500
 6632TIP3    H144091   6.851   2.313   1.987 -0.2474  0.6016  0.3364
 6632TIP3    H244092   6.927   2.249   2.101 -0.2365  0.0728  0.0362
 6633TIP3   OH244093   3.200   5.290   0.681 -0.1981  0.0174  0.0709
 6633TIP3    H144094   3.262   5.323   0.616  1.7514  0.8497  2.2081
 6633TIP3    H244095   3.205   5.352   0.753 -1.9848 -1.0482  1.2035
 6634TIP3   OH244096   1.529   7.532   1.816  0.0178 -0.1707  0.1544
 6634TIP3    H144097   1.546   7.548   1.909  0.3769  0.9423 -0.0752
 6634TIP3    H244098   1.600   7.474   1.788  1.5592  1.6862 -0.0070
 6635TIP3   OH244099   6.177   3.861   0.675  0.5492 -0.4192 -0.0041
 6635TIP3    H144100   6.230   3.940   0.686  0.3286 -0.2793  0.0591
 6635TIP3    H244101   6.112   3.884   0.609  0.4967 -0.5545 -0.0005
 6636TIP3   OH244102   7.311   2.426   2.460 -0.3645 -0.1311  0.3439
 6636TIP3    H144103   7.222   2.457   2.472 -0.3789 -0.7503  2.0839
 6636TIP3    H244104   7.325   2.363   2.530  1.0447 -0.9723 -0.6254
 6637TIP3   OH244105   6.851   3.649   2.652 -0.8770  0.2447 -0.2105
 6637TIP3    H144106   6.856   3.555   2.670 -0.6435  0.1211 -0.9033
 6637TIP3    H244107   6.819   3.655   2.562  1.4538  0.7611 -1.0730
 6638TIP3   OH244108   3.304   0.717   0.746  0.1406  0.1099  0.4872
 6638TIP3    H144109   3.262   0.631   0.749 -1.1664  0.5631 -1.9286
 6638TIP3    H244110   3.232   0.778   0.733  1.1311  1.5128  1.3037
 6639TIP3   OH244111   5.490   6.726   3.027  0.0126  0.4518 -0.5364
 6639TIP3    H144112   5.515   6.813   3.060 -1.2979  0.5914  0.1447
 6639TIP3    H244113   5.567   6.697   2.977  1.0038  1.4191  0.3522
 6640TIP3   OH244114   1.926   1.229   1.885  0.3619  0.2650 -0.0173
 6640TIP3    H144115   1.968   1.198   1.805 -2.2067 -2.5589 -0.4491
 6640TIP3    H244116   1.858   1.165   1.903  0.5828  0.9251  4.3250
 6641TIP3   OH244117   6.408   3.256   0.897  0.2962 -0.4093  0.3174
 6641TIP3    H144118   6.473   3.239   0.965 -0.1838  1.8876  1.4455
 6641TIP3    H244119   6.416   3.349   0.879 -1.5519 -0.4042 -0.7376
 6642TIP3   OH244120   7.051   1.347   1.385  0.1924  0.3648  0.1529
 6642TIP3    H144121   7.091   1.361   1.471  0.6888 -2.0219  0.3565
 6642TIP3    H244122   6.980   1.285   1.402 -1.0312  1.4212 -0.8785
 6643TIP3   OH244123   7.128   2.311   2.966 -0.5267  0.1093 -0.5511
 6643TIP3    H144124   7.168   2.224   2.970  1.8693  1.1602  0.9307
 6643TIP3    H244125   7.069   2.314   3.041 -0.7393 -0.3095 -0.7037
 6644TIP3   OH244126   4.213   0.830   3.226  0.2779  0.3291 -0.2496
 6644TIP3    H144127   4.133   0.790   3.191  0.2382 -1.0189  1.2371
 6644TIP3    H244128   4.181   0.897   3.287  0.2607 -0.2588  0.3987
 6645TIP3   OH244129   2.005   1.547   3.290  0.4150  0.1294  0.2224
 6645TIP3    H144130   2.020   1.461   3.251 -1.7187  1.1199 -3.2675
 6645TIP3    H244131   2.079   1.600   3.262  0.4271  0.0695  0.1423
 6646TIP3   OH244132   4.780   2.010   2.549 -0.0340  0.1650 -0.4088
 6646TIP3    H144133   4.764   2.015   2.454 -2.4145 -0.4441 -0.1006
 6646TIP3    H244134   4.820   1.924   2.562 -0.5111 -0.1155 -0.7718
 6647TIP3   OH244135   3.767   2.119   1.518  0.0677  0.4747 -0.8172
 6647TIP3    H144136   3.826   2.170   1.463 -0.3854  1.7557 -0.1518
 6647TIP3    H244137   3.697   2.180   1.541 -0.3046 -0.3464  0.2888
 6648TIP3   OH244138   0.346   5.420   2.322  0.6469  0.3006 -0.3213
 6648TIP3    H144139   0.333   5.326   2.333 -1.4816  0.6294  0.4184
 6648TIP3    H244140   0.352   5.454   2.412 -0.9185  1.1048 -0.4822
 6649TIP3   OH244141   1.196   4.781   1.342  0.1369 -0.0079 -0.5638
 6649TIP3    H144142   1.288   4.786   1.319  0.0342  0.7813 -0.8457
 6649TIP3    H244143   1.157   4.860   1.303 -0.8391 -0.8289 -1.3103
 6650TIP3   OH244144   6.655   3.367   2.354  0.6768  0.2748 -0.0538
 6650TIP3    H144145   6.691   3.328   2.274  0.5350  0.2113 -0.0873
 6650TIP3    H244146   6.725   3.423   2.387  0.1890  1.5479 -1.0761
 6651TIP3   OH244147   7.114   3.080   2.169  0.2399  0.5451 -0.6966
 6651TIP3    H144148   7.079   2.995   2.196  0.4451  1.0453  1.2299
 6651TIP3    H244149   7.091   3.140   2.240  1.5803  1.7352 -1.2185
 6652TIP3   OH244150   0.067   7.129   2.157 -0.2855  0.1833  0.2480
 6652TIP3    H144151   0.122   7.186   2.211 -2.4836  1.5584  1.1946
 6652TIP3    H244152   0.003   7.093   2.218 -1.4689 -0.0067 -1.0482
 6653TIP3   OH244153   2.658   2.340   2.758  0.1052  0.4427  0.4285
 6653TIP3    H144154   2.565   2.330   2.775 -0.0760  0.5202 -0.4716
 6653TIP3    H244155   2.678   2.429   2.787  0.3956 -0.2908  2.6741
 6654TIP3   OH244156   2.011   5.065   1.450 -0.1934 -0.2597  0.2239
 6654TIP3    H144157   1.942   5.010   1.488 -0.4567  0.4953  0.8826
 6654TIP3    H244158   2.017   5.139   1.510  1.2217 -0.3270  0.1832
 6655TIP3   OH244159   7.305   3.384   2.144  0.0659 -0.2288 -0.4952
 6655TIP3    H144160   7.263   3.315   2.196  1.2460 -0.9817 -0.4945
 6655TIP3    H244161   7.242   3.403   2.074 -0.6891 -0.6154  0.0603
 6656TIP3   OH244162   5.351   3.731   1.834 -0.0421 -0.0196 -0.4768
 6656TIP3    H144163   5.347   3.694   1.746 -1.8347  1.6129 -1.1629
 6656TIP3    H244164   5.434   3.780   1.835  0.5127 -0.9245 -0.8597
 6657TIP3   OH244165   3.039   6.947   1.329 -0.0400  0.1954  0.0388
 6657TIP3    H144166   2.949   6.925   1.355 -0.4912  0.4183 -1.2691
 6657TIP3    H244167   3.032   7.034   1.289  0.7557  0.1886 -0.1319
 6658TIP3   OH244168   2.009   3.095   1.791 -0.2740 -0.1608 -0.2432
 6658TIP3    H144169   2.103   3.113   1.798 -0.6882  1.8974  0.6490
 6658TIP3    H244170   2.004   3.000   1.788  1.7647 -0.4049  1.2892
 6659TIP3   OH244171   0.222   1.704   2.047  0.1171 -0.3237 -0.2141
 6659TIP3    H144172   0.174   1.779   2.011 -1.0050 -0.7326  0.3726
 6659TIP3    H244173   0.214   1.714   2.142  0.2636 -0.9948 -0.1262
 6660TIP3   OH244174   4.353   4.696   1.109  0.0680 -0.1647  0.0020
 6660TIP3    H144175   4.443   4.705   1.139  0.6842  2.0917 -2.1965
 6660TIP3    H244176   4.348   4.606   1.076  1.2284 -0.5931  0.9125
 6661TIP3   OH244177   3.516   5.662   1.965  0.3381  0.1226  0.0263
 6661TIP3    H144178   3.438   5.633   2.013 -0.7315  2.1647 -0.3308
 6661TIP3    H244179   3.519   5.606   1.888 -0.1503 -0.6776  0.5734
 6662TIP3   OH244180   7.085   1.899   1.658  0.3144 -0.4703 -0.1195
 6662TIP3    H144181   7.141   1.952   1.601  0.2855 -1.3021 -0.9479
 6662TIP3    H244182   7.145   1.841   1.705  0.2804 -0.2667  0.1748
 6663TIP3   OH244183   3.526   2.428   1.861  0.3076  0.1408  0.3543
 6663TIP3    H144184   3.480   2.398   1.940 -1.4435  1.8684  0.0616
 6663TIP3    H244185   3.519   2.523   1.864  0.4453  0.2582 -1.7549
 6664TIP3   OH244186   2.451   2.017   2.393 -0.6773 -0.0188  0.3684
 6664TIP3    H144187   2.445   2.086   2.458 -2.1418  0.6573 -0.4407
 6664TIP3    H244188   2.455   2.062   2.309  1.1658 -0.8772 -0.0612
 6665TIP3   OH244189   7.296   1.921   3.245 -0.1048  0.4927  0.5579
 6665TIP3    H144190   7.295   1.911   3.150 -0.8098  2.1383  0.3677
 6665TIP3    H244191   7.280   1.833   3.279 -1.0440  0.0919 -0.8677
 6666TIP3   OH244192   6.776   1.145   1.189  0.0050  0.0804 -0.2523
 6666TIP3    H144193   6.823   1.193   1.121  0.1364  1.5977  0.8511
 6666TIP3    H244194   6.841   1.087   1.228 -0.0717 -0.8031 -1.3821
 6667TIP3   OH244195   6.183   3.632   1.206  0.3135 -0.5096  0.3504
 6667TIP3    H144196   6.224   3.703   1.255 -1.3487  0.8932 -0.1724
 6667TIP3    H244197   6.190   3.556   1.264  3.8826 -0.5077  0.1184
 6668TIP3   OH244198   5.359   1.604   2.668 -0.0665 -0.0631 -0.8083
 6668TIP3    H144199   5.281   1.578   2.718  1.7787 -0.1950  2.2740
 6668TIP3    H244200   5.387   1.524   2.624 -1.5392 -0.0439 -1.8324
 6669TIP3   OH244201   0.032   6.992   1.667 -0.2361  0.0672 -0.3965
 6669TIP3    H144202   0.002   6.907   1.700  1.0046  0.4068  1.7949
 6669TIP3    H244203   0.081   7.030   1.740 -0.3565  2.4841 -1.4913
 6670TIP3   OH244204   0.757   0.950   1.864 -0.0092 -0.1038 -0.6142
 6670TIP3    H144205   0.703   0.979   1.791 -0.5821 -1.3994 -0.7291
 6670TIP3    H244206   0.700   0.893   1.916  0.0975  1.4789  1.3678
 6671TIP3   OH244207   2.055   7.441   0.857  0.1884 -0.5525  0.8472
 6671TIP3    H144208   2.049   7.531   0.824  2.7580 -0.2844  0.8700
 6671TIP3    H244209   2.036   7.386   0.782  0.5151  0.0426  0.3178
 6672TIP3   OH244210   3.054   1.787   1.448  0.2335 -0.4295  0.0636
 6672TIP3    H144211   3.024   1.738   1.524 -2.1870  1.0358  0.1481
 6672TIP3    H244212   3.004   1.753   1.374  0.3596  0.2005 -0.3296
 6673TIP3   OH244213   3.240   6.567   2.473 -0.4487  0.3354  0.4666
 6673TIP3    H144214   3.161   6.606   2.510  0.5662  0.8730  2.1926
 6673TIP3    H244215   3.252   6.486   2.523  0.7985  0.9247  1.1647
 6674TIP3   OH244216   4.466   5.359   1.059 -0.0523  0.0225 -0.0494
 6674TIP3    H144217   4.399   5.357   0.990  1.1611  0.1702 -1.2899
 6674TIP3    H244218   4.489   5.266   1.071  1.4403  0.1175 -1.6565
 6675TIP3   OH244219   2.126   0.314   0.847  0.0352 -0.0495 -0.2889
 6675TIP3    H144220   2.213   0.354   0.855 -0.6523  1.5896 -0.6763
 6675TIP3    H244221   2.078   0.348   0.922 -0.2730 -0.9949 -0.0495
 6676TIP3   OH244222   3.925   2.083   2.211 -0.0832 -0.1598  0.4741
 6676TIP3    H144223   4.016   2.110   2.223 -0.8749  3.0733 -0.0588
 6676TIP3    H244224   3.888   2.085   2.299 -0.3062  1.3894  0.3730
 6677TIP3   OH244225   5.065   3.263   2.992  0.2381  0.4894 -0.4204
 6677TIP3    H144226   4.999   3.279   3.060  0.3857 -0.4342 -0.0450
 6677TIP3    H244227   5.142   3.311   3.021 -0.2311  1.5005 -0.8152
 6678TIP3   OH244228   1.965   1.449   2.638 -0.3415  0.1070  0.2394
 6678TIP3    H144229   2.003   1.365   2.662 -0.3102  0.6080  2.1047
 6678TIP3    H244230   1.876   1.446   2.674 -0.6630  0.5172 -0.4973
 6679TIP3   OH244231   5.935   7.133   3.087  0.1204  0.3760 -0.2371
 6679TIP3    H144232   5.855   7.186   3.093 -0.5976 -0.7993  1.1311
 6679TIP3    H244233   5.998   7.191   3.046 -1.3989  1.3778 -1.2786
 6680TIP3   OH244234   2.625   6.704   2.964 -0.0508 -0.4233  0.4347
 6680TIP3    H144235   2.564   6.749   3.023  0.3125 -1.4270  1.6252
 6680TIP3    H244236   2.644   6.769   2.896 -1.4894  0.3284  0.6985
 6681TIP3   OH244237   7.584   3.668   1.219 -0.3427  0.1311 -0.1855
 6681TIP3    H144238   7.531   3.737   1.182 -0.9047 -1.2070 -2.0230
 6681TIP3    H244239   7.521   3.608   1.260  0.0993  0.4732  1.0342
 6682TIP3   OH244240   0.875   3.527   2.198  0.3006 -0.3728  0.2869
 6682TIP3    H144241   0.939   3.598   2.196  0.5809 -0.5921  1.0804
 6682TIP3    H244242   0.882   3.486   2.112  1.1767 -0.3450  0.3345
 6683TIP3   OH244243   4.918   3.285   2.697  0.3144  0.1903  0.1016
 6683TIP3    H144244   4.912   3.380   2.685  1.0868  0.2197 -0.0921
 6683TIP3    H244245   4.892   3.249   2.612 -1.0871  0.1838  0.5123
 6684TIP3   OH244246   6.282   2.001   3.274 -0.9578  0.2558 -0.3697
 6684TIP3    H144247   6.337   1.927   3.251 -1.7959 -0.7869  0.8532
 6684TIP3    H244248   6.295   2.013   3.368 -1.9663  0.6913 -0.2717
 6685TIP3   OH244249   5.493   4.784   1.975 -0.2674 -0.0455 -0.1848
 6685TIP3    H144250   5.419   4.767   2.033 -0.6811  1.5159 -0.2070
 6685TIP3    H244251   5.545   4.849   2.022 -0.0405  0.4385 -1.0848
 6686TIP3   OH244252   6.079   1.208   3.023 -0.6114  0.3051  0.7050
 6686TIP3    H144253   6.045   1.121   3.008 -1.5481  1.0197 -1.7216
 6686TIP3    H244254   6.151   1.217   2.960 -1.0353  1.5406  0.3743
 6687TIP3   OH244255   6.901   1.456   2.907  0.0218  0.3209 -0.3782
 6687TIP3    H144256   6.927   1.408   2.829 -0.3259  1.7627 -1.4139
 6687TIP3    H244257   6.806   1.448   2.910  0.1694 -1.5064  1.1236
 6688TIP3   OH244258   0.674   7.391   1.277 -0.6755  0.0453 -0.0400
 6688TIP3    H144259   0.680   7.465   1.338 -0.3304 -0.6134  0.7494
 6688TIP3    H244260   0.581   7.387   1.254 -0.6080  1.1009 -0.5927
 6689TIP3   OH244261   1.556   2.468   0.892 -0.3591  0.1494  0.1984
 6689TIP3    H144262   1.520   2.486   0.805 -0.7973  0.7802  0.5057
 6689TIP3    H244263   1.492   2.412   0.934  0.3291 -0.9964 -0.2379
 6690TIP3   OH244264   0.899   7.004   1.052 -0.1841 -0.1530  0.1008
 6690TIP3    H144265   0.893   7.100   1.044 -1.8313 -0.0652  1.7110
 6690TIP3    H244266   0.855   6.971   0.974  0.4924  0.4002 -0.5230
 6691TIP3   OH244267   4.418   6.280   1.082  0.0429  0.5186 -0.1151
 6691TIP3    H144268   4.375   6.327   1.154  0.5401  0.8205 -0.0117
 6691TIP3    H244269   4.366   6.201   1.071 -0.6573  0.9739 -0.1212
 6692TIP3   OH244270   6.715   2.837   2.918 -0.0632 -0.1471  0.0040
 6692TIP3    H144271   6.693   2.806   3.006  0.1882 -1.0693 -0.2399
 6692TIP3    H244272   6.796   2.790   2.896  0.5725  1.0235 -0.2316
 6693TIP3   OH244273   6.449   3.067   1.946 -0.0044 -0.0474 -0.5135
 6693TIP3    H144274   6.371   3.122   1.934  0.3365  0.6686  0.4052
 6693TIP3    H244275   6.502   3.085   1.869 -1.1756 -1.3163 -1.6621
 6694TIP3   OH244276   1.032   7.281   2.157 -0.2280 -0.1167  0.1387
 6694TIP3    H144277   1.005   7.352   2.215 -0.4131 -0.1451  0.0870
 6694TIP3    H244278   1.079   7.325   2.086 -1.9208  0.1500 -0.8677
 6695TIP3   OH244279   3.538   6.515   2.143  0.1777  0.6229  0.0678
 6695TIP3    H144280   3.498   6.548   2.062  0.7121  1.9406  0.3060
 6695TIP3    H244281   3.617   6.469   2.114 -0.4900 -0.3129 -0.2692
 6696TIP3   OH244282   3.457   1.976   2.780  0.7508  0.0032 -0.2372
 6696TIP3    H144283   3.460   1.972   2.876 -0.4361 -2.0687 -0.2273
 6696TIP3    H244284   3.485   1.889   2.752  0.6384  0.4345 -1.7696
 6697TIP3   OH244285   6.886   0.955   2.818 -0.1090 -0.4471  0.0851
 6697TIP3    H144286   6.829   0.953   2.895 -0.3555 -1.0941 -0.1014
 6697TIP3    H244287   6.938   0.874   2.825  0.1610 -0.3008 -0.2092
 6698TIP3   OH244288   5.389   5.738   1.184  0.3277 -0.2750  0.2987
 6698TIP3    H144289   5.454   5.708   1.247 -1.2198 -0.3046  1.9901
 6698TIP3    H244290   5.379   5.666   1.123 -0.3679 -1.5992  1.8942
 6699TIP3   OH244291   2.566   6.214   2.662 -0.5988 -0.4694 -0.2979
 6699TIP3    H144292   2.587   6.247   2.750 -0.1929  2.3922 -1.3559
 6699TIP3    H244293   2.647   6.227   2.612 -1.4658  0.0080 -1.6241
 6700TIP3   OH244294   5.025   1.081   1.491  0.0123  0.0046  0.3653
 6700TIP3    H144295   5.085   1.047   1.557  0.3011  0.5357  0.3899
 6700TIP3    H244296   5.016   1.010   1.428  2.1993  0.5162 -0.6507
 6701TIP3   OH244297   4.152   3.299   3.352 -0.2016 -0.1094  0.2932
 6701TIP3    H144298   4.154   3.383   3.397  0.9749  0.5506 -0.9313
 6701TIP3    H244299   4.218   3.246   3.396  0.6143  0.3724 -0.3401
 6702TIP3   OH244300   3.439   4.238   2.347 -0.0918 -0.3389  0.6987
 6702TIP3    H144301   3.454   4.316   2.399  0.1588 -0.7899  1.3108
 6702TIP3    H244302   3.510   4.239   2.282 -2.2136  1.9763 -1.8526
 6703TIP3   OH244303   1.732   3.896   3.418 -0.4354 -0.5298  0.4009
 6703TIP3    H144304   1.661   3.887   3.481 -0.2753 -0.9289  0.5292
 6703TIP3    H244305   1.806   3.928   3.469 -0.7680  0.7568  0.1005
 6704TIP3   OH244306   1.277   6.713   1.520  0.1134  0.0434 -0.2285
 6704TIP3    H144307   1.191   6.734   1.484  0.2647 -0.3929 -0.8669
 6704TIP3    H244308   1.310   6.642   1.465  1.5025  1.1626 -0.9297
 6705TIP3   OH244309   0.689   1.697   1.360 -0.5257  0.1396 -0.5022
 6705TIP3    H144310   0.639   1.616   1.358 -1.8131  0.8400  0.9699
 6705TIP3    H244311   0.624   1.766   1.345  0.0968  1.0198  0.6290
 6706TIP3   OH244312   1.509   3.945   1.304  0.3141 -0.4404 -0.2009
 6706TIP3    H144313   1.532   3.999   1.380 -0.7868 -1.1352  0.6599
 6706TIP3    H244314   1.592   3.905   1.278  1.0627  1.2800 -0.5715
 6707TIP3   OH244315   1.847   1.008   0.672 -0.3501  0.4201 -0.7786
 6707TIP3    H144316   1.894   0.975   0.748  1.1686  1.1114 -1.3778
 6707TIP3    H244317   1.849   0.936   0.609  0.1505  0.5297 -0.8940
 6708TIP3   OH244318   3.833   7.486   1.031 -0.3049  0.3216  0.1438
 6708TIP3    H144319   3.777   7.519   1.101 -1.5142  2.9558 -1.8682
 6708TIP3    H244320   3.907   7.445   1.076 -1.1054  1.6842  2.9171
 6709TIP3   OH244321   2.054   4.730   1.591 -0.3307 -0.2204  0.3652
 6709TIP3    H144322   2.087   4.656   1.643  0.0164  0.7505  1.5793
 6709TIP3    H244323   2.123   4.795   1.595 -0.8083  0.3410 -0.3288
 6710TIP3   OH244324   0.711   1.661   0.868 -0.0566 -0.4672  0.1351
 6710TIP3    H144325   0.686   1.753   0.858 -2.9151 -1.1391  0.2395
 6710TIP3    H244326   0.736   1.634   0.780 -0.8688 -0.0131 -0.2452
 6711TIP3   OH244327   2.949   4.867   0.651 -0.0942  0.7744 -0.0886
 6711TIP3    H144328   2.988   4.858   0.738  0.9343  1.1883 -0.4843
 6711TIP3    H244329   3.013   4.919   0.602  0.6205 -1.5241 -1.8192
 6712TIP3   OH244330   0.881   2.969   2.709 -0.3123 -0.0561 -0.0193
 6712TIP3    H144331   0.799   2.941   2.750 -0.7003  0.7645 -0.2220
 6712TIP3    H244332   0.917   2.888   2.672 -2.7767  0.0295 -3.0316
 6713TIP3   OH244333   6.277   7.418   1.033  0.6431 -0.4087 -0.2022
 6713TIP3    H144334   6.273   7.510   1.057 -0.2419  0.0155 -1.8414
 6713TIP3    H244335   6.221   7.374   1.097 -0.7725  0.5260 -0.7608
 6714TIP3   OH244336   7.114   4.231   2.433 -0.4785 -0.0105 -0.1949
 6714TIP3    H144337   7.074   4.287   2.367 -0.1579 -0.7684 -1.0594
 6714TIP3    H244338   7.205   4.261   2.439 -0.6772  0.4955  0.4070
 6715TIP3   OH244339   2.466   2.612   2.004  0.2928 -0.3457 -0.0932
 6715TIP3    H144340   2.535   2.572   2.058 -1.6096  0.0729  2.8971
 6715TIP3    H244341   2.511   2.684   1.959  2.1773 -1.1813  0.3244
 6716TIP3   OH244342   1.480   6.678   1.936 -0.0833  0.4152  0.4182
 6716TIP3    H144343   1.435   6.749   1.890 -0.3145 -0.3372 -0.5445
 6716TIP3    H244344   1.449   6.684   2.027 -0.2093  1.4399  0.3177
 6717TIP3   OH244345   2.261   2.898   2.691  0.3669  0.5919  0.4747
 6717TIP3    H144346   2.266   2.870   2.782  1.1261 -2.4063 -0.3872
 6717TIP3    H244347   2.204   2.833   2.649  0.6092  1.4905 -1.3402
 6718TIP3   OH244348   3.222   1.659   2.325 -0.1191 -0.1556  0.0410
 6718TIP3    H144349   3.195   1.652   2.233  0.9842  3.1404 -0.6903
 6718TIP3    H244350   3.254   1.572   2.347 -1.6455 -1.4212 -2.2444
 6719TIP3   OH244351   3.442   6.769   0.829  0.2128  0.2912 -0.4334
 6719TIP3    H144352   3.479   6.687   0.862 -0.9347 -0.8487 -1.8320
 6719TIP3    H244353   3.498   6.837   0.866  2.1378 -1.1957 -0.4419
 6720TIP3   OH244354   2.776   1.547   0.426  0.2511 -0.2380  0.1597
 6720TIP3    H144355   2.800   1.505   0.508  1.4537  0.0646 -0.0223
 6720TIP3    H244356   2.839   1.617   0.415  0.9305 -1.0595 -1.6492
 6721TIP3   OH244357   0.929   0.511   1.544  0.8353 -0.0247 -0.4842
 6721TIP3    H144358   0.958   0.579   1.483  0.8129  0.8062  0.4180
 6721TIP3    H244359   0.870   0.456   1.492 -0.3417  1.5082 -0.8466
 6722TIP3   OH244360   4.870   4.285   1.631  0.0537 -0.2851 -0.0080
 6722TIP3    H144361   4.809   4.279   1.558 -1.4628  1.3203  1.0626
 6722TIP3    H244362   4.884   4.194   1.657 -0.4642 -0.7939 -1.4104
 6723TIP3   OH244363   1.235   1.790   1.972 -0.9462 -0.5224  0.5056
 6723TIP3    H144364   1.199   1.877   1.988 -2.8938 -1.7196  3.4916
 6723TIP3    H244365   1.178   1.751   1.906 -0.4929  0.1573 -0.3091
 6724TIP3   OH244366   1.211   6.033   2.959  0.2628 -0.0309 -0.5672
 6724TIP3    H144367   1.189   5.954   2.910 -0.3345 -0.6064  0.5837
 6724TIP3    H244368   1.162   6.103   2.917 -1.5964 -0.8111  0.2222
 6725TIP3   OH244369   1.747   5.205   1.306  0.2254  0.5033 -0.0808
 6725TIP3    H144370   1.755   5.191   1.400 -0.3526  2.9510  0.3964
 6725TIP3    H244371   1.663   5.165   1.284 -0.0352  0.6399  0.6255
 6726TIP3   OH244372   0.311   0.956   2.681 -0.4406 -0.2751  0.4329
 6726TIP3    H144373   0.220   0.964   2.711 -0.8824 -0.0247 -0.9034
 6726TIP3    H244374   0.349   0.890   2.738 -1.3626 -0.1195  1.2515
 6727TIP3   OH244375   5.374   6.279   1.419 -0.2602 -0.7845 -0.2840
 6727TIP3    H144376   5.419   6.226   1.353 -1.0113 -0.5220 -1.0199
 6727TIP3    H244377   5.335   6.214   1.478  2.5050 -1.0297  1.4134
 6728TIP3   OH244378   7.668   2.558   0.472 -0.0651  0.2869  0.2601
 6728TIP3    H144379   7.643   2.472   0.440 -0.1973 -0.0139  1.1406
 6728TIP3    H244380   7.760   2.548   0.498 -0.1310  0.3629  0.5228
 6729TIP3   OH244381   2.539   4.155   0.529  0.2386  0.0588  0.1412
 6729TIP3    H144382   2.474   4.135   0.596  1.1022  1.7937  1.5620
 6729TIP3    H244383   2.503   4.116   0.449 -3.1045  1.7901  0.6146
 6730TIP3   OH244384   6.528   0.636   1.079 -0.4200 -0.0872 -0.2305
 6730TIP3    H144385   6.618   0.621   1.108 -0.1742  0.6308 -0.6071
 6730TIP3    H244386   6.518   0.731   1.081 -1.4724 -0.1896  0.7026
 6731TIP3   OH244387   2.153   6.654   0.927 -0.0906  0.1212 -0.1451
 6731TIP3    H144388   2.170   6.587   0.860 -0.4972  0.5326 -0.6641
 6731TIP3    H244389   2.178   6.612   1.009  0.1141 -0.5024 -0.5182
 6732TIP3   OH244390   3.814   3.715   0.700  0.3979  0.7081 -0.1743
 6732TIP3    H144391   3.801   3.627   0.734  0.6236  0.3421 -1.0048
 6732TIP3    H244392   3.765   3.716   0.618  0.3206  1.3888 -0.1258
 6733TIP3   OH244393   0.301   4.336   1.501  0.0168  0.4800 -0.0844
 6733TIP3    H144394   0.217   4.351   1.545 -0.4511 -0.3022 -0.6847
 6733TIP3    H244395   0.327   4.422   1.468 -0.9874  0.5795 -0.6522
 6734TIP3   OH244396   0.723   4.337   2.216  0.8090 -0.6339 -0.5339
 6734TIP3    H144397   0.818   4.324   2.207  1.3438  1.1996  1.5221
 6734TIP3    H244398   0.697   4.280   2.288  1.2393  1.7363  1.6643
 6735TIP3   OH244399   7.502   3.410   0.763  0.5115 -0.0603  0.3543
 6735TIP3    H144400   7.446   3.337   0.734  2.6041 -0.9423 -1.7751
 6735TIP3    H244401   7.440   3.478   0.790 -1.6274 -1.0057 -1.7629
 6736TIP3   OH244402   3.239   0.323   0.411  0.2160 -0.2227  0.3087
 6736TIP3    H144403   3.223   0.270   0.490 -1.0524  2.1067  1.7332
 6736TIP3    H244404   3.285   0.400   0.443  0.3711  0.4176 -1.3820
 6737TIP3   OH244405   4.116   0.774   2.347 -0.5273 -0.1482  0.1147
 6737TIP3    H144406   4.109   0.715   2.422  0.7841  0.3348  0.6531
 6737TIP3    H244407   4.207   0.803   2.348  0.3318 -2.1788 -3.2320
 6738TIP3   OH244408   0.387   7.343   1.232 -0.0874 -0.5126 -0.4489
 6738TIP3    H144409   0.400   7.330   1.326 -0.2153 -0.5975 -0.4419
 6738TIP3    H244410   0.327   7.273   1.207 -0.9509  0.1794 -0.3714
 6739TIP3   OH244411   7.375   0.893   0.328 -0.0163  0.3762  0.4413
 6739TIP3    H144412   7.410   0.936   0.250 -2.1523 -0.4638 -1.0901
 6739TIP3    H244413   7.452   0.863   0.376  1.4240  2.7664 -0.2107
 6740TIP3   OH244414   2.381   4.226   2.708 -0.2728 -0.0215  0.3811
 6740TIP3    H144415   2.412   4.307   2.748 -2.1567  0.1885  1.5025
 6740TIP3    H244416   2.442   4.159   2.738 -0.6623  0.4245  2.2663
 6741TIP3   OH244417   0.918   2.638   0.967  0.2380 -0.0743  0.1395
 6741TIP3    H144418   0.955   2.643   1.056  1.9739 -0.6099 -0.5126
 6741TIP3    H244419   0.975   2.694   0.914 -0.0375 -0.7390 -0.8775
 6742TIP3   OH244420   7.617   1.828   1.930  0.5114 -0.1448  0.2364
 6742TIP3    H144421   7.571   1.746   1.908  1.0814 -0.6462  0.8502
 6742TIP3    H244422   7.591   1.845   2.021  1.7458 -0.5986  0.6902
 6743TIP3   OH244423   2.003   7.072   1.043 -0.5004 -0.0771 -0.1914
 6743TIP3    H144424   1.933   7.137   1.033 -0.4886 -0.2415 -1.5116
 6743TIP3    H244425   2.021   7.042   0.954  0.3307 -1.0192  0.2714
 6744TIP3   OH244426   5.952   1.770   1.108  0.0872  0.7646  0.0445
 6744TIP3    H144427   5.920   1.759   1.198  0.1880  0.6934  0.0722
 6744TIP3    H244428   6.036   1.725   1.107  0.7417  1.9490  0.2936
 6745TIP3   OH244429   3.138   3.889   1.414  0.1874  0.0602 -0.6594
 6745TIP3    H144430   3.127   3.833   1.337  0.4611 -0.9429  0.0107
 6745TIP3    H244431   3.221   3.861   1.453 -1.1635 -1.3172  1.4613
 6746TIP3   OH244432   4.092   2.873   1.912 -0.9178  0.2247 -0.5377
 6746TIP3    H144433   4.113   2.801   1.971  0.0986  2.0827  1.4798
 6746TIP3    H244434   4.163   2.871   1.847 -0.3458  0.0171  0.0820
 6747TIP3   OH244435   7.347   0.761   1.353 -0.5860  0.0875 -0.2583
 6747TIP3    H144436   7.345   0.832   1.289 -3.8665 -0.7761 -1.3056
 6747TIP3    H244437   7.357   0.681   1.301 -1.7981 -0.5199  0.3821
 6748TIP3   OH244438   0.119   3.637   2.052  0.0157  0.0796 -0.2833
 6748TIP3    H144439   0.149   3.557   2.094 -0.8831 -0.2418 -0.2301
 6748TIP3    H244440   0.075   3.686   2.121 -1.9700 -0.7091 -0.9219
 6749TIP3   OH244441   7.472   3.944   2.200 -0.5253  0.2925 -0.0922
 6749TIP3    H144442   7.514   3.958   2.285  0.3593 -0.7352 -0.3293
 6749TIP3    H244443   7.449   4.031   2.170  1.5393  0.9517  0.0463
 6750TIP3   OH244444   6.028   5.792   0.521  0.2132  0.0532  0.0808
 6750TIP3    H144445   5.960   5.855   0.495 -0.0039 -0.3100 -0.2357
 6750TIP3    H244446   5.992   5.707   0.496  1.4629 -0.0322 -1.5627
 6751TIP3   OH244447   4.336   2.710   2.210  0.8924  0.5273 -0.8558
 6751TIP3    H144448   4.324   2.646   2.280 -1.4147  0.8968 -0.8204
 6751TIP3    H244449   4.388   2.780   2.249 -0.1866  0.6257  0.4631
 6752TIP3   OH244450   6.793   3.903   2.461 -0.0558  0.3544 -0.4117
 6752TIP3    H144451   6.813   3.989   2.424 -0.8001  0.7466  0.0746
 6752TIP3    H244452   6.867   3.884   2.519  0.6189  0.1848 -1.2922
 6753TIP3   OH244453   6.125   5.345   1.279 -0.5197  0.0468  0.3194
 6753TIP3    H144454   6.208   5.327   1.323  0.1004  1.6125 -0.1417
 6753TIP3    H244455   6.113   5.271   1.219  0.2627 -0.4584  0.7683
 6754TIP3   OH244456   2.681   0.578   1.186 -0.0744  0.3776  0.2810
 6754TIP3    H144457   2.598   0.616   1.160  0.3259  0.4211 -0.9950
 6754TIP3    H244458   2.705   0.520   1.113  0.1500 -1.0282  1.4139
 6755TIP3   OH244459   3.695   3.363   1.066  0.4184 -0.4859 -0.1710
 6755TIP3    H144460   3.689   3.287   1.008  1.0887 -1.4853  1.0217
 6755TIP3    H244461   3.775   3.349   1.116  1.0430  1.4738 -0.5329
 6756TIP3   OH244462   2.524   6.336   2.229 -0.3189 -0.3412  0.1671
 6756TIP3    H144463   2.447   6.296   2.269 -0.6875 -0.1291 -0.3128
 6756TIP3    H244464   2.540   6.284   2.150 -0.7043  0.3428 -0.3734
 6757TIP3   OH244465   0.729   3.473   1.031  0.0921 -0.8345 -0.0183
 6757TIP3    H144466   0.739   3.526   1.110  1.3699 -0.9094 -0.1016
 6757TIP3    H244467   0.699   3.388   1.063  0.2511 -0.7536  0.3524
 6758TIP3   OH244468   6.159   5.865   1.926  0.3570  0.3742  0.0346
 6758TIP3    H144469   6.070   5.898   1.923  0.2803  0.1391 -0.2963
 6758TIP3    H244470   6.183   5.851   1.834  0.2200 -0.9469  0.1756
 6759TIP3   OH244471   5.450   3.301   2.042 -0.2766 -0.2479 -0.4338
 6759TIP3    H144472   5.371   3.348   2.016  0.0802  0.6615  0.0826
 6759TIP3    H244473   5.488   3.354   2.112  1.5631  0.0761 -1.6115
 6760TIP3   OH244474   3.373   3.244   2.062  0.3836 -0.5019  0.5546
 6760TIP3    H144475   3.312   3.318   2.069 -1.1338 -1.7852  1.4356
 6760TIP3    H244476   3.432   3.255   2.137 -0.1261 -0.4399  0.9523
 6761TIP3   OH244477   1.609   7.130   1.280 -0.2256 -0.1388 -0.2442
 6761TIP3    H144478   1.623   7.125   1.374 -1.3522 -1.1606 -0.0937
 6761TIP3    H244479   1.554   7.054   1.260 -2.8418  1.8160 -1.1673
 6762TIP3   OH244480   6.267   4.136   2.672 -0.2790  0.2364  0.4881
 6762TIP3    H144481   6.187   4.083   2.671 -0.0994 -0.0333 -1.1325
 6762TIP3    H244482   6.330   4.083   2.721 -0.2144 -0.9225 -0.7972
 6763TIP3   OH244483   7.299   7.560   1.249  0.0190 -0.6472  0.4127
 6763TIP3    H144484   7.302   7.654   1.233 -2.5459  0.0340  3.0324
 6763TIP3    H244485   7.242   7.526   1.180  0.7750 -0.2876 -0.4125
 6764TIP3   OH244486   5.231   0.468   1.353 -0.4812  0.3043  0.1409
 6764TIP3    H144487   5.144   0.482   1.389 -0.3644  0.4413  0.3764
 6764TIP3    H244488   5.241   0.373   1.351 -0.8164  0.2755 -0.3366
 6765TIP3   OH244489   2.901   0.988   2.632 -0.1372 -0.3414 -0.2103
 6765TIP3    H144490   2.845   0.911   2.621  0.2493 -0.5921 -0.4663
 6765TIP3    H244491   2.857   1.040   2.699  0.6136 -1.7240  1.4310
 6766TIP3   OH244492   7.124   6.223   1.068  0.0056  0.4711  0.0866
 6766TIP3    H144493   7.144   6.284   0.997  0.3540  0.2706  0.0087
 6766TIP3    H244494   7.132   6.275   1.148  1.4698  0.2567  0.1049
 6767TIP3   OH244495   3.767   2.546   1.139 -0.0125  0.1180  0.2082
 6767TIP3    H144496   3.828   2.490   1.188  1.2705  1.7781  0.6214
 6767TIP3    H244497   3.699   2.487   1.109  0.3927 -1.3764  2.0288
 6768TIP3   OH244498   5.041   5.334   1.139  0.7128 -0.0650  0.1063
 6768TIP3    H144499   4.946   5.336   1.122  0.4904 -0.0958  1.2946
 6768TIP3    H244500   5.052   5.379   1.222  1.6274 -0.9572  0.4931
 6769TIP3   OH244501   5.449   1.605   1.949 -0.1840  0.0031  0.1581
 6769TIP3    H144502   5.361   1.637   1.968  0.6023  1.3273  1.9699
 6769TIP3    H244503   5.504   1.683   1.956  1.3387 -1.0749  0.8647
 6770TIP3   OH244504   7.594   1.150   0.567 -0.0799  0.1520  0.0535
 6770TIP3    H144505   7.662   1.084   0.553  0.0875  0.5119 -0.9200
 6770TIP3    H244506   7.629   1.207   0.635  0.7297  0.5017 -0.6385
 6771TIP3   OH244507   7.481   6.384   2.765 -0.2451  0.2926  0.5111
 6771TIP3    H144508   7.539   6.308   2.763  0.0384  0.4863  0.9482
 6771TIP3    H244509   7.396   6.351   2.736  0.2689  0.1837 -0.9360
 6772TIP3   OH244510   3.452   0.885   2.785  0.2723 -0.3352 -0.3027
 6772TIP3    H144511   3.426   0.803   2.827 -0.6744 -0.2135 -0.6427
 6772TIP3    H244512   3.375   0.914   2.737 -0.6087  2.4639  2.4286
 6773TIP3   OH244513   4.436   6.020   1.368 -0.0653  0.1330  0.8299
 6773TIP3    H144514   4.519   6.007   1.321 -0.2721 -1.4178  0.8247
 6773TIP3    H244515   4.386   5.940   1.350 -0.9691  0.4023  2.0350
 6774TIP3   OH244516   1.345   3.696   1.444 -0.3947 -0.2812 -0.0032
 6774TIP3    H144517   1.386   3.763   1.389 -0.5690  0.3975  0.6775
 6774TIP3    H244518   1.398   3.695   1.523  0.1324 -1.5856 -0.3564
 6775TIP3   OH244519   4.910   5.722   2.160 -0.8291  0.1039  0.5396
 6775TIP3    H144520   4.999   5.712   2.193 -1.6120 -2.2125  2.3012
 6775TIP3    H244521   4.879   5.804   2.198 -0.1637 -0.2275  1.8761
 6776TIP3   OH244522   1.304   0.126   1.191  0.0551 -0.5306 -0.0220
 6776TIP3    H144523   1.354   0.199   1.227 -1.0101  0.0316  0.3682
 6776TIP3    H244524   1.361   0.050   1.202  1.4944  0.3308 -1.1204
 6777TIP3   OH244525   3.897   3.665   1.110  0.2981 -0.0284  0.8761
 6777TIP3    H144526   3.917   3.758   1.120  1.4820 -0.4018  2.2671
 6777TIP3    H244527   3.802   3.660   1.116  0.0603  1.2436 -0.8385
 6778TIP3   OH244528   0.182   2.743   3.355  0.2223  0.1069 -0.6873
 6778TIP3    H144529   0.228   2.767   3.435  2.1663 -0.7178 -1.5108
 6778TIP3    H244530   0.141   2.659   3.375  0.0469  0.2754 -0.3273
 6779TIP3   OH244531   4.759   1.907   1.586 -0.0242 -0.0669  0.3152
 6779TIP3    H144532   4.702   1.928   1.660  0.6454  1.3883  0.4521
 6779TIP3    H244533   4.774   1.991   1.542  1.3818 -0.5319 -0.1656
 6780TIP3   OH244534   2.246   6.263   2.246 -0.5892  0.1593 -0.2339
 6780TIP3    H144535   2.220   6.177   2.277  0.3648 -0.2628 -0.5621
 6780TIP3    H244536   2.270   6.250   2.154 -2.8928  1.2891 -1.0788
 6781TIP3   OH244537   3.113   4.523   1.062  0.3178  0.4748  0.3638
 6781TIP3    H144538   3.139   4.444   1.014 -0.0317  0.1677  0.6687
 6781TIP3    H244539   3.196   4.568   1.081  0.3537  1.7172 -2.3436
 6782TIP3   OH244540   2.578   5.913   2.723  0.1601 -0.4800  0.1682
 6782TIP3    H144541   2.526   5.919   2.803 -0.1103  1.0794 -0.0922
 6782TIP3    H244542   2.558   5.994   2.675  0.3586 -1.3528 -1.4543
 6783TIP3   OH244543   4.346   7.306   1.725 -0.3876 -0.3382 -0.0526
 6783TIP3    H144544   4.320   7.387   1.770  0.9509  0.5362 -0.8125
 6783TIP3    H244545   4.383   7.251   1.795 -1.9549 -0.6280  0.5994
 6784TIP3   OH244546   4.242   4.701   2.430  0.1609  0.3378  0.1074
 6784TIP3    H144547   4.317   4.655   2.392 -0.1726 -0.7556  0.7287
 6784TIP3    H244548   4.203   4.748   2.357 -0.0127 -1.0970 -0.7551
 6785TIP3   OH244549   7.580   0.270   2.800  0.3566  0.8469 -0.4644
 6785TIP3    H144550   7.535   0.326   2.864  0.6164  0.5393 -0.0122
 6785TIP3    H244551   7.607   0.331   2.731  0.6197  1.2827  0.0137
 6786TIP3   OH244552   4.531   0.366   2.479  0.6559  0.1238  0.1092
 6786TIP3    H144553   4.589   0.317   2.537  1.4677  0.6451 -0.2493
 6786TIP3    H244554   4.457   0.306   2.463  1.6079 -0.9703 -0.3069
 6787TIP3   OH244555   6.715   3.086   0.388  0.3771  0.1733  0.5217
 6787TIP3    H144556   6.747   3.074   0.299 -1.5857  1.8956 -0.5277
 6787TIP3    H244557   6.772   3.153   0.425  0.5922  0.1787  0.1855
 6788TIP3   OH244558   3.185   6.443   0.551 -0.0032  0.3466  0.3986
 6788TIP3    H144559   3.107   6.397   0.583 -0.1011  0.6713  0.6362
 6788TIP3    H244560   3.151   6.526   0.518  0.1460  0.1704 -0.2091
 6789TIP3   OH244561   3.984   3.293   0.662 -0.1184  0.8825 -0.2386
 6789TIP3    H144562   4.074   3.271   0.687 -0.2312  0.3327 -0.2867
 6789TIP3    H244563   3.991   3.328   0.573 -0.2150 -1.7747 -1.3838
 6790TIP3   OH244564   7.631   0.498   1.950  0.5175  0.2994  0.3430
 6790TIP3    H144565   7.611   0.440   2.024  0.1821  0.4208  0.3529
 6790TIP3    H244566   7.716   0.536   1.971  0.6906 -0.1092  0.3854
 6791TIP3   OH244567   2.653   5.855   2.159  0.0017 -0.5389  0.0895
 6791TIP3    H144568   2.575   5.905   2.185  0.8031  0.1823  1.2291
 6791TIP3    H244569   2.703   5.916   2.104  0.0632 -0.7763 -0.1186
 6792TIP3   OH244570   6.976   4.086   0.713 -0.7505 -0.2104 -0.3238
 6792TIP3    H144571   6.953   4.179   0.715  0.0604  0.0058 -0.6983
 6792TIP3    H244572   6.986   4.062   0.805 -2.1887 -0.2513 -0.1579
 6793TIP3   OH244573   3.523   5.508   1.712  0.4348  0.6880 -0.2920
 6793TIP3    H144574   3.574   5.523   1.633 -0.1771 -3.6551 -1.8198
 6793TIP3    H244575   3.435   5.491   1.680  0.2627 -1.5814  1.1768
 6794TIP3   OH244576   5.065   2.648   1.732 -0.4597  0.5227 -0.7121
 6794TIP3    H144577   5.127   2.614   1.668  0.5748 -1.2330  1.0964
 6794TIP3    H244578   5.120   2.683   1.802 -1.5292  1.3006 -0.2325
 6795TIP3   OH244579   1.494   3.728   2.986  0.4263  0.1560 -0.5601
 6795TIP3    H144580   1.522   3.819   2.981 -1.0625  0.7254  0.9055
 6795TIP3    H244581   1.575   3.680   3.007  0.8580  1.4118  0.8381
 6796TIP3   OH244582   7.657   2.614   0.862  0.3384  0.6946 -0.1576
 6796TIP3    H144583   7.627   2.681   0.800  0.8865 -1.3997 -2.8538
 6796TIP3    H244584   7.752   2.612   0.851  0.3525 -0.3360  0.0821
 6797TIP3   OH244585   4.946   3.839   2.414 -0.7045  0.0990  0.2394
 6797TIP3    H144586   4.954   3.802   2.502 -0.8925  0.4222  0.3969
 6797TIP3    H244587   4.893   3.918   2.427  0.4012  0.9011  0.0631
 6798TIP3   OH244588   6.175   1.375   3.474 -0.4213 -0.3549  0.0179
 6798TIP3    H144589   6.232   1.408   3.544 -2.0061  1.1321  0.6847
 6798TIP3    H244590   6.227   1.383   3.394  1.4403 -2.0883  0.9390
 6799TIP3   OH244591   7.219   1.054   1.850 -0.3276  0.0367  0.2089
 6799TIP3    H144592   7.212   0.968   1.809 -1.0451  0.1868 -0.0027
 6799TIP3    H244593   7.299   1.050   1.902 -0.3229 -0.7343  0.1456
 6800TIP3   OH244594   7.560   0.183   2.401  0.2501 -0.1804  0.2494
 6800TIP3    H144595   7.501   0.181   2.476 -0.9322 -2.4926 -0.6507
 6800TIP3    H244596   7.646   0.202   2.439  0.0464 -3.0366  2.5450
 6801TIP3   OH244597   3.938   2.992   1.356 -0.6395  0.3575 -1.2088
 6801TIP3    H144598   4.028   2.983   1.326 -0.8629 -1.3686 -1.4729
 6801TIP3    H244599   3.905   2.902   1.360 -2.0379  0.8787 -0.1592
 6802TIP3   OH244600   4.761   7.297   1.818  0.3933  0.4015  0.1897
 6802TIP3    H144601   4.734   7.212   1.851 -0.3351  0.4905 -0.1530
 6802TIP3    H244602   4.716   7.305   1.733  0.8961  0.8833 -0.0381
 6803TIP3   OH244603   1.501   1.257   2.748 -0.3807  0.2479 -0.4103
 6803TIP3    H144604   1.535   1.342   2.778  1.5239 -0.1825 -1.2006
 6803TIP3    H244605   1.425   1.279   2.695  1.7092  1.8009 -3.0333
 6804TIP3   OH244606   4.971   5.735   0.715 -0.4012 -0.6476 -0.3220
 6804TIP3    H144607   4.942   5.785   0.791 -0.0103  0.8066 -1.0839
 6804TIP3    H244608   4.894   5.732   0.658 -1.1890 -3.0997  0.7369
 6805TIP3   OH244609   2.447   4.434   3.685 -0.5283  0.1437 -0.1491
 6805TIP3    H144610   2.358   4.439   3.720 -0.5713 -1.0729 -0.0334
 6805TIP3    H244611   2.450   4.349   3.641  0.1465  0.7833 -1.3808
 6806TIP3   OH244612   1.906   5.721   2.450  0.6337  0.4583  0.0086
 6806TIP3    H144613   1.991   5.765   2.446  0.6011  0.5538  0.3152
 6806TIP3    H244614   1.918   5.653   2.517  0.2324  0.9931  0.6343
 6807TIP3   OH244615   6.279   1.744   1.940  0.5925 -0.4137 -0.1830
 6807TIP3    H144616   6.369   1.773   1.928  0.2206  0.7156 -0.3875
 6807TIP3    H244617   6.251   1.786   2.022  0.1801 -0.5681 -0.2433
 6808TIP3   OH244618   1.126   1.212   1.296 -1.0456  0.0077 -0.7740
 6808TIP3    H144619   1.127   1.235   1.389  2.6399  0.3056 -0.7401
 6808TIP3    H244620   1.106   1.294   1.250  0.8555  0.7855 -0.2942
 6809TIP3   OH244621   3.769   5.139   2.767 -0.1006  0.3536  0.4257
 6809TIP3    H144622   3.740   5.205   2.830 -1.3929 -0.4352  0.6787
 6809TIP3    H244623   3.842   5.095   2.810 -0.5040  0.3079  1.0647
 6810TIP3   OH244624   1.741   5.725   0.936 -0.1165  0.4098  1.5220
 6810TIP3    H144625   1.720   5.647   0.886  2.6009 -1.0984  2.5295
 6810TIP3    H244626   1.663   5.741   0.989 -0.4391 -2.2501  1.9986
 6811TIP3   OH244627   0.881   4.616   2.121  0.0258 -0.2015 -0.1989
 6811TIP3    H144628   0.964   4.636   2.165  0.9815 -0.6659 -1.7119
 6811TIP3    H244629   0.865   4.524   2.140 -0.8173  0.1711  1.0878
 6812TIP3   OH244630   4.041   4.293   1.060 -0.8213  0.4523  0.3891
 6812TIP3    H144631   3.963   4.243   1.083  0.2124 -1.7684 -0.5991
 6812TIP3    H244632   4.070   4.254   0.977  1.7499  0.6750  1.1138
 6813TIP3   OH244633   6.278   4.889   2.525  0.7662 -0.3725  0.1168
 6813TIP3    H144634   6.201   4.834   2.539  0.6335  0.4408  3.4248
 6813TIP3    H244635   6.346   4.829   2.496 -0.2833 -1.6640  0.2387
 6814TIP3   OH244636   2.709   2.882   0.505 -0.7143 -0.5595 -0.5798
 6814TIP3    H144637   2.803   2.872   0.496 -0.8398 -0.9269 -1.5818
 6814TIP3    H244638   2.696   2.975   0.524 -0.1017 -0.6829  0.5629
 6815TIP3   OH244639   4.115   5.077   0.654 -0.4929 -0.4191 -0.3299
 6815TIP3    H144640   4.133   5.003   0.596 -0.8775 -0.2864 -0.6242
 6815TIP3    H244641   4.021   5.071   0.672 -0.0496 -1.7003  2.0050
 6816TIP3   OH244642   7.621   2.119   1.840  0.1663 -0.0127  0.4208
 6816TIP3    H144643   7.656   2.132   1.752  1.4331 -1.8515  0.5910
 6816TIP3    H244644   7.578   2.034   1.837 -2.6548  1.2917  0.7945
 6817TIP3   OH244645   4.794   0.969   1.055  0.9057 -0.0456  0.8159
 6817TIP3    H144646   4.811   1.063   1.043  3.4006 -0.4659  0.3797
 6817TIP3    H244647   4.844   0.927   0.985 -0.1241 -1.7091  1.0383
 6818TIP3   OH244648   2.037   3.957   1.227  0.6347  0.0040 -0.1859
 6818TIP3    H144649   2.068   4.023   1.288  0.7359 -0.5604  0.3850
 6818TIP3    H244650   2.028   4.003   1.144  0.9280  0.6736  0.1482
 6819TIP3   OH244651   0.393   2.688   1.284 -0.3393  0.4602  0.2767
 6819TIP3    H144652   0.392   2.741   1.364 -0.7935  0.9886 -0.0742
 6819TIP3    H244653   0.434   2.745   1.219 -0.9854  0.4403 -0.1476
 6820TIP3   OH244654   3.950   2.493   1.627 -0.3175 -0.0141 -0.3524
 6820TIP3    H144655   3.902   2.476   1.708 -0.2745 -0.3061 -0.3867
 6820TIP3    H244656   3.925   2.582   1.602  0.4086  0.4623  0.5100
 6821TIP3   OH244657   1.867   3.234   2.039 -0.7784 -0.4665  0.6180
 6821TIP3    H144658   1.945   3.271   1.999 -2.4662  3.6820  0.6246
 6821TIP3    H244659   1.886   3.232   2.132  0.7253 -3.6807  0.3639
 6822TIP3   OH244660   5.413   5.101   2.748 -0.0869  0.7099 -0.2393
 6822TIP3    H144661   5.471   5.093   2.823  0.9179  2.1894 -0.8061
 6822TIP3    H244662   5.329   5.130   2.784  0.7004  2.5124  0.2484
 6823TIP3   OH244663   7.192   4.589   2.570 -0.8623  0.0017 -0.0156
 6823TIP3    H144664   7.224   4.500   2.581 -2.7077 -0.7730 -0.4595
 6823TIP3    H244665   7.244   4.641   2.631  0.9004 -1.1928 -0.4376
 6824TIP3   OH244666   7.224   5.188   8.686  0.0627  0.0663  0.1811
 6824TIP3    H144667   7.230   5.166   8.779 -0.8909  1.7619  0.6804
 6824TIP3    H244668   7.225   5.283   8.684 -1.1513  0.0723 -1.4410
 6825TIP3   OH244669   5.235   6.689   3.096 -0.5075 -0.0473 -0.1831
 6825TIP3    H144670   5.212   6.618   3.155 -2.2299  1.5424  1.1914
 6825TIP3    H244671   5.330   6.694   3.100 -0.5214 -0.5686  1.8104
 6826TIP3   OH244672   0.884   2.300   1.990 -0.3110 -0.2657 -0.5546
 6826TIP3    H144673   0.860   2.273   1.901 -2.4700  1.5711 -0.6264
 6826TIP3    H244674   0.859   2.226   2.045 -1.2577 -0.4794 -1.2432
 6827TIP3   OH244675   3.792   7.245   1.903 -0.1262 -0.3111 -0.6565
 6827TIP3    H144676   3.817   7.256   1.811 -2.2485  0.7702 -1.1644
 6827TIP3    H244677   3.707   7.288   1.910 -0.8298 -1.8995  1.4387
 6828TIP3   OH244678   1.663   5.991   1.250 -0.1894  0.0950 -0.3823
 6828TIP3    H144679   1.676   6.074   1.295 -0.8260  0.3036 -0.5745
 6828TIP3    H244680   1.697   5.925   1.311 -1.7201  0.3086  0.7680
 6829TIP3   OH244681   3.577   5.926   0.512 -0.4764  0.4775 -0.7177
 6829TIP3    H144682   3.632   5.849   0.521  0.7372  1.2490 -1.3680
 6829TIP3    H244683   3.488   5.894   0.532  0.3163 -0.5055  1.6498
 6830TIP3   OH244684   7.538   6.865   2.066  0.3189 -0.7433  0.2401
 6830TIP3    H144685   7.603   6.795   2.071  3.3463  1.8853  0.9261
 6830TIP3    H244686   7.549   6.914   2.148 -1.3511  0.8040 -0.3982
 6831TIP3   OH244687   2.256   1.536   1.042  0.0533  0.0094 -0.5441
 6831TIP3    H144688   2.219   1.500   1.123 -0.9262  1.9781 -0.0640
 6831TIP3    H244689   2.341   1.571   1.068 -0.3147  0.7530 -0.3196
 6832TIP3   OH244690   1.654   0.227   0.512 -0.7756 -0.4955  0.0343
 6832TIP3    H144691   1.598   0.214   0.589  0.8581  0.0019  1.3956
 6832TIP3    H244692   1.742   0.236   0.549 -0.0948  1.0132 -1.8134
 6833TIP3   OH244693   6.308   1.060   1.886 -0.1297  0.6516 -0.3812
 6833TIP3    H144694   6.279   1.106   1.965  1.4276  2.5946 -0.8712
 6833TIP3    H244695   6.387   1.014   1.913  0.6992  1.7362 -0.8816
 6834TIP3   OH244696   6.890   5.333   1.247 -0.8488 -0.2222  0.1889
 6834TIP3    H144697   6.897   5.372   1.160  0.8182  0.6660  0.6662
 6834TIP3    H244698   6.805   5.289   1.248 -0.3302 -1.4182 -2.3452
 6835TIP3   OH244699   7.548   2.382   0.951  0.0562  0.0432 -0.1366
 6835TIP3    H144700   7.587   2.469   0.952 -0.7508  0.4739 -2.0056
 6835TIP3    H244701   7.454   2.398   0.959  0.0384 -0.8767  2.5370
 6836TIP3   OH244702   0.250   7.462   0.512 -0.1704 -0.0285  0.1749
 6836TIP3    H144703   0.211   7.466   0.425  1.0853 -0.3949 -0.4358
 6836TIP3    H244704   0.301   7.543   0.519 -0.4768  0.1285  0.6917
 6837TIP3   OH244705   3.757   6.447   1.997 -0.0666 -0.4355 -0.4624
 6837TIP3    H144706   3.806   6.508   2.052  1.4942 -0.6246 -1.5710
 6837TIP3    H244707   3.718   6.502   1.928 -0.8785 -0.3733  0.0346
 6838TIP3   OH244708   6.130   3.746   3.594  0.0148 -0.2896 -0.2181
 6838TIP3    H144709   6.215   3.721   3.630 -0.8268  0.1216  2.1954
 6838TIP3    H244710   6.111   3.831   3.634 -0.9284  0.2980 -1.8078
 6839TIP3   OH244711   2.787   0.665   1.739 -0.0130 -0.0673  0.3718
 6839TIP3    H144712   2.762   0.666   1.647 -1.3336 -1.2658  0.6853
 6839TIP3    H244713   2.879   0.638   1.739 -0.4859 -1.8285 -0.5380
 6840TIP3   OH244714   6.371   2.920   0.786 -0.2482 -0.1635 -0.4179
 6840TIP3    H144715   6.316   2.862   0.732 -0.2784 -0.7313  0.2149
 6840TIP3    H244716   6.440   2.949   0.726 -2.5454  2.5935 -1.9869
 6841TIP3   OH244717   6.734   5.543   1.714  0.5257  0.2993 -0.5281
 6841TIP3    H144718   6.814   5.544   1.661 -0.2128  0.8649 -1.6654
 6841TIP3    H244719   6.663   5.537   1.651 -0.3743  0.4728  0.4314
 6842TIP3   OH244720   3.938   4.577   0.667  0.2307 -0.6005 -0.6459
 6842TIP3    H144721   3.936   4.481   0.676 -0.6832 -0.4835  0.5977
 6842TIP3    H244722   3.882   4.609   0.737  1.9861  0.9418  0.1490
 6843TIP3   OH244723   1.073   4.312   1.155  0.6588 -0.5179 -0.0732
 6843TIP3    H144724   1.121   4.277   1.230  1.6768 -1.8597 -1.2984
 6843TIP3    H244725   1.116   4.275   1.079 -0.3306  0.8273 -1.3574
 6844TIP3   OH244726   5.381   2.876   1.157  0.1989 -0.1077 -0.4120
 6844TIP3    H144727   5.329   2.905   1.083  0.3316 -0.1993 -0.5413
 6844TIP3    H244728   5.434   2.952   1.181 -2.0591  0.9476  1.5576
 6845TIP3   OH244729   0.328   0.362   2.574  0.0280 -0.0004  0.4514
 6845TIP3    H144730   0.366   0.442   2.611  1.0923 -0.1415 -0.2745
 6845TIP3    H244731   0.245   0.390   2.536 -0.1424  0.5290  1.1983
 6846TIP3   OH244732   7.290   4.340   2.700  0.6759 -0.9683  0.6948
 6846TIP3    H144733   7.260   4.268   2.755 -0.9141 -1.4922 -0.7897
 6846TIP3    H244734   7.342   4.299   2.631  0.1338 -0.6570  0.0918
 6847TIP3   OH244735   3.770   0.360   2.742 -0.3040 -0.6863  0.2633
 6847TIP3    H144736   3.716   0.419   2.794 -0.6489 -0.0129 -0.8350
 6847TIP3    H244737   3.859   0.376   2.773 -0.0235  2.3380 -1.6958
 6848TIP3   OH244738   5.638   6.524   2.596  0.0103 -0.3179  0.1522
 6848TIP3    H144739   5.672   6.498   2.511  0.2435 -1.3425  0.5445
 6848TIP3    H244740   5.714   6.516   2.655 -0.4501 -0.8578  0.6870
 6849TIP3   OH244741   0.009   5.175   1.346 -0.1696  0.2456 -0.7290
 6849TIP3    H144742   0.084   5.155   1.403 -0.5804  1.8500  0.4372
 6849TIP3    H244743   0.049   5.196   1.262  0.6151  0.0209 -0.4280
 6850TIP3   OH244744   2.236   3.739   2.401 -0.0456  0.5635  0.4155
 6850TIP3    H144745   2.279   3.790   2.333 -0.7836 -0.3179 -0.7448
 6850TIP3    H244746   2.264   3.649   2.384 -1.0310  0.2055  0.6658
 6851TIP3   OH244747   5.730   7.662   1.332 -0.0174  0.0890 -0.0169
 6851TIP3    H144748   5.802   7.695   1.277 -0.2366  2.1074  0.8447
 6851TIP3    H244749   5.683   7.740   1.360 -1.6608 -1.1038  0.6921
 6852TIP3   OH244750   6.377   1.791   2.575  0.1015  0.1520 -0.4720
 6852TIP3    H144751   6.404   1.833   2.657  0.0585 -1.3251  0.3328
 6852TIP3    H244752   6.432   1.713   2.569 -0.5561 -0.2557 -1.3666
 6853TIP3   OH244753   7.082   4.057   2.225 -0.2150  0.0338  0.3662
 6853TIP3    H144754   6.994   4.081   2.197 -0.8864 -0.5739  1.8920
 6853TIP3    H244755   7.094   4.103   2.308  0.4681 -0.7926  0.7373
 6854TIP3   OH244756   6.495   3.625   2.589  0.5439 -0.2138 -0.4162
 6854TIP3    H144757   6.578   3.604   2.545  0.3516 -2.9389  0.3306
 6854TIP3    H244758   6.521   3.648   2.678  0.5188 -2.4222  0.2332
 6855TIP3   OH244759   4.294   6.424   1.272  0.4768  0.4449 -0.3184
 6855TIP3    H144760   4.279   6.413   1.366 -0.4887 -0.7165 -0.5821
 6855TIP3    H244761   4.309   6.518   1.261  1.2957  0.5003  1.0797
 6856TIP3   OH244762   4.489   6.844   1.172 -0.2363  0.8249  0.1137
 6856TIP3    H144763   4.568   6.796   1.196 -2.5882 -1.7661  3.5225
 6856TIP3    H244764   4.488   6.919   1.231 -0.7317  0.3653  0.6967
 6857TIP3   OH244765   3.791   7.013   2.992 -0.2779 -0.2911 -0.0963
 6857TIP3    H144766   3.812   7.101   3.024 -0.3147  0.0084 -0.8683
 6857TIP3    H244767   3.778   6.961   3.071 -2.5742  0.9393  0.4493
 6858TIP3   OH244768   7.185   2.742   2.628  0.0013 -0.5050  0.0719
 6858TIP3    H144769   7.097   2.757   2.594  0.2625  0.8602 -0.0515
 6858TIP3    H244770   7.176   2.668   2.688 -1.5965  0.8084  1.5363
 6859TIP3   OH244771   7.341   7.270   1.680 -0.5691 -0.3265 -0.0015
 6859TIP3    H144772   7.298   7.219   1.748  0.1757  0.0894  0.8043
 6859TIP3    H244773   7.297   7.355   1.681  0.4852  0.2232  1.0741
 6860TIP3   OH244774   3.887   3.951   1.115 -0.6543  0.5550  0.5120
 6860TIP3    H144775   3.799   3.938   1.080 -0.9416 -1.8212  1.8579
 6860TIP3    H244776   3.935   3.995   1.045 -2.4386  0.3294 -0.9319
 6861TIP3   OH244777   1.745   6.284   2.348  0.1279  0.1642  0.1033
 6861TIP3    H144778   1.790   6.368   2.359 -1.0859  0.8222  0.1928
 6861TIP3    H244779   1.653   6.308   2.334  0.0198 -1.0745 -1.5232
 6862TIP3   OH244780   0.336   0.446   0.443 -0.4330 -0.0668 -0.3632
 6862TIP3    H144781   0.428   0.431   0.465 -1.1942 -0.2758  3.5218
 6862TIP3    H244782   0.299   0.358   0.433 -0.5237 -0.0616 -0.1001
 6863TIP3   OH244783   4.892   7.426   2.503 -0.1967 -0.4518 -0.4175
 6863TIP3    H144784   4.828   7.405   2.571 -0.8446 -1.2448 -1.2603
 6863TIP3    H244785   4.842   7.427   2.422  0.9652 -1.9095 -1.2098
 6864TIP3   OH244786   0.617   1.772   1.866  0.1332 -0.5747  0.1218
 6864TIP3    H144787   0.555   1.749   1.936  0.3835 -0.1448  0.4879
 6864TIP3    H244788   0.613   1.867   1.861 -1.3258 -0.6711 -1.7809
 6865TIP3   OH244789   1.960   5.843   2.048  0.0615  0.1367  0.5945
 6865TIP3    H144790   2.002   5.924   2.021 -0.6015 -0.4560 -2.6430
 6865TIP3    H244791   1.890   5.871   2.108  0.0053  1.9578 -0.2564
 6866TIP3   OH244792   3.477   5.321   1.101 -0.2190  1.1888  0.0368
 6866TIP3    H144793   3.506   5.314   1.192  0.8361  0.4643 -0.3353
 6866TIP3    H244794   3.525   5.396   1.066  0.4461  0.6283 -0.2876
 6867TIP3   OH244795   1.090   3.413   1.520  0.0143 -0.1038  0.0682
 6867TIP3    H144796   1.130   3.338   1.566 -1.0981 -1.4527 -1.0728
 6867TIP3    H244797   1.014   3.376   1.475 -0.0385  1.5419 -1.3036
 6868TIP3   OH244798   6.147   5.586   0.942  0.4318  0.0154 -0.4805
 6868TIP3    H144799   6.229   5.541   0.964 -0.8498 -1.6968  1.0976
 6868TIP3    H244800   6.127   5.638   1.020  1.1280  2.2925 -1.7305
 6869TIP3   OH244801   2.360   0.568   2.028  0.2329 -0.2610  0.1507
 6869TIP3    H144802   2.308   0.491   2.008  0.3662 -0.2982 -0.0505
 6869TIP3    H244803   2.327   0.636   1.969  0.2260 -0.2095  0.2138
 6870TIP3   OH244804   6.973   7.202   2.522 -0.0023  0.5496  0.4517
 6870TIP3    H144805   7.031   7.198   2.446  0.9377 -2.8657  1.1578
 6870TIP3    H244806   7.031   7.199   2.598 -0.9984 -0.8608  1.2099
 6871TIP3   OH244807   6.115   4.969   1.554 -0.7318  0.0272  0.0219
 6871TIP3    H144808   6.035   4.918   1.566 -1.6274  0.8092 -2.1177
 6871TIP3    H244809   6.132   4.965   1.460  1.6274  0.1020  0.3963
 6872TIP3   OH244810   6.711   5.809   0.619 -0.4740 -0.2471  0.0232
 6872TIP3    H144811   6.639   5.872   0.623 -0.1403  0.1395  0.0095
 6872TIP3    H244812   6.678   5.739   0.562 -1.0389 -0.3431  0.4607
 6873TIP3   OH244813   4.799   5.804   0.505 -0.0349  0.1135  0.3542
 6873TIP3    H144814   4.709   5.837   0.507  0.5100  1.6548  1.0507
 6873TIP3    H244815   4.790   5.709   0.493 -1.6561  0.5022 -1.9602
 6874TIP3   OH244816   1.184   7.013   2.592 -0.3435 -0.6028  0.0673
 6874TIP3    H144817   1.146   6.930   2.564  1.4931 -0.9222 -1.6633
 6874TIP3    H244818   1.186   7.066   2.512 -0.6397  0.8071  0.9502
 6875TIP3   OH244819   5.347   7.666   2.473  0.1614  0.1240  0.0479
 6875TIP3    H144820   5.373   7.643   2.562 -0.8077  0.5521  0.4513
 6875TIP3    H244821   5.285   7.599   2.447 -0.1533  0.4369 -0.0144
 6876TIP3   OH244822   1.484   3.129   3.297  0.2372  0.1793 -0.4015
 6876TIP3    H144823   1.541   3.197   3.263 -0.5830  1.1212  0.0238
 6876TIP3    H244824   1.427   3.175   3.359  0.1291 -1.0292  0.4351
 6877TIP3   OH244825   5.306   4.005   2.650  0.6851  0.0728 -0.3293
 6877TIP3    H144826   5.250   4.080   2.669  1.7329  0.5848  0.9196
 6877TIP3    H244827   5.395   4.039   2.661  1.1718 -1.4383  0.7014
 6878TIP3   OH244828   1.087   3.063   1.410 -0.4231 -0.0004 -0.0665
 6878TIP3    H144829   1.166   3.015   1.433  0.7403  1.9680  0.2979
 6878TIP3    H244830   1.024   3.041   1.478  0.2632 -0.5652  0.3973
 6879TIP3   OH244831   2.176   0.718   2.446 -0.2079  0.2249 -0.1859
 6879TIP3    H144832   2.159   0.681   2.359 -0.2492 -0.5750  0.1490
 6879TIP3    H244833   2.226   0.650   2.491 -2.5394 -0.5989  1.3615
 6880TIP3   OH244834   7.625   2.166   2.153 -0.1626 -0.7170 -0.2182
 6880TIP3    H144835   7.647   2.164   2.060  1.2135  1.5656 -0.0126
 6880TIP3    H244836   7.538   2.207   2.156  0.0388 -0.2551 -0.4929
 6881TIP3   OH244837   1.303   2.120   2.179  0.6480 -0.0322  0.3009
 6881TIP3    H144838   1.316   2.204   2.224  0.1531  0.5211 -0.5549
 6881TIP3    H244839   1.381   2.069   2.200  0.4475  0.2238  1.7332
 6882TIP3   OH244840   0.752   0.927   0.638 -0.5826  0.0985 -0.1734
 6882TIP3    H144841   0.747   0.977   0.720 -0.0619  0.5819 -0.4257
 6882TIP3    H244842   0.726   0.989   0.570 -1.0458 -0.3105 -0.3738
 6883TIP3   OH244843   0.887   5.784   0.606 -0.1460  0.4915 -0.0826
 6883TIP3    H144844   0.928   5.739   0.680 -0.4308 -0.1085 -0.2893
 6883TIP3    H244845   0.801   5.810   0.639 -0.3077  0.1456 -0.2299
 6884TIP3   OH244846   4.421   4.342   2.746 -0.5061  0.8103 -0.0250
 6884TIP3    H144847   4.339   4.292   2.754 -0.0584  0.0094 -0.3307
 6884TIP3    H244848   4.479   4.284   2.697  0.7827  0.7101  1.5521
 6885TIP3   OH244849   4.362   7.532   2.717  0.2591 -0.1389 -0.1767
 6885TIP3    H144850   4.330   7.457   2.666  0.1594  0.8408 -1.6228
 6885TIP3    H244851   4.328   7.609   2.671  0.3940  0.8113  1.2502
 6886TIP3   OH244852   7.093   7.046   1.653 -0.0894 -0.6589  0.0513
 6886TIP3    H144853   6.997   7.043   1.656 -0.2657  2.3324  0.1241
 6886TIP3    H244854   7.113   7.105   1.579  1.7843 -2.3923 -0.9354
 6887TIP3   OH244855   1.222   7.332   3.004  0.0123 -0.1441  0.3900
 6887TIP3    H144856   1.186   7.327   2.915  1.0966 -0.1507 -0.0675
 6887TIP3    H244857   1.277   7.254   3.013  0.8303  0.4420  0.6338
 6888TIP3   OH244858   1.235   7.016   1.190 -0.5018  0.1485 -0.1440
 6888TIP3    H144859   1.200   7.105   1.194  0.8124  0.7158 -0.6493
 6888TIP3    H244860   1.173   6.968   1.135 -1.7582  0.4687  0.9414
 6889TIP3   OH244861   6.190   6.143   1.055 -0.5211 -0.0568  0.1078
 6889TIP3    H144862   6.231   6.159   1.140 -2.7128  1.5053  0.9489
 6889TIP3    H244863   6.251   6.181   0.992 -1.6388  4.7309  1.5030
 6890TIP3   OH244864   6.904   5.773   2.610  0.2489 -0.6158  0.2863
 6890TIP3    H144865   6.968   5.751   2.542 -0.3177 -1.4630  0.0063
 6890TIP3    H244866   6.837   5.706   2.602 -0.8050  0.3951  0.4187
 6891TIP3   OH244867   6.826   7.170   2.950 -0.4825  0.2038 -0.5527
 6891TIP3    H144868   6.754   7.188   2.889 -1.7740  2.7796  1.5198
 6891TIP3    H244869   6.787   7.113   3.016  0.4898 -1.3585 -1.2705
 6892TIP3   OH244870   3.472   2.427   1.397 -0.0216  0.2422 -0.0957
 6892TIP3    H144871   3.396   2.438   1.454 -1.1547 -1.7732 -1.0926
 6892TIP3    H244872   3.441   2.451   1.310  0.5779 -0.2710 -0.4628
 6893TIP3   OH244873   4.992   5.346   2.050 -0.8931 -0.0383  0.1175
 6893TIP3    H144874   5.036   5.427   2.077  0.7426 -0.6647 -0.5776
 6893TIP3    H244875   5.024   5.330   1.961 -0.2547 -2.0896  0.6779
 6894TIP3   OH244876   6.333   6.148   1.276 -0.4183 -0.3406 -0.0774
 6894TIP3    H144877   6.393   6.210   1.319  1.4097 -0.9788 -1.5446
 6894TIP3    H244878   6.391   6.084   1.235 -2.2174 -2.6223  0.7238
 6895TIP3   OH244879   3.572   1.096   2.883  0.3827 -0.8573  0.0630
 6895TIP3    H144880   3.502   1.150   2.920  1.6610  0.4580  0.6702
 6895TIP3    H244881   3.529   1.043   2.816 -1.0144  0.6342 -0.2856
 6896TIP3   OH244882   7.600   7.281   2.813  0.2175 -0.0286  0.4492
 6896TIP3    H144883   7.580   7.325   2.896  0.1377  0.1636  0.3275
 6896TIP3    H244884   7.533   7.313   2.752 -0.0228 -0.5401  0.4353
 6897TIP3   OH244885   4.267   7.097   0.833  0.0609 -0.2991  0.3831
 6897TIP3    H144886   4.356   7.064   0.820  0.2684  0.1311  0.6784
 6897TIP3    H244887   4.277   7.192   0.836 -0.5960 -0.1730 -0.9768
 6898TIP3   OH244888   4.244   6.308   1.532 -0.7369  0.2304 -0.1885
 6898TIP3    H144889   4.300   6.235   1.505  0.1758  0.8580 -0.0223
 6898TIP3    H244890   4.167   6.266   1.571 -1.2981 -0.6857 -2.1297
 6899TIP3   OH244891   5.348   4.698   2.484 -0.3169  0.4371 -0.2360
 6899TIP3    H144892   5.263   4.695   2.439  0.4344  1.1087 -1.7656
 6899TIP3    H244893   5.367   4.792   2.493 -0.3003  0.3125  1.2449
 6900TIP3   OH244894   5.975   6.467   0.718  0.6970  0.1942  0.5424
 6900TIP3    H144895   6.025   6.545   0.743 -0.3294  1.4992 -1.2624
 6900TIP3    H244896   6.031   6.423   0.653  1.4544 -0.8458  1.8521
 6901TIP3   OH244897   0.968   3.224   3.381 -0.0549 -0.4464 -0.4691
 6901TIP3    H144898   1.034   3.287   3.351  0.0286  0.4696  1.4926
 6901TIP3    H244899   1.016   3.144   3.398  0.4547  0.0195  0.3232
 6902TIP3   OH244900   4.758   3.147   3.059  0.2394  0.0126  0.3858
 6902TIP3    H144901   4.810   3.122   2.982  0.6069  0.9763  0.3082
 6902TIP3    H244902   4.814   3.208   3.106 -0.6155  0.6382  0.5959
 6903TIP3   OH244903   6.627   4.451   2.055 -0.0241  0.2018  0.1361
 6903TIP3    H144904   6.706   4.421   2.011 -0.4210 -0.5453 -0.0843
 6903TIP3    H244905   6.555   4.414   2.004 -0.5330  1.3157  0.0181
 6904TIP3   OH244906   2.017   6.968   0.775  0.0147 -0.1558 -0.3914
 6904TIP3    H144907   1.942   6.911   0.791 -0.7431  0.8188 -0.4064
 6904TIP3    H244908   1.979   7.055   0.762  0.9910  0.0560 -2.1365
 6905TIP3   OH244909   4.827   5.540   2.722 -0.6339 -0.2642 -0.2143
 6905TIP3    H144910   4.904   5.497   2.760 -1.9862 -1.7119  1.0009
 6905TIP3    H244911   4.861   5.587   2.646  2.0581  1.9696  2.1465
 6906TIP3   OH244912   3.515   1.816   2.473  0.3384  0.1518  0.0753
 6906TIP3    H144913   3.424   1.819   2.501  0.9926 -0.8503  2.7233
 6906TIP3    H244914   3.551   1.739   2.517  1.9257 -0.9435 -2.8367
 6907TIP3   OH244915   5.432   4.302   2.525 -0.4391 -0.9505 -0.4156
 6907TIP3    H144916   5.501   4.238   2.543 -1.0806 -1.6364 -0.3269
 6907TIP3    H244917   5.418   4.346   2.609  0.5758 -0.1013 -0.6756
 6908TIP3   OH244918   0.512   1.693   3.026  0.5446 -0.4295  0.2305
 6908TIP3    H144919   0.496   1.606   2.990  1.0721 -0.8985  1.0958
 6908TIP3    H244920   0.426   1.724   3.053  0.2568 -0.3913 -0.6839
 6909TIP3   OH244921   3.064   1.295   1.843 -0.2281 -0.6527 -0.3635
 6909TIP3    H144922   3.153   1.262   1.851 -0.3169 -0.6012  1.2496
 6909TIP3    H244923   3.072   1.376   1.793  0.8497  0.0530  0.8753
 6910TIP3   OH244924   6.343   6.600   0.573  0.2832 -0.1120 -0.1407
 6910TIP3    H144925   6.257   6.641   0.584  0.4695  0.1942  0.2089
 6910TIP3    H244926   6.328   6.507   0.589 -0.4305 -0.4329 -2.3496
 6911TIP3   OH244927   5.023   5.289   1.664  0.4334 -0.9210 -0.1869
 6911TIP3    H144928   5.109   5.319   1.691  0.8501 -1.6994 -0.6302
 6911TIP3    H244929   4.990   5.239   1.738  0.8699 -1.6326 -0.4663
 6912TIP3   OH244930   7.011   0.056   1.358 -0.3522 -0.2823 -0.3602
 6912TIP3    H144931   7.076   0.109   1.312  0.4457 -1.2170 -0.3402
 6912TIP3    H244932   7.036  -0.034   1.338 -0.1843 -0.7123  1.5972
 6913TIP3   OH244933   3.645   2.908   1.996 -0.0511 -0.8674 -0.0453
 6913TIP3    H144934   3.699   2.830   2.006 -0.5806 -1.4192 -1.2965
 6913TIP3    H244935   3.698   2.968   1.944 -0.3253 -1.0999 -0.6007
 6914TIP3   OH244936   2.903   2.907   1.313 -0.2629 -0.2685 -0.3559
 6914TIP3    H144937   2.949   2.887   1.231 -0.9829  0.7530 -1.0289
 6914TIP3    H244938   2.921   3.000   1.328 -1.0717 -0.1737  0.0502
 6915TIP3   OH244939   1.860   2.991   1.082 -0.6614 -0.2219  0.0301
 6915TIP3    H144940   1.941   2.942   1.094 -0.5385 -0.7372 -2.3869
 6915TIP3    H244941   1.868   3.066   1.141  2.3413  0.6266 -1.2656
 6916TIP3   OH244942   0.483   3.278   1.455 -0.2849  0.0656 -0.1978
 6916TIP3    H144943   0.392   3.288   1.429 -0.4574 -0.8565  0.0280
 6916TIP3    H244944   0.521   3.219   1.389 -0.1945 -0.6077  0.4399
 6917TIP3   OH244945   7.097   4.907   0.575  0.2355  0.0525  0.0172
 6917TIP3    H144946   7.016   4.923   0.624 -0.6023 -1.5171 -0.7705
 6917TIP3    H244947   7.076   4.935   0.486  0.5108 -0.4807 -0.2170
 6918TIP3   OH244948   3.052   4.012   0.774  0.4801 -0.1519  0.1927
 6918TIP3    H144949   2.987   3.947   0.752 -0.2344  0.7823 -0.5369
 6918TIP3    H244950   3.028   4.090   0.724  0.9085  0.9009  1.5224
 6919TIP3   OH244951   5.587   0.728   1.421  0.4353  0.2597  0.3553
 6919TIP3    H144952   5.595   0.676   1.501 -2.0742 -0.7541  0.0275
 6919TIP3    H244953   5.589   0.664   1.350  0.5173  0.9355 -0.2685
 6920TIP3   OH244954   6.494   4.508   0.718  0.8517 -0.2136  0.1144
 6920TIP3    H144955   6.408   4.513   0.677  0.8848 -0.4840  0.0109
 6920TIP3    H244956   6.551   4.559   0.659  0.7667 -0.0416  0.1791
 6921TIP3   OH244957   2.422   6.663   1.237 -0.3656  0.2418 -0.3895
 6921TIP3    H144958   2.429   6.623   1.324 -2.9735  1.5716  0.5380
 6921TIP3    H244959   2.385   6.595   1.182  0.2742 -0.2701 -0.2028
 6922TIP3   OH244960   4.882   0.651   2.794  0.2879  0.8178  0.4592
 6922TIP3    H144961   4.903   0.588   2.863 -0.0275  2.2357  1.8921
 6922TIP3    H244962   4.911   0.735   2.828 -0.4318  1.6481 -0.8957
 6923TIP3   OH244963   2.271   4.270   1.007  0.0335 -0.4263  0.4284
 6923TIP3    H144964   2.189   4.316   1.020  0.0092 -1.0347  3.0314
 6923TIP3    H244965   2.246   4.181   0.983 -0.2957 -1.3063  3.5360
 6924TIP3   OH244966   6.588   6.767   1.136 -0.2776 -0.0254  0.3238
 6924TIP3    H144967   6.675   6.800   1.115 -1.0643  0.6702 -2.2773
 6924TIP3    H244968   6.528   6.826   1.090 -1.8935 -2.9633 -1.6585
 6925TIP3   OH244969   4.506   0.240   1.795  0.4333  0.1779 -0.0397
 6925TIP3    H144970   4.494   0.335   1.804 -0.2419  0.3216 -2.0336
 6925TIP3    H244971   4.482   0.205   1.881  1.6601  1.8552  1.0643
 6926TIP3   OH244972   5.765   2.164   0.795  0.2920 -0.1574 -0.7049
 6926TIP3    H144973   5.831   2.215   0.747  1.0676  0.1151  0.6122
 6926TIP3    H244974   5.816   2.109   0.854 -0.6355 -0.7680 -0.4718
 6927TIP3   OH244975   2.322   3.395   1.294 -0.5841  0.2950 -0.4158
 6927TIP3    H144976   2.312   3.490   1.291  2.5969  0.7351 -0.9958
 6927TIP3    H244977   2.393   3.380   1.356 -1.6390 -1.8144  0.3913
 6928TIP3   OH244978   2.602   0.481   1.789 -0.4549  0.6291  0.8525
 6928TIP3    H144979   2.655   0.559   1.806 -0.3278  0.6570  0.3329
 6928TIP3    H244980   2.519   0.516   1.758 -0.2050  0.5482  0.0805
 6929TIP3   OH244981   6.567   4.474   2.898 -0.1695 -0.0681  0.7563
 6929TIP3    H144982   6.509   4.549   2.885  0.6604  0.3782 -0.4615
 6929TIP3    H244983   6.637   4.507   2.954  0.5803  0.2801 -0.3717
 6930TIP3   OH244984   7.042   2.188   2.246  0.9016  0.2913 -0.3767
 6930TIP3    H144985   7.007   2.106   2.211 -2.5180  0.8542  1.2877
 6930TIP3    H244986   7.091   2.161   2.324 -0.5070 -0.1854  0.3684
 6931TIP3   OH244987   7.557   1.850   2.245  0.2730  0.2042 -0.7435
 6931TIP3    H144988   7.546   1.924   2.305 -0.0917 -0.6002  0.2162
 6931TIP3    H244989   7.470   1.811   2.240  0.0936  0.7856 -2.5266
 6932TIP3   OH244990   4.725   1.998   2.964  0.2861 -0.5634  0.1316
 6932TIP3    H144991   4.680   2.054   3.027  1.1434  0.0181  0.2482
 6932TIP3    H244992   4.659   1.933   2.938 -1.1209  1.1669 -0.8771
 6933TIP3   OH244993   0.412   4.710   1.180  0.7061  0.7706  0.2182
 6933TIP3    H144994   0.335   4.654   1.190  2.3411 -1.4098  1.6933
 6933TIP3    H244995   0.412   4.734   1.088 -1.6032  0.6950  0.1367
 6934TIP3   OH244996   0.888   4.791   0.697  0.1032  0.4307 -0.1862
 6934TIP3    H144997   0.875   4.696   0.706 -0.3672  0.4945 -0.1635
 6934TIP3    H244998   0.806   4.822   0.657  0.4442  0.7589 -0.6345
 6935TIP3   OH244999   6.741   1.559   2.645  0.1046  0.0368 -0.0580
 6935TIP3    H145000   6.817   1.501   2.644 -0.2581 -0.4409 -1.1802
 6935TIP3    H245001   6.687   1.526   2.717  1.1348  0.6456  1.0296
 6936TIP3   OH245002   2.869   6.535   1.741 -0.0077 -0.4825 -0.2764
 6936TIP3    H145003   2.929   6.600   1.705  0.2946 -1.9566 -2.6167
 6936TIP3    H245004   2.785   6.554   1.697 -0.3767 -0.5799  0.3748
 6937TIP3   OH245005   6.823   1.217   0.525  0.5954  0.1448 -0.2751
 6937TIP3    H145006   6.876   1.296   0.534 -0.9766  1.1389  0.6706
 6937TIP3    H245007   6.838   1.168   0.606 -0.3316  0.6998  0.2434
 6938TIP3   OH245008   7.421   3.990   1.350 -0.2315 -0.6396  0.4542
 6938TIP3    H145009   7.414   4.027   1.438  1.5800 -0.4296  0.5351
 6938TIP3    H245010   7.509   3.953   1.346 -1.4744 -3.9568 -0.0126
 6939TIP3   OH245011   5.255   5.515   2.034  0.1722  0.2205 -0.2450
 6939TIP3    H145012   5.238   5.571   1.958  1.1673 -0.9269 -1.3786
 6939TIP3    H245013   5.339   5.475   2.015  1.2135  1.0615  2.2361
 6940TIP3   OH245014   5.252   1.263   1.784 -0.1328  0.0848  0.5488
 6940TIP3    H145015   5.259   1.353   1.753 -1.6163  0.0626  0.0635
 6940TIP3    H245016   5.274   1.210   1.708 -1.1926  0.0500  0.2434
 6941TIP3   OH245017   6.985   6.757   1.144  0.8591  0.1846  0.5583
 6941TIP3    H145018   7.022   6.803   1.219  0.9032  1.1935 -0.0563
 6941TIP3    H245019   6.927   6.822   1.103  1.6479  0.0234 -0.8797
 6942TIP3   OH245020   7.352   2.284   1.743 -0.7674  0.1015 -0.4678
 6942TIP3    H145021   7.410   2.319   1.810 -0.7396  1.0294 -0.9641
 6942TIP3    H245022   7.355   2.348   1.671 -0.2563 -1.2004 -1.6549
 6943TIP3   OH245023   4.356   5.011   3.184  0.2567  0.1486  0.6513
 6943TIP3    H145024   4.310   4.929   3.200 -1.1129  0.9828  1.2102
 6943TIP3    H245025   4.364   5.052   3.270  2.4729 -0.1382  0.6387
 6944TIP3   OH245026   2.097   2.484   1.611  0.0486  0.3404 -0.3934
 6944TIP3    H145027   2.065   2.567   1.575  0.8997  1.4520  1.2308
 6944TIP3    H245028   2.138   2.439   1.537 -1.0198  1.0566 -1.4505
 6945TIP3   OH245029   5.706   2.161   0.519 -0.1036  0.2467  0.1767
 6945TIP3    H145030   5.657   2.235   0.483 -0.5675  0.8675  1.9562
 6945TIP3    H245031   5.677   2.156   0.611  2.5010  0.1017  1.0663
 6946TIP3   OH245032   1.951   1.175   1.370  0.0768 -0.3369 -0.2187
 6946TIP3    H145033   2.024   1.142   1.318 -0.6582 -1.2058 -0.7162
 6946TIP3    H245034   1.979   1.161   1.461  1.2147  0.8691 -0.3387
 6947TIP3   OH245035   4.033   6.378   0.896 -0.3767  0.1920 -0.3966
 6947TIP3    H145036   3.939   6.357   0.896 -0.3171 -0.1252  0.6251
 6947TIP3    H245037   4.062   6.359   0.985  0.6277  0.4660 -0.6506
 6948TIP3   OH245038   2.691   5.297   0.670 -0.2652  0.2544  0.8703
 6948TIP3    H145039   2.776   5.278   0.709 -1.3483 -0.8634  2.8252
 6948TIP3    H245040   2.666   5.215   0.626  0.4207  1.1427 -1.3432
 6949TIP3   OH245041   6.958   4.239   2.663 -0.7793  0.2094 -0.2442
 6949TIP3    H145042   6.999   4.313   2.707 -0.7848 -1.0253  1.9485
 6949TIP3    H245043   7.024   4.209   2.601 -0.6639  1.8088 -0.9644
 6950TIP3   OH245044   0.174   7.149   1.073  0.7198 -0.0222  0.1454
 6950TIP3    H145045   0.182   7.060   1.038 -0.0112 -1.3027  2.9486
 6950TIP3    H245046   0.204   7.142   1.164  0.6879  2.6295  0.4282
 6951TIP3   OH245047   6.705   3.354   1.550 -0.6610 -0.3124 -0.0160
 6951TIP3    H145048   6.750   3.280   1.509 -1.9832 -1.1709  0.0151
 6951TIP3    H245049   6.754   3.431   1.521 -0.7792 -0.9923 -2.1966
 6952TIP3   OH245050   5.544   4.868   0.503  0.4257  0.1098 -0.0637
 6952TIP3    H145051   5.615   4.933   0.500  0.0360  0.5209 -0.5465
 6952TIP3    H245052   5.479   4.907   0.562  1.0265 -0.7169  1.1785
 6953TIP3   OH245053   5.582   3.006   1.470 -0.6065  0.0839 -0.1122
 6953TIP3    H145054   5.622   2.999   1.557 -0.2807  0.5709 -0.2200
 6953TIP3    H245055   5.576   2.915   1.440  0.4618  0.0018 -0.1082
 6954TIP3   OH245056   2.645   3.577   1.473 -0.0396  0.1858 -0.4405
 6954TIP3    H145057   2.707   3.576   1.546 -0.2137 -0.1174 -0.2919
 6954TIP3    H245058   2.700   3.580   1.395  0.4208 -4.0633 -0.5201
 6955TIP3   OH245059   5.013   5.980   0.573  0.2586  0.3715  0.4184
 6955TIP3    H145060   4.943   5.965   0.509 -0.7784 -0.2299  1.6409
 6955TIP3    H245061   5.022   5.896   0.617  1.7752  0.4538  0.2951
 6956TIP3   OH245062   5.812   1.067   1.785  0.6051 -0.0246 -0.4885
 6956TIP3    H145063   5.870   1.040   1.856  0.1257 -0.5573 -0.2945
 6956TIP3    H245064   5.869   1.077   1.709  1.0153 -0.1028 -0.1935
 6957TIP3   OH245065   5.979   1.607   3.158 -0.4768  0.2129  0.0715
 6957TIP3    H145066   5.950   1.518   3.140  1.4343 -0.5582  0.5458
 6957TIP3    H245067   5.982   1.613   3.253  1.7242 -0.0881  0.0686
 6958TIP3   OH245068   0.796   5.337   2.292  0.2638  0.5550 -0.3210
 6958TIP3    H145069   0.795   5.371   2.382  0.5148 -0.6288  0.1477
 6958TIP3    H245070   0.711   5.361   2.257 -0.2732  0.0944  0.6165
 6959TIP3   OH245071   2.503   4.197   0.859  0.3594 -0.0680  0.6692
 6959TIP3    H145072   2.445   4.249   0.915  0.1591 -0.6392  1.0013
 6959TIP3    H245073   2.443   4.154   0.798  0.5184  0.0391  0.4383
 6960TIP3   OH245074   5.533   2.661   1.195  0.4977 -0.4312  0.0245
 6960TIP3    H145075   5.462   2.726   1.200  2.0978  1.3165  1.9649
 6960TIP3    H245076   5.592   2.693   1.128  0.0008 -1.3437 -0.8749
 6961TIP3   OH245077   3.582   0.052   1.315 -0.2291  0.3517 -0.2392
 6961TIP3    H145078   3.662   0.002   1.331  0.7571  2.1840  0.8848
 6961TIP3    H245079   3.561   0.035   1.223  1.0627 -0.6984 -0.3719
 6962TIP3   OH245080   1.268   0.910   1.763 -0.0656 -0.4281  0.1730
 6962TIP3    H145081   1.273   0.838   1.825  1.1585 -0.4869  0.0441
 6962TIP3    H245082   1.178   0.908   1.731  0.4225 -3.2688 -1.4122
 6963TIP3   OH245083   5.481   5.935   0.766 -0.3468  0.5229 -0.0527
 6963TIP3    H145084   5.474   5.873   0.694  0.6975 -0.6277  0.7947
 6963TIP3    H245085   5.410   5.911   0.825  0.0228  0.1551  0.2482
 6964TIP3   OH245086   5.850   0.719   2.874 -0.3295 -0.1129  0.2498
 6964TIP3    H145087   5.876   0.643   2.926 -0.4507 -0.0883  0.3478
 6964TIP3    H245088   5.767   0.747   2.914 -0.9031 -0.6569 -0.5342
 6965TIP3   OH245089   6.650   6.264   0.733  0.0938 -0.2333 -0.7072
 6965TIP3    H145090   6.744   6.265   0.718  0.1633  0.7185 -0.2475
 6965TIP3    H245091   6.622   6.355   0.720 -0.7631 -0.5062 -0.8486
 6966TIP3   OH245092   5.375   3.743   2.788 -0.4091 -0.2894 -0.0576
 6966TIP3    H145093   5.368   3.833   2.757 -1.0203  0.1101  1.1814
 6966TIP3    H245094   5.347   3.690   2.713  0.6864  0.4840 -1.0572
 6967TIP3   OH245095   3.185   2.880   0.732  0.4888  0.2804  0.4086
 6967TIP3    H145096   3.205   2.787   0.733 -0.2582  0.0213 -2.1048
 6967TIP3    H245097   3.204   2.910   0.821  1.7822 -2.0228  0.9783
 6968TIP3   OH245098   1.800   0.785   2.362 -0.1073 -0.0913 -0.1697
 6968TIP3    H145099   1.854   0.823   2.431 -0.8714  0.6936  0.0160
 6968TIP3    H245100   1.716   0.830   2.369  0.3090  1.3185 -2.6940
 6969TIP3   OH245101   5.945   3.941   1.942  0.3479 -0.4022 -0.2314
 6969TIP3    H145102   6.014   4.002   1.917  0.4225 -0.2862  0.2362
 6969TIP3    H245103   5.941   3.877   1.871  0.1202  0.2702 -0.8337
 6970TIP3   OH245104   2.103   3.216   0.747 -0.1291 -0.6711 -0.5062
 6970TIP3    H145105   2.070   3.275   0.815  0.2473  0.1547 -1.0296
 6970TIP3    H245106   2.151   3.273   0.687  1.6727 -1.7290 -0.1457
 6971TIP3   OH245107   1.019   5.131   0.943 -0.3449  0.4046  0.2213
 6971TIP3    H145108   1.096   5.185   0.927  1.2719 -1.9808 -0.8058
 6971TIP3    H245109   1.038   5.087   1.026 -0.4298 -0.3824 -0.1595
 6972TIP3   OH245110   5.536   0.672   0.856  0.2046 -0.4018 -0.1798
 6972TIP3    H145111   5.473   0.647   0.788  0.8301 -2.2391 -0.1327
 6972TIP3    H245112   5.617   0.690   0.808  0.4388 -0.9435  0.0119
 6973TIP3   OH245113   6.568   3.860   1.620 -0.4319 -0.1503 -0.1552
 6973TIP3    H145114   6.576   3.954   1.603 -0.4246 -0.0793  0.2281
 6973TIP3    H245115   6.658   3.827   1.614 -0.3717 -0.0526  0.1405
 6974TIP3   OH245116   3.018   2.049   0.651 -0.2112 -0.1107  0.1981
 6974TIP3    H145117   3.018   2.140   0.621 -0.5296 -0.9977 -2.8491
 6974TIP3    H245118   2.925   2.024   0.649 -0.0673 -0.6852  0.4731
 6975TIP3   OH245119   5.281   5.706   0.847 -0.8172  0.2091 -0.5983
 6975TIP3    H145120   5.251   5.617   0.865  0.1065 -0.2529 -1.2768
 6975TIP3    H245121   5.225   5.762   0.902 -0.9084 -0.8327  0.4010
 6976TIP3   OH245122   3.203   6.428   1.971  0.1020 -0.1203 -0.1544
 6976TIP3    H145123   3.192   6.446   2.064  0.4520  1.4566 -0.3925
 6976TIP3    H245124   3.265   6.495   1.941  2.4581 -2.4519 -0.9045
 6977TIP3   OH245125   2.433   6.568   3.283  0.4742  0.1253 -0.3946
 6977TIP3    H145126   2.356   6.535   3.237  0.1588 -1.1362  0.9691
 6977TIP3    H245127   2.439   6.660   3.256 -1.1859  0.1061 -0.9396
 6978TIP3   OH245128   5.365   2.953   2.432 -0.3662  0.0196  0.3545
 6978TIP3    H145129   5.405   3.038   2.413 -0.1452 -0.2736 -0.5596
 6978TIP3    H245130   5.430   2.889   2.404 -1.5953 -0.4775 -1.6250
 6979TIP3   OH245131   4.133   0.214   0.952  0.2354 -0.1493 -0.5675
 6979TIP3    H145132   4.119   0.244   1.042  0.6483  1.2230 -0.9429
 6979TIP3    H245133   4.063   0.255   0.901  1.0849  0.6085 -1.1662
 6980TIP3   OH245134   1.775   0.752   1.820 -0.2295  0.0709 -0.4828
 6980TIP3    H145135   1.752   0.806   1.744 -1.4078  0.0862 -0.1324
 6980TIP3    H245136   1.816   0.674   1.783  2.0116  1.3879 -0.9858
 6981TIP3   OH245137   6.116   4.369   3.308 -0.3657 -0.2673  0.7005
 6981TIP3    H145138   6.148   4.459   3.316  0.5800 -0.4746 -0.5429
 6981TIP3    H245139   6.021   4.377   3.311 -0.3041  0.8331  0.0126
 6982TIP3   OH245140   3.392   4.820   1.649  0.2225  0.5422 -0.1667
 6982TIP3    H145141   3.329   4.754   1.620  0.2217  0.5042 -0.0777
 6982TIP3    H245142   3.376   4.830   1.743 -0.8039  1.7660 -0.4436
 6983TIP3   OH245143   2.358   4.738   0.899 -0.2237 -0.2095 -0.0504
 6983TIP3    H145144   2.396   4.826   0.902  0.1167 -0.3799  2.1809
 6983TIP3    H245145   2.273   4.751   0.857 -0.2170  1.2044  0.3065
 6984TIP3   OH245146   4.842   5.707   3.258  0.2695 -0.4807 -0.3958
 6984TIP3    H145147   4.802   5.720   3.344 -0.9136 -0.4244 -0.9368
 6984TIP3    H245148   4.831   5.613   3.241 -0.2814 -0.3400 -0.8499
 6985TIP3   OH245149   0.909   0.332   2.380  0.0030  0.0756  0.6994
 6985TIP3    H145150   0.819   0.356   2.402 -0.6539 -1.2611 -0.3488
 6985TIP3    H245151   0.910   0.236   2.384  1.2642  0.0552  0.2948
 6986TIP3   OH245152   1.264   4.162   0.452 -0.4256  0.3109 -0.1989
 6986TIP3    H145153   1.223   4.076   0.447 -0.0447  0.1649 -1.0339
 6986TIP3    H245154   1.353   4.144   0.485  0.2587  0.1473 -2.0211
 6987TIP3   OH245155   4.592   1.200   2.512  0.0611  0.5770 -0.0004
 6987TIP3    H145156   4.561   1.291   2.512 -1.7782  0.0060  0.9029
 6987TIP3    H245157   4.622   1.185   2.602  0.2384  0.2515 -0.1117
 6988TIP3   OH245158   7.168   1.279   2.397  0.1827  0.7284  0.1215
 6988TIP3    H145159   7.100   1.215   2.374  1.9101 -1.4633  0.7608
 6988TIP3    H245160   7.143   1.309   2.485 -0.0411  0.0807  0.2840
 6989TIP3   OH245161   7.315   6.709   0.878  0.4423  0.3783  0.0956
 6989TIP3    H145162   7.360   6.784   0.917  1.7399  1.2151 -2.7461
 6989TIP3    H245163   7.384   6.653   0.844 -0.5649 -1.3309  0.7337
 6990TIP3   OH245164   1.826   6.614   1.513  0.4498  0.3412 -0.4693
 6990TIP3    H145165   1.914   6.614   1.551  0.4339 -2.4440 -0.2558
 6990TIP3    H245166   1.785   6.694   1.548  2.1020  0.4961  1.2924
 6991TIP3   OH245167   2.220   6.493   1.149 -0.0123  0.2484 -0.0532
 6991TIP3    H145168   2.172   6.416   1.119 -0.9707  1.4366 -1.7358
 6991TIP3    H245169   2.203   6.496   1.243 -0.3616 -1.2984 -0.0335
 6992TIP3   OH245170   3.633   1.047   1.236  0.3030 -0.2793 -0.1178
 6992TIP3    H145171   3.711   1.036   1.182  1.0782 -2.4152  1.2997
 6992TIP3    H245172   3.656   1.006   1.319 -1.4840  1.2620  1.2230
 6993TIP3   OH245173   3.209   3.806   1.172 -0.1562 -0.3523  0.0142
 6993TIP3    H145174   3.186   3.892   1.136 -0.1599  0.0032  0.8372
 6993TIP3    H245175   3.293   3.785   1.132  0.4468  0.6086  0.7281
 6994TIP3   OH245176   2.139   5.528   1.656 -0.2278  0.1557  0.3517
 6994TIP3    H145177   2.219   5.581   1.658 -0.4624  0.5334 -0.0699
 6994TIP3    H245178   2.077   5.574   1.712 -0.7336  0.8332 -0.7408
 6995TIP3   OH245179   7.516   5.198   1.076 -0.0957  0.2339  0.1673
 6995TIP3    H145180   7.568   5.248   1.139 -1.5552 -0.8607  2.3581
 6995TIP3    H245181   7.581   5.154   1.021  1.2725  0.3819  1.5996
 6996TIP3   OH245182   6.558   3.180   0.679  0.3637  0.3517 -0.2161
 6996TIP3    H145183   6.499   3.196   0.753 -0.3228  1.6895 -1.0251
 6996TIP3    H245184   6.504   3.134   0.615  1.6497 -3.3656  1.0750
 6997TIP3   OH245185   3.155   0.988   1.164  0.4890 -0.4434  0.4471
 6997TIP3    H145186   3.217   1.044   1.210 -2.0102  0.7919  2.5290
 6997TIP3    H245187   3.136   0.917   1.226  0.6499 -1.4855 -0.6411
 6998TIP3   OH245188   4.609   6.850   1.934 -0.0912  0.0077 -0.1247
 6998TIP3    H145189   4.626   6.858   2.028 -0.4381 -0.9702  0.0346
 6998TIP3    H245190   4.517   6.875   1.924 -0.1533 -0.2350 -0.1540
 6999TIP3   OH245191   1.889   3.845   2.808  0.0687  0.0228 -0.2569
 6999TIP3    H145192   1.926   3.823   2.722 -0.7388 -0.1737 -0.5582
 6999TIP3    H245193   1.917   3.774   2.865 -0.8891 -0.7939 -0.7758
 7000TIP3   OH245194   4.871   2.776   0.803 -0.2026  0.0086  0.2224
 7000TIP3    H145195   4.790   2.825   0.823 -0.7656 -0.5893 -0.5433
 7000TIP3    H245196   4.909   2.821   0.729  0.0534  0.1559  0.4423
 7001TIP3   OH245197   6.618   6.538   0.724 -0.6040 -0.3773  0.1220
 7001TIP3    H145198   6.550   6.589   0.679 -1.1512 -1.5392 -0.4176
 7001TIP3    H245199   6.691   6.599   0.734 -0.7003  0.1341 -1.7880
 7002TIP3   OH245200   2.775   0.255   1.098  0.4756 -0.1234 -0.1203
 7002TIP3    H145201   2.797   0.165   1.120 -3.4342 -1.0297  0.9833
 7002TIP3    H245202   2.680   0.254   1.087  0.4383  3.5848 -1.6701
 7003TIP3   OH245203   2.197   3.429   3.265 -0.0506 -1.0695  0.3557
 7003TIP3    H145204   2.200   3.427   3.361  0.7632  1.7582  0.4644
 7003TIP3    H245205   2.272   3.482   3.239 -0.9110 -0.8118 -1.8010
 7004TIP3   OH245206   2.163   3.775   1.393  0.1160  0.1864  0.1580
 7004TIP3    H145207   2.244   3.827   1.397 -0.1792  0.7743 -0.9898
 7004TIP3    H245208   2.110   3.819   1.326  0.1932 -2.0485 -1.4579
 7005TIP3   OH245209   6.332   2.091   3.000 -0.3726 -0.1279  0.5805
 7005TIP3    H145210   6.239   2.073   2.984 -0.8318  1.4103  1.2649
 7005TIP3    H245211   6.337   2.107   3.095  0.8678 -1.5645  0.7979
 7006TIP3   OH245212   7.490   0.280   0.783  0.3877  0.3618 -0.2241
 7006TIP3    H145213   7.537   0.326   0.853  0.9563  1.1538 -1.0982
 7006TIP3    H245214   7.460   0.199   0.824 -0.8416  1.5817  1.4512
 7007TIP3   OH245215   5.823   0.657   1.108 -0.1553  0.4557  0.3908
 7007TIP3    H145216   5.762   0.628   1.176  1.2398  1.1523  2.0094
 7007TIP3    H245217   5.907   0.621   1.135  0.3171  0.0983 -1.4296
 7008TIP3   OH245218   4.718   5.425   0.841  0.5425  0.1346  0.2674
 7008TIP3    H145219   4.640   5.455   0.793  0.7301 -0.2801 -0.3079
 7008TIP3    H245220   4.701   5.333   0.859 -0.5286  0.7738  3.0177
 7009TIP3   OH245221   7.041   0.418   1.202 -0.0353 -0.5853 -0.1390
 7009TIP3    H145222   6.961   0.424   1.254  0.3937 -0.9241  0.5670
 7009TIP3    H245223   7.032   0.488   1.137 -0.3781  0.1144  0.6456
 7010TIP3   OH245224   1.311   0.005   1.827 -0.9291  0.1240  0.1059
 7010TIP3    H145225   1.316   0.089   1.780 -1.0904 -0.8130 -1.6664
 7010TIP3    H245226   1.391  -0.041   1.802  0.1883  0.4913  2.6920
 7011TIP3   OH245227   4.099   7.089   1.078 -0.3703 -0.6833  0.3785
 7011TIP3    H145228   4.008   7.069   1.057 -0.3796  1.6485 -2.2199
 7011TIP3    H245229   4.150   7.048   1.008  0.3057  0.4621  0.1703
 7012TIP3   OH245230   2.694   4.297   2.657  0.1704  0.1550  0.1169
 7012TIP3    H145231   2.700   4.227   2.722  1.8154  1.5765  1.5939
 7012TIP3    H245232   2.740   4.261   2.580  2.9257  0.2800  1.5714
 7013TIP3   OH245233   1.225   5.534   1.291  0.1867  0.6279  0.5810
 7013TIP3    H145234   1.245   5.518   1.383 -0.4952 -1.8705  0.3482
 7013TIP3    H245235   1.134   5.507   1.282  0.6983 -0.6617 -1.1345
 7014TIP3   OH245236   2.864   1.956   2.185 -0.1201 -0.8723 -0.2303
 7014TIP3    H145237   2.795   2.023   2.186  0.5447 -0.1836  0.3538
 7014TIP3    H245238   2.921   1.982   2.113  0.2220 -0.7175  0.0926
 7015TIP3   OH245239   6.047   4.444   2.675  0.3096  0.6541 -0.1290
 7015TIP3    H145240   5.982   4.505   2.712  0.6005  0.7230  0.2813
 7015TIP3    H245241   6.031   4.361   2.721  0.2619  0.5681 -0.3013
 7016TIP3   OH245242   7.662   5.772   0.610  0.7954 -0.6434  0.0581
 7016TIP3    H145243   7.622   5.856   0.632  1.0475 -0.2286 -1.0325
 7016TIP3    H245244   7.629   5.712   0.677  0.1434  0.1849  0.4982
 7017TIP3   OH245245   5.072   2.635   2.656  0.1835 -0.0041 -0.1388
 7017TIP3    H145246   5.130   2.586   2.714  1.4613  1.2219 -0.3206
 7017TIP3    H245247   4.986   2.595   2.668  0.4018  0.1488  2.5412
 7018TIP3   OH245248   5.821   1.742   1.947  0.2081 -0.0492 -0.0963
 7018TIP3    H145249   5.861   1.797   1.879  0.2678  0.8620  0.6531
 7018TIP3    H245250   5.873   1.662   1.946  0.0770 -0.1453 -1.2581
 7019TIP3   OH245251   1.878   4.234   1.244  0.3919  0.3531  0.0489
 7019TIP3    H145252   1.827   4.308   1.209 -1.7146 -0.1779  1.7676
 7019TIP3    H245253   1.967   4.268   1.250  0.0568  1.7771 -1.8883
 7020TIP3   OH245254   0.227   5.676   1.264  0.2247 -0.4400 -0.1688
 7020TIP3    H145255   0.173   5.648   1.337  2.5774  0.6522  2.1720
 7020TIP3    H245256   0.185   5.639   1.187 -2.8667 -0.9505  1.6063
 7021TIP3   OH245257   1.520   5.580   1.097  0.1393  0.1074  0.3021
 7021TIP3    H145258   1.606   5.539   1.108  0.1119  0.1889  0.8480
 7021TIP3    H245259   1.537   5.674   1.107  0.0461  0.1539  0.0301
 7022TIP3   OH245260   3.369   0.538   0.535 -0.0557  0.0133  0.4862
 7022TIP3    H145261   3.321   0.584   0.603  1.2625 -0.9583  2.1527
 7022TIP3    H245262   3.443   0.595   0.513  1.0452 -0.8051  1.8765
 7023TIP3   OH245263   2.309   3.087   2.506  0.3160  0.1789  0.0848
 7023TIP3    H145264   2.230   3.076   2.454  0.6738  0.8283 -0.6184
 7023TIP3    H245265   2.299   3.025   2.578 -0.5089 -0.2396 -0.3721
 7024TIP3   OH245266   2.433   2.802   1.639  0.4317  0.1064 -0.8245
 7024TIP3    H145267   2.516   2.831   1.602  1.2706 -0.7176  0.3126
 7024TIP3    H245268   2.387   2.883   1.662  1.6578  0.5789  0.0709
 7025TIP3   OH245269   4.073   4.670   2.206 -0.6255 -0.1600  0.1306
 7025TIP3    H145270   4.045   4.725   2.133  1.0749 -0.9887 -1.2357
 7025TIP3    H245271   3.992   4.628   2.236 -1.0974 -2.9026 -3.9818
 7026TIP3   OH245272   2.846   1.295   2.586 -0.2888 -0.8214  0.2429
 7026TIP3    H145273   2.934   1.277   2.553 -0.0961 -0.3920  0.5090
 7026TIP3    H245274   2.834   1.233   2.658 -0.3450 -1.1241 -0.0268
 7027TIP3   OH245275   5.535   4.723   1.693  0.0464  0.2272  0.0826
 7027TIP3    H145276   5.526   4.682   1.778 -1.4459  1.8734  0.7801
 7027TIP3    H245277   5.595   4.796   1.707 -0.1122  0.4400 -0.3125
 7028TIP3   OH245278   0.522   2.219   1.912  0.5340  0.4719 -0.2777
 7028TIP3    H145279   0.473   2.228   1.830 -0.8108  2.0379  0.6397
 7028TIP3    H245280   0.532   2.308   1.944  1.2229 -0.0921  1.1628
 7029TIP3   OH245281   0.169   2.532   1.761 -0.2968  0.1237 -0.1082
 7029TIP3    H145282   0.199   2.482   1.685 -1.2700 -1.1701  0.3292
 7029TIP3    H245283   0.130   2.611   1.723  0.0390 -0.0756 -0.8994
 7030TIP3   OH245284   4.099   2.296   2.542 -0.2119  0.2922  0.0017
 7030TIP3    H145285   4.167   2.250   2.591  0.1967 -0.5373 -1.2767
 7030TIP3    H245286   4.025   2.235   2.538 -0.4834  0.6075  0.1380
 7031TIP3   OH245287   7.328   2.173   0.727 -0.8239  0.3613 -0.2570
 7031TIP3    H145288   7.412   2.126   0.735 -1.3059 -0.7272 -1.3242
 7031TIP3    H245289   7.307   2.199   0.816  0.2494 -0.0733  0.1421
 7032TIP3   OH245290   4.909   7.011   1.373  0.4852  0.0731  0.1841
 7032TIP3    H145291   4.837   6.968   1.327  0.3339  0.8495 -0.3316
 7032TIP3    H245292   4.976   6.943   1.381  0.7345  0.0239 -1.6706
 7033TIP3   OH245293   7.142   5.867   1.352  0.0972  0.5386  0.4222
 7033TIP3    H145294   7.236   5.877   1.365  0.1740  2.9427 -1.3498
 7033TIP3    H245295   7.131   5.776   1.322  2.2581  1.0095 -2.0903
 7034TIP3   OH245296   7.524   4.866   2.557 -0.3231  0.1989 -0.7472
 7034TIP3    H145297   7.508   4.772   2.567  0.0984  0.0536 -1.3601
 7034TIP3    H245298   7.437   4.906   2.563 -0.3276  0.0012  1.6340
 7035TIP3   OH245299   4.138   2.375   2.132 -0.0138 -0.0181 -0.0098
 7035TIP3    H145300   4.177   2.306   2.186 -0.7111 -0.3767  0.0419
 7035TIP3    H245301   4.044   2.358   2.135 -0.0753  0.0335 -1.2266
 7036TIP3   OH245302   0.953   5.747   1.947  0.4583 -0.4606  0.5815
 7036TIP3    H145303   0.867   5.784   1.965  0.7529  0.1744  0.7295
 7036TIP3    H245304   0.997   5.813   1.893  0.5738 -1.1310 -0.1613
 7037TIP3   OH245305   0.643   5.788   1.524  0.1611  0.4859 -0.3745
 7037TIP3    H145306   0.682   5.872   1.501  0.2778  0.3743 -0.5840
 7037TIP3    H245307   0.712   5.742   1.571  0.2005  0.3829 -0.5343
 7038TIP3   OH245308   1.250   4.989   7.361 -0.1780  0.1118 -0.5935
 7038TIP3    H145309   1.217   5.053   7.424  2.3582  1.4884 -0.5587
 7038TIP3    H245310   1.309   4.933   7.411 -0.7472 -0.9489 -1.0708
 7039TIP3   OH245311   1.256   0.505   2.292  0.0451  0.6698  0.4696
 7039TIP3    H145312   1.277   0.491   2.385  0.9854  0.1114  0.1826
 7039TIP3    H245313   1.301   0.435   2.246 -2.3795 -0.5685 -0.2208
 7040TIP3   OH245314   3.456   3.898   1.939  0.7866  0.0391 -0.2994
 7040TIP3    H145315   3.412   3.890   1.855  3.3001 -0.0907 -1.6964
 7040TIP3    H245316   3.517   3.971   1.928  0.9053  0.2720  1.5526
 7041TIP3   OH245317   4.046   2.114   1.928 -0.1088  0.3434  0.1027
 7041TIP3    H145318   4.055   2.099   1.834  2.0094  0.1259  0.2999
 7041TIP3    H245319   4.041   2.209   1.937  0.1159  0.3823 -0.1949
 7042TIP3   OH245320   2.689   2.145   1.822  0.3434 -0.1585 -0.1044
 7042TIP3    H145321   2.657   2.126   1.733  0.5208 -0.3679 -0.1241
 7042TIP3    H245322   2.612   2.177   1.869  0.2115 -0.2079 -0.2865
 7043TIP3   OH245323   0.286   6.593   1.778  0.2385  0.3404  0.2208
 7043TIP3    H145324   0.193   6.579   1.799  0.5235  0.7050  1.8508
 7043TIP3    H245325   0.316   6.658   1.842  1.3825  0.9966 -0.9298
 7044TIP3   OH245326   1.977   7.256   2.888 -0.3440 -0.3904 -0.4490
 7044TIP3    H145327   1.985   7.307   2.968 -1.8549 -1.3107  0.3307
 7044TIP3    H245328   2.067   7.234   2.864  0.2392  1.5090 -0.1033
 7045TIP3   OH245329   6.354   7.136   1.909 -0.1406 -0.4397 -0.1070
 7045TIP3    H145330   6.278   7.168   1.861 -0.6983 -1.2380  0.2192
 7045TIP3    H245331   6.336   7.043   1.922  0.8624 -0.6181  0.0378
 7046TIP3   OH245332   4.310   7.204   2.724 -0.4040 -0.1464 -0.0849
 7046TIP3    H145333   4.397   7.222   2.759 -0.4351  2.6700 -1.1660
 7046TIP3    H245334   4.253   7.209   2.801  0.0551  1.3487  0.2070
 7047TIP3   OH245335   4.778   0.537   1.874  0.3026 -0.1865  0.4897
 7047TIP3    H145336   4.772   0.544   1.779  1.3723  0.8841  0.4698
 7047TIP3    H245337   4.709   0.595   1.907  0.4310  0.0367  0.3637
 7048TIP3   OH245338   7.481   3.818   2.981  0.2474 -0.0434  0.3046
 7048TIP3    H145339   7.386   3.815   2.994  0.1527  0.9600 -0.0282
 7048TIP3    H245340   7.516   3.748   3.036 -0.5860  0.4199  1.4414
 7049TIP3   OH245341   4.194   3.764   0.772  0.9540  0.2200  0.1563
 7049TIP3    H145342   4.129   3.830   0.747  2.2562  1.4438 -0.1580
 7049TIP3    H245343   4.237   3.801   0.849 -0.1410 -1.5833  1.7301
 7050TIP3   OH245344   3.858   1.359   2.528  0.2430 -0.5068 -0.3145
 7050TIP3    H145345   3.830   1.363   2.620  1.6313 -0.0928  0.1064
 7050TIP3    H245346   3.776   1.349   2.479 -0.7029  1.2326  0.8182
 7051TIP3   OH245347   4.304   5.247   2.065 -0.2522 -0.4215 -0.2494
 7051TIP3    H145348   4.292   5.184   1.994 -2.3124  0.1070 -0.4412
 7051TIP3    H245349   4.295   5.332   2.022  2.0589  0.0291  0.0763
 7052TIP3   OH245350   2.767   0.269   2.679 -0.6766 -0.3261  0.3756
 7052TIP3    H145351   2.751   0.198   2.741 -1.7668  0.5720  1.1576
 7052TIP3    H245352   2.739   0.348   2.724  0.2548  0.5879 -0.5812
 7053TIP3   OH245353   6.460   4.889   1.424 -0.2777  0.4704  0.3942
 7053TIP3    H145354   6.491   4.896   1.514  0.1208  0.1799  0.2831
 7053TIP3    H245355   6.440   4.979   1.399 -0.4143  0.5498  0.7812
 7054TIP3   OH245356   2.330   0.210   2.607  0.2675 -0.0274 -0.0244
 7054TIP3    H145357   2.238   0.188   2.624  0.6775 -1.0033  1.0763
 7054TIP3    H245358   2.337   0.211   2.511 -1.2823  1.9048 -0.1873
 7055TIP3   OH245359   6.910   2.434   0.772  0.2768 -0.1031  0.6965
 7055TIP3    H145360   6.830   2.460   0.817 -0.1439 -0.1383 -0.0216
 7055TIP3    H245361   6.976   2.497   0.804 -0.2956  0.6479  0.4386
 7056TIP3   OH245362   2.213   1.928   2.170  0.4154  0.1061 -0.5933
 7056TIP3    H145363   2.121   1.952   2.183  0.5598  0.5539 -0.3852
 7056TIP3    H245364   2.255   2.009   2.142  0.7432 -0.1060 -0.7175
 7057TIP3   OH245365   4.449   5.742   2.568 -0.0764 -0.2935 -0.3560
 7057TIP3    H145366   4.379   5.733   2.503  0.7959 -0.8676 -1.2387
 7057TIP3    H245367   4.489   5.655   2.573  1.4687  0.3456 -0.9254
 7058TIP3   OH245368   5.729   6.219   2.091 -0.1861 -0.2855  0.0287
 7058TIP3    H145369   5.799   6.273   2.056  0.4907 -0.6307  0.8161
 7058TIP3    H245370   5.689   6.178   2.014  0.4654 -0.0682 -0.4308
 7059TIP3   OH245371   4.399   3.555   0.919  0.2414  0.0658  0.0779
 7059TIP3    H145372   4.421   3.635   0.968 -0.1731 -0.4195  1.1017
 7059TIP3    H245373   4.303   3.551   0.922  0.2003  0.0943 -0.9123
 7060TIP3   OH245374   0.982   1.358   2.449 -0.1038 -0.1370 -0.2092
 7060TIP3    H145375   0.902   1.396   2.412 -0.2499 -1.3585 -1.2093
 7060TIP3    H245376   0.974   1.374   2.543 -1.1557  0.4494 -0.3781
 7061TIP3   OH245377   1.140   2.849   1.756  0.8250  0.0887  0.1820
 7061TIP3    H145378   1.156   2.888   1.841 -0.1899  3.0887 -0.8858
 7061TIP3    H245379   1.217   2.869   1.704  0.1224  1.1196 -0.5025
 7062TIP3   OH245380   0.414   1.068   1.818 -0.2289 -0.3813 -0.3217
 7062TIP3    H145381   0.404   1.038   1.727  0.0861  0.0485 -0.4997
 7062TIP3    H245382   0.508   1.080   1.829 -0.1329 -1.7045  0.4821
 7063TIP3   OH245383   4.977   0.790   1.522 -0.0564 -0.0409  0.1280
 7063TIP3    H145384   5.063   0.754   1.501  0.0457 -0.3186  0.9627
 7063TIP3    H245385   4.916   0.718   1.511 -0.4216  0.5009 -1.8318
 7064TIP3   OH245386   7.672   3.287   1.849  0.2625 -0.2414  0.2008
 7064TIP3    H145387   7.752   3.339   1.837  1.4936 -2.5347 -2.9663
 7064TIP3    H245388   7.703   3.202   1.880 -0.6628 -1.5780 -2.2392
 7065TIP3   OH245389   4.455   2.951   2.258 -0.0522  0.3015  0.1390
 7065TIP3    H145390   4.539   2.996   2.258 -0.0657  0.3330  0.6022
 7065TIP3    H245391   4.406   2.990   2.186  1.3029 -1.5758 -1.9595
 7066TIP3   OH245392   2.268   7.569   0.616 -0.0967  0.3116  0.1943
 7066TIP3    H145393   2.245   7.601   0.703  2.0791 -0.1641  1.0179
 7066TIP3    H245394   2.303   7.481   0.631 -2.0866 -0.8407 -1.5167
 7067TIP3   OH245395   2.039   6.563   1.807 -0.1594  0.2413 -0.0012
 7067TIP3    H145396   1.983   6.572   1.884  0.8007 -0.5886  0.8247
 7067TIP3    H245397   1.996   6.496   1.754 -0.5311  0.4130  0.0777
 7068TIP3   OH245398   2.306   3.739   3.022 -0.5825 -0.5978  0.1240
 7068TIP3    H145399   2.225   3.702   3.059 -0.8397  0.6209  0.8066
 7068TIP3    H245400   2.371   3.731   3.092  0.2093 -2.4856 -0.7468
 7069TIP3   OH245401   6.797   3.468   2.121  0.3196 -0.2992  0.1707
 7069TIP3    H145402   6.854   3.398   2.090  0.8242 -0.1971  0.8263
 7069TIP3    H245403   6.858   3.537   2.149 -0.1510  1.5551 -2.9039
 7070TIP3   OH245404   5.722   4.260   2.687 -0.3654 -0.4619 -0.0006
 7070TIP3    H145405   5.808   4.238   2.721  0.7002  1.3526 -1.3293
 7070TIP3    H245406   5.678   4.176   2.675  0.9202 -1.3743  1.3716
 7071TIP3   OH245407   2.140   4.443   1.469  0.0393  0.8999  0.2818
 7071TIP3    H145408   2.095   4.522   1.441  2.0955  1.8669 -0.4884
 7071TIP3    H245409   2.233   4.466   1.467  0.6294 -1.1219  1.3749
 7072TIP3   OH245410   5.854   4.379   1.089 -0.2145  0.3379  0.1804
 7072TIP3    H145411   5.863   4.449   1.024 -3.5550 -0.1417 -0.9987
 7072TIP3    H245412   5.785   4.409   1.147  0.9540 -0.3839  2.0347
 7073TIP3   OH245413   6.565   7.585   1.584 -0.2456  0.3476  0.1758
 7073TIP3    H145414   6.474   7.558   1.593 -0.5087  0.5483 -1.5566
 7073TIP3    H245415   6.590   7.556   1.497  1.2347  0.6609  0.4719
 7074TIP3   OH245416   2.227   4.575   3.347  0.2378  0.1417 -0.2903
 7074TIP3    H145417   2.186   4.489   3.338 -1.6314  1.0205 -0.8116
 7074TIP3    H245418   2.201   4.621   3.267  0.5115  1.4475  0.3541
 7075TIP3   OH245419   3.050   3.851   2.678  0.1085 -0.4000 -0.0108
 7075TIP3    H145420   2.955   3.842   2.692 -0.0525 -1.0581 -1.4055
 7075TIP3    H245421   3.058   3.914   2.607  0.7077 -0.6604 -0.1773
 7076TIP3   OH245422   1.805   2.776   1.822 -0.9402  1.2114  0.1758
 7076TIP3    H145423   1.746   2.706   1.848 -2.0074  3.2221  4.0418
 7076TIP3    H245424   1.748   2.852   1.806  0.3564  2.2201  0.1172
 7077TIP3   OH245425   3.048   4.556   1.867  0.2040 -0.1476 -0.1485
 7077TIP3    H145426   3.114   4.500   1.909  0.1670 -0.2260 -0.1962
 7077TIP3    H245427   3.082   4.573   1.780  0.5050  0.3975  0.0713
 7078TIP3   OH245428   0.392   2.484   2.224 -0.3472  0.4212 -0.9802
 7078TIP3    H145429   0.308   2.474   2.179  0.0041  0.2997 -1.6175
 7078TIP3    H245430   0.456   2.493   2.153  0.1559  0.6817 -0.4974
 7079TIP3   OH245431   4.681   5.955   2.186 -0.1641 -0.7847  0.4225
 7079TIP3    H145432   4.680   6.045   2.155  1.4168 -0.5423  1.0053
 7079TIP3    H245433   4.594   5.943   2.225 -1.3194 -0.3441 -1.8331
 7080TIP3   OH245434   2.065   2.804   1.765  0.1672 -0.8259  0.2788
 7080TIP3    H145435   2.087   2.778   1.676 -0.8759  1.8360 -0.8807
 7080TIP3    H245436   1.969   2.799   1.768  0.0231  1.2548  0.4337
 7081TIP3   OH245437   7.380   6.868   0.582  0.0795  0.1812 -0.3199
 7081TIP3    H145438   7.362   6.852   0.489  0.7220 -1.1253 -0.2405
 7081TIP3    H245439   7.302   6.836   0.627 -0.5857  1.5766 -0.4416
 7082TIP3   OH245440   0.231   2.825   0.793 -0.7458  0.8310 -0.0610
 7082TIP3    H145441   0.197   2.912   0.811  0.0200  1.2766 -0.6935
 7082TIP3    H245442   0.243   2.823   0.698 -0.5203  0.1257 -0.0238
 7083TIP3   OH245443   0.076   2.602   2.629  0.1213  0.4096 -0.0036
 7083TIP3    H145444   0.078   2.686   2.675  0.7734 -0.5470  1.8069
 7083TIP3    H245445  -0.017   2.580   2.625 -0.0340  1.0982 -0.2589
 7084TIP3   OH245446   3.952   7.166   2.156  0.0366  0.0239 -0.2014
 7084TIP3    H145447   3.928   7.206   2.240 -0.6914  0.4878 -0.6214
 7084TIP3    H245448   3.880   7.190   2.097  0.2883 -0.7328 -0.8230
 7085TIP3   OH245449   2.755   5.055   1.015 -0.0296  0.1065  0.5598
 7085TIP3    H145450   2.728   4.967   1.042 -0.2157 -0.8678 -2.3945
 7085TIP3    H245451   2.836   5.041   0.965 -0.8823  1.3421 -1.3074
 7086TIP3   OH245452   5.287   4.245   2.058  0.0135  0.6001 -0.6462
 7086TIP3    H145453   5.326   4.209   1.979  0.1548 -0.1231 -0.2523
 7086TIP3    H245454   5.354   4.304   2.093 -0.3025  1.4378 -1.4058
 7087TIP3   OH245455   1.482   5.061   2.886  0.0525  0.0012 -0.1848
 7087TIP3    H145456   1.430   5.065   2.805  2.0811  1.0624 -1.5267
 7087TIP3    H245457   1.566   5.102   2.863  0.7680  0.2109  2.4409
 7088TIP3   OH245458   4.389   4.613   2.724  0.1204 -0.2102 -0.0599
 7088TIP3    H145459   4.302   4.633   2.689 -1.1421  0.3801  3.1374
 7088TIP3    H245460   4.396   4.518   2.718 -1.0671 -0.3363  0.3090
 7089TIP3   OH245461   1.970   1.989   1.703 -0.1151  0.0880 -0.2260
 7089TIP3    H145462   2.029   2.010   1.775 -1.6725 -0.6674  1.3429
 7089TIP3    H245463   1.918   2.068   1.691 -0.3528 -0.0369 -0.0184
 7090TIP3   OH245464   0.328   0.453   2.227 -0.8796 -0.0176  0.2373
 7090TIP3    H145465   0.256   0.515   2.219 -0.6841  0.1374 -0.3627
 7090TIP3    H245466   0.406   0.508   2.237 -0.4139 -0.0682 -2.4899
 7091TIP3   OH245467   4.041   3.425   0.402 -0.6465  0.3015  0.3237
 7091TIP3    H145468   4.104   3.494   0.381 -0.3650 -0.0254  0.0745
 7091TIP3    H245469   3.956   3.459   0.373 -0.5080  0.5415  0.2032
 7092TIP3   OH245470   1.013   2.441   2.515 -0.4315  0.1022  0.4767
 7092TIP3    H145471   0.938   2.392   2.550  0.6401 -0.8018  1.5895
 7092TIP3    H245472   1.088   2.407   2.563  0.8933  0.0028 -1.5582
 7093TIP3   OH245473   3.202   5.302   2.168 -0.0319 -0.3004 -0.0720
 7093TIP3    H145474   3.148   5.291   2.090 -0.4759  0.1705  0.1637
 7093TIP3    H245475   3.200   5.216   2.210  0.8187 -0.7752 -0.9468
 7094TIP3   OH245476   0.834   1.826   0.607 -0.0364 -0.1062 -0.3002
 7094TIP3    H145477   0.779   1.895   0.643  0.9296  0.4009  0.2414
 7094TIP3    H245478   0.920   1.867   0.595 -0.4258  0.0142 -3.9472
 7095TIP3   OH245479   6.723   1.595   1.342  0.0400 -0.1834  0.2329
 7095TIP3    H145480   6.660   1.635   1.401  1.3651  3.2179 -0.4041
 7095TIP3    H245481   6.793   1.563   1.399 -0.1634  0.1731  0.6894
 7096TIP3   OH245482   3.533   6.417   2.807 -0.6725 -0.0881 -0.0601
 7096TIP3    H145483   3.530   6.346   2.742 -1.6323 -0.8101  0.7264
 7096TIP3    H245484   3.622   6.451   2.802  0.7885 -3.2684  1.5067
 7097TIP3   OH245485   5.546   6.767   0.846 -0.1405  0.2977  0.7378
 7097TIP3    H145486   5.603   6.703   0.803 -0.6798  0.3065 -0.0039
 7097TIP3    H245487   5.594   6.850   0.839 -1.0941  0.7272 -1.7234
 7098TIP3   OH245488   5.336   4.126   1.472 -0.1622 -0.0035 -0.0212
 7098TIP3    H145489   5.280   4.107   1.548 -0.2474  0.4205  0.0237
 7098TIP3    H245490   5.423   4.139   1.509 -0.0641 -0.5004 -0.0736
 7099TIP3   OH245491   6.635   0.362   3.184  0.1881 -0.1827 -0.1835
 7099TIP3    H145492   6.552   0.374   3.229  0.6387 -0.6345  0.8026
 7099TIP3    H245493   6.701   0.395   3.245  0.6856  0.9860 -1.3055
 7100TIP3   OH245494   5.862   2.536   2.477 -0.2676  0.4846 -0.3318
 7100TIP3    H145495   5.885   2.556   2.386 -0.0441 -0.9504 -0.6072
 7100TIP3    H245496   5.793   2.470   2.472  1.5298 -1.5872  0.4829
 7101TIP3   OH245497   6.008   0.947   2.931 -0.2227 -0.1262 -0.1689
 7101TIP3    H145498   6.073   0.940   3.001 -0.4440 -2.4771 -0.1424
 7101TIP3    H245499   5.977   0.858   2.917 -0.7802  0.3826 -2.7254
 7102TIP3   OH245500   7.025   4.515   2.035  0.4537 -0.2835 -0.1935
 7102TIP3    H145501   6.976   4.538   1.956 -0.1103  2.3201  0.7988
 7102TIP3    H245502   7.114   4.545   2.018  1.0970 -2.4750 -0.9319
 7103TIP3   OH245503   7.124   0.185   1.035  0.3010  0.3014 -0.3485
 7103TIP3    H145504   7.099   0.245   1.105 -1.1078 -0.5243 -0.0889
 7103TIP3    H245505   7.209   0.150   1.062  1.4171  2.5374 -0.7831
 7104TIP3   OH245506   1.680   0.918   1.625 -0.3042  0.1068  0.8920
 7104TIP3    H145507   1.651   1.003   1.659 -1.3948  0.2405 -0.2854
 7104TIP3    H245508   1.689   0.932   1.531  1.5544 -0.5393  0.9303
 7105TIP3   OH245509   6.667   0.660   2.049  0.5310  0.1087 -0.5177
 7105TIP3    H145510   6.629   0.709   2.122 -1.9472 -0.1269 -1.5462
 7105TIP3    H245511   6.717   0.725   1.999 -0.0749  0.8923 -0.1196
 7106TIP3   OH245512   4.872   5.312   3.375 -0.4696 -0.4111  0.6987
 7106TIP3    H145513   4.957   5.353   3.390 -0.3430 -0.3945 -0.0044
 7106TIP3    H245514   4.821   5.377   3.327 -0.5087 -0.8093  0.1838
 7107TIP3   OH245515   3.737   2.328   2.715  0.0167 -0.0699 -0.9423
 7107TIP3    H145516   3.656   2.280   2.698 -0.0062 -0.9360  1.3009
 7107TIP3    H245517   3.801   2.288   2.656 -1.0392  0.3071 -2.3986
 7108TIP3   OH245518   0.288   3.296   0.886  0.0309 -0.5114  0.2249
 7108TIP3    H145519   0.332   3.381   0.893 -1.9949  0.5855  0.3361
 7108TIP3    H245520   0.263   3.275   0.976  0.7413 -1.3825  0.2362
 7109TIP3   OH245521   1.720   5.146   1.578  0.1288 -0.1434  0.0409
 7109TIP3    H145522   1.793   5.207   1.595  0.4431 -0.1999 -1.0299
 7109TIP3    H245523   1.760   5.059   1.584  0.4139 -0.1541 -1.5861
 7110TIP3   OH245524   6.974   4.175   3.568 -0.3652  0.1244  0.4113
 7110TIP3    H145525   6.895   4.185   3.515 -0.1853 -0.5709  0.0011
 7110TIP3    H245526   7.003   4.264   3.586 -0.2933  0.3806 -0.8750
 7111TIP3   OH245527   0.582   4.028   2.232  0.5097  0.0777  0.1417
 7111TIP3    H145528   0.565   3.935   2.246  2.0997 -0.7953 -2.7973
 7111TIP3    H245529   0.570   4.068   2.318 -3.2996 -2.2753  0.9363
 7112TIP3   OH245530   1.014   1.611   2.164 -0.4838 -0.1155 -0.4364
 7112TIP3    H145531   0.946   1.659   2.212  0.4048 -0.3216  1.1016
 7112TIP3    H245532   1.016   1.652   2.078 -1.6495  0.7574 -0.0800
 7113TIP3   OH245533   7.055   7.554   2.337  0.2069 -0.5085  0.4471
 7113TIP3    H145534   6.980   7.600   2.298  1.0734 -0.0312 -0.7090
 7113TIP3    H245535   7.080   7.607   2.412 -1.2835 -1.2655  1.5331
 7114TIP3   OH245536   2.519   7.066   1.309  0.4824  0.0901 -0.0092
 7114TIP3    H145537   2.544   7.150   1.348 -1.5938  1.0772 -0.6712
 7114TIP3    H245538   2.475   7.020   1.380 -1.7260  1.1699 -0.5772
 7115TIP3   OH245539   0.106   0.906   2.458 -0.0971 -0.1710  0.2756
 7115TIP3    H145540   0.165   0.856   2.401  0.6190 -0.4438  1.2377
 7115TIP3    H245541   0.088   0.847   2.531 -2.2623 -0.4295 -0.3903
 7116TIP3   OH245542   4.947   3.188   1.893  0.2475  0.1367 -0.0979
 7116TIP3    H145543   4.879   3.143   1.943 -0.8159 -0.3501 -1.8974
 7116TIP3    H245544   5.006   3.118   1.865 -0.3511  0.0667 -1.2735
 7117TIP3   OH245545   3.047   0.606   1.545 -0.7640 -0.1319  0.2966
 7117TIP3    H145546   3.093   0.532   1.505  0.8288 -0.0394  1.8624
 7117TIP3    H245547   2.962   0.607   1.501 -0.2305 -1.8909 -0.8969
 7118TIP3   OH245548   5.316   7.214   1.794 -0.0189 -1.0145 -0.3518
 7118TIP3    H145549   5.221   7.221   1.796 -0.1549 -2.4926  1.7834
 7118TIP3    H245550   5.333   7.134   1.743  0.0641 -1.0916 -0.2022
 7119TIP3   OH245551   5.559   6.224   1.177  0.4760 -0.0724 -0.3267
 7119TIP3    H145552   5.526   6.271   1.101  0.3792  0.7607  0.2132
 7119TIP3    H245553   5.642   6.266   1.198 -0.5551  1.2724  1.3754
 7120TIP3   OH245554   1.630   5.890   0.726  0.3820  0.3582  0.6078
 7120TIP3    H145555   1.726   5.890   0.724  0.3797  0.4012  0.4752
 7120TIP3    H245556   1.607   5.981   0.745  0.3774  0.2230  1.3020
 7121TIP3   OH245557   7.066   6.361   1.520 -0.5828  0.6486 -0.0896
 7121TIP3    H145558   7.107   6.279   1.491  2.2537  2.2051 -0.8657
 7121TIP3    H245559   7.034   6.401   1.439 -0.5957  0.9803  0.0795
 7122TIP3   OH245560   2.048   6.186   3.011 -0.2279 -0.2958 -0.6022
 7122TIP3    H145561   2.053   6.238   3.091 -1.8130 -1.7742  0.5150
 7122TIP3    H245562   2.060   6.096   3.039 -0.8786 -0.8574 -2.0174
 7123TIP3   OH245563   2.967   0.313   2.271 -0.7368 -0.5852  0.5872
 7123TIP3    H145564   2.918   0.347   2.346  0.8322  0.5104  1.1729
 7123TIP3    H245565   3.018   0.388   2.240 -0.8607 -1.1803 -1.1984
 7124TIP3   OH245566   5.575   3.809   1.658 -0.3490 -0.1320  0.0004
 7124TIP3    H145567   5.594   3.885   1.603 -1.2715 -0.5045 -0.8576
 7124TIP3    H245568   5.524   3.750   1.602 -0.5468 -0.9257  0.9771
 7125TIP3   OH245569   5.780   5.469   2.648 -0.5348 -0.2696  0.3619
 7125TIP3    H145570   5.766   5.419   2.728  1.5039 -1.2441  0.1536
 7125TIP3    H245571   5.708   5.532   2.647 -1.5748 -1.3522  2.0630
 7126TIP3   OH245572   0.125   2.630   1.207 -0.0848 -0.6393 -0.2390
 7126TIP3    H145573   0.206   2.631   1.258 -0.5180  3.1710  0.7225
 7126TIP3    H245574   0.153   2.609   1.118  2.0107  0.5696  0.0668
 7127TIP3   OH245575   0.078   0.728   0.716 -0.6676  0.1161 -0.1319
 7127TIP3    H145576   0.160   0.774   0.734 -0.5764  0.8804 -2.2069
 7127TIP3    H245577   0.087   0.697   0.626 -1.6626 -2.0329  0.4605
 7128TIP3   OH245578   3.265   7.499   1.729 -0.2370  0.3029  0.1008
 7128TIP3    H145579   3.291   7.562   1.796  1.8345  0.7677 -1.0735
 7128TIP3    H245580   3.182   7.533   1.696 -0.3083  1.1279  1.0794
 7129TIP3   OH245581   0.655   3.532   1.317  0.1040 -0.1618 -0.0799
 7129TIP3    H145582   0.672   3.619   1.353 -0.0372  0.4550 -1.4572
 7129TIP3    H245583   0.563   3.534   1.291  0.0096 -0.8381  0.1780
 7130TIP3   OH245584   0.696   3.739   2.322  0.1221  0.4634 -0.9357
 7130TIP3    H145585   0.776   3.703   2.283  0.3637  1.5138 -1.4347
 7130TIP3    H245586   0.727   3.795   2.394  0.0541  2.8277 -2.6212
 7131TIP3   OH245587   3.337   7.259   1.056  0.0170 -1.0935  0.4474
 7131TIP3    H145588   3.334   7.352   1.078  1.6622 -0.9068 -0.0334
 7131TIP3    H245589   3.364   7.216   1.138 -0.0651 -1.0719  0.4855
 7132TIP3   OH245590   1.340   4.979   1.693  0.1682  0.0847 -0.2517
 7132TIP3    H145591   1.337   4.885   1.682  2.3221 -0.0844  0.1443
 7132TIP3    H245592   1.385   5.012   1.615 -0.1025  0.7265 -0.1482
 7133TIP3   OH245593   7.264   0.425   2.056 -0.6676  0.1546  0.3944
 7133TIP3    H145594   7.320   0.491   2.098  1.8387 -0.9823 -0.9279
 7133TIP3    H245595   7.244   0.363   2.125 -0.4706  0.6915  0.9443
 7134TIP3   OH245596   3.406   0.741   2.000 -0.4984 -0.9261 -0.1424
 7134TIP3    H145597   3.422   0.763   1.908 -1.0618  2.6714  0.4720
 7134TIP3    H245598   3.312   0.724   2.005 -0.7704  0.4700 -0.0360
 7135TIP3   OH245599   1.959   5.551   1.445  0.1962 -0.4893  0.0703
 7135TIP3    H145600   1.980   5.514   1.359 -1.0462  0.8351 -0.8396
 7135TIP3    H245601   2.041   5.545   1.494  1.4532  0.3078 -1.8064
 7136TIP3   OH245602   2.769   4.461   3.049 -0.3074 -0.1215 -0.6832
 7136TIP3    H145603   2.829   4.397   3.087 -0.0440 -0.0289 -0.9319
 7136TIP3    H245604   2.708   4.482   3.119  0.4587  0.4154 -0.1546
 7137TIP3   OH245605   1.400   2.133   0.793  0.0797 -0.1809  0.5230
 7137TIP3    H145606   1.405   2.184   0.873 -0.0052 -0.7026  0.8653
 7137TIP3    H245607   1.390   2.198   0.724  0.8687  0.3128  0.8573
 7138TIP3   OH245608   0.383   2.701   1.890 -0.3131 -0.2996 -0.5262
 7138TIP3    H145609   0.288   2.707   1.888 -0.2663  0.3304 -0.7976
 7138TIP3    H245610   0.414   2.765   1.826  0.2873 -0.6976 -0.6508
 7139TIP3   OH245611   1.258   4.159   3.378 -0.1722  0.5933 -0.1829
 7139TIP3    H145612   1.351   4.154   3.357  0.2396 -0.2504  1.6575
 7139TIP3    H245613   1.214   4.148   3.293  1.3776 -1.1094 -0.8546
 7140TIP3   OH245614   7.316   6.466   2.996 -0.3996  0.6199 -0.4346
 7140TIP3    H145615   7.387   6.414   2.959 -2.3221 -1.6740 -1.1377
 7140TIP3    H245616   7.302   6.536   2.932 -0.4202 -0.4157 -1.6047
 7141TIP3   OH245617   7.506   1.593   1.848  0.3460 -0.1996 -0.1590
 7141TIP3    H145618   7.600   1.578   1.859  0.4016 -0.4610 -0.9371
 7141TIP3    H245619   7.465   1.517   1.889  0.5484 -1.1425 -1.6424
 7142TIP3   OH245620   6.786   0.212   1.352  0.1725 -0.3693 -0.0254
 7142TIP3    H145621   6.868   0.162   1.352  1.0737  1.0712  0.1818
 7142TIP3    H245622   6.767   0.227   1.259 -0.4864 -1.6580 -0.1244
 7143TIP3   OH245623   6.098   5.052   0.856 -0.6293 -0.5174  0.7389
 7143TIP3    H145624   6.124   4.960   0.860  1.7854  0.0787  0.3856
 7143TIP3    H245625   6.166   5.094   0.803 -2.5950  1.2085 -0.5992
 7144TIP3   OH245626   7.203   2.138   2.457 -0.1503 -0.3431  0.2457
 7144TIP3    H145627   7.176   2.215   2.506 -0.9992 -1.0232  0.8882
 7144TIP3    H245628   7.194   2.065   2.519  2.1300 -0.7727  0.1417
 7145TIP3   OH245629   6.755   3.488   0.771 -0.3250 -0.5605  0.1548
 7145TIP3    H145630   6.765   3.572   0.726 -0.0989 -0.9570 -0.5493
 7145TIP3    H245631   6.845   3.461   0.790 -0.3760 -0.8250  0.0260
 7146TIP3   OH245632   5.416   4.032   1.008 -0.8924 -0.0133 -0.1167
 7146TIP3    H145633   5.444   4.097   1.072 -0.7700 -0.2666  0.0911
 7146TIP3    H245634   5.336   3.995   1.045 -1.5799  0.8028 -0.7748
 7147TIP3   OH245635   0.860   4.386   0.978  0.1020  0.1483  0.1861
 7147TIP3    H145636   0.861   4.482   0.983  2.0260  0.2984 -1.9303
 7147TIP3    H245637   0.939   4.359   1.025 -0.0305 -0.3573  0.1214
 7148TIP3   OH245638   1.624   2.029   3.254  0.6698 -0.1297 -0.4646
 7148TIP3    H145639   1.609   1.961   3.320  1.2891  1.1843  1.1260
 7148TIP3    H245640   1.719   2.040   3.252  0.6419 -0.0540 -1.4942
 7149TIP3   OH245641   4.632   2.285   2.398  0.3974 -0.6875  0.2502
 7149TIP3    H145642   4.642   2.355   2.464  2.3075 -1.3742  0.7353
 7149TIP3    H245643   4.620   2.332   2.316  1.8230  0.2396  0.5412
 7150TIP3   OH245644   2.167   7.328   2.410  0.1649 -0.5204  0.1041
 7150TIP3    H145645   2.123   7.245   2.392  1.8990 -1.4644  0.0543
 7150TIP3    H245646   2.120   7.364   2.486 -1.4654 -0.8482 -0.6951
 7151TIP3   OH245647   0.896   4.342   1.408  0.5760 -0.3561 -0.1032
 7151TIP3    H145648   0.865   4.279   1.344  1.9611 -0.2679 -0.9029
 7151TIP3    H245649   0.938   4.411   1.357  1.8933 -0.3809  0.8622
 7152TIP3   OH245650   1.887   3.727   1.067  0.1733  0.1416 -0.0062
 7152TIP3    H145651   1.828   3.772   1.128  0.1223  1.1316 -0.7548
 7152TIP3    H245652   1.973   3.737   1.106  0.0211 -0.1035  0.3992
 7153TIP3   OH245653   6.515   2.580   0.740  0.5871 -0.5821 -0.4401
 7153TIP3    H145654   6.588   2.617   0.790  2.5956 -4.5520  0.0137
 7153TIP3    H245655   6.461   2.537   0.806 -1.1357  0.6498 -0.9979
 7154TIP3   OH245656   7.156   4.766   2.162  0.1580  0.1777 -0.1483
 7154TIP3    H145657   7.169   4.783   2.069 -0.7378  1.2727 -0.0998
 7154TIP3    H245658   7.064   4.788   2.177 -0.0200 -1.0729  0.7763
 7155TIP3   OH245659   7.268   2.320   0.373  0.6389 -0.0452  0.1134
 7155TIP3    H145660   7.213   2.299   0.448  1.6073 -0.8661  0.6001
 7155TIP3    H245661   7.248   2.413   0.355 -1.1031 -0.3813  0.0864
 7156TIP3   OH245662   0.751   4.433   1.668  0.3863 -0.4270 -0.4980
 7156TIP3    H145663   0.663   4.439   1.705 -0.0725 -0.9968 -1.4425
 7156TIP3    H245664   0.736   4.414   1.575  1.5106 -1.6633 -0.4542
 7157TIP3   OH245665   6.715   3.938   1.000  0.2460  0.2270  0.2386
 7157TIP3    H145666   6.807   3.959   0.985 -0.1189  0.8174 -1.3377
 7157TIP3    H245667   6.717   3.853   1.045  1.5598  0.6627  1.0703
 7158TIP3   OH245668   4.533   4.736   2.946  0.1204  0.6199 -0.8784
 7158TIP3    H145669   4.493   4.718   3.031  0.3727  0.2731 -0.8284
 7158TIP3    H245670   4.495   4.671   2.887 -0.9890  1.6543 -1.3231
 7159TIP3   OH245671   5.528   1.071   1.751 -0.2121 -0.2569  0.1094
 7159TIP3    H145672   5.479   1.108   1.677  0.1839 -0.0765 -0.0627
 7159TIP3    H245673   5.618   1.065   1.720 -0.3358 -1.8202 -0.0440
 7160TIP3   OH245674   4.792   3.423   2.370 -0.4796  0.0296 -0.6095
 7160TIP3    H145675   4.727   3.475   2.323 -1.6397 -1.5982 -0.9073
 7160TIP3    H245676   4.754   3.336   2.375  0.6042 -0.3907  1.4410
 7161TIP3   OH245677   3.061   0.640   2.437 -0.0500  0.3692  0.5838
 7161TIP3    H145678   3.074   0.660   2.530  0.5564  0.6712  0.4407
 7161TIP3    H245679   3.003   0.564   2.437  0.1826  0.1812  1.2160
 7162TIP3   OH245680   2.945   1.865   1.005  0.2152  0.1702 -0.2707
 7162TIP3    H145681   3.006   1.926   0.963  0.9512  0.0121  0.5203
 7162TIP3    H245682   2.964   1.780   0.965 -0.0145  0.2513 -0.5571
 7163TIP3   OH245683   3.296   5.108   3.369  0.1658 -0.1248  0.0824
 7163TIP3    H145684   3.331   5.102   3.458 -0.8522 -1.3916  0.4281
 7163TIP3    H245685   3.285   5.017   3.341 -0.5906  0.2504 -0.9057
 7164TIP3   OH245686   2.323   4.825   2.082 -0.0427 -0.0838 -0.6408
 7164TIP3    H145687   2.235   4.811   2.115 -0.2863  2.2988 -0.1042
 7164TIP3    H245688   2.355   4.901   2.130  2.6379 -1.3282 -0.2612
 7165TIP3   OH245689   7.621   0.846   2.151 -0.2296  0.1217  0.2593
 7165TIP3    H145690   7.661   0.801   2.076  0.6970  0.1929  0.6937
 7165TIP3    H245691   7.646   0.793   2.227  1.6233  1.7820  0.8846
 7166TIP3   OH245692   4.264   5.644   1.052 -0.8251  0.0604 -0.9397
 7166TIP3    H145693   4.357   5.663   1.039 -0.5951 -1.2197 -1.3548
 7166TIP3    H245694   4.218   5.705   0.994 -0.3838  2.0379  0.6792
 7167TIP3   OH245695   1.196   0.104   2.366 -0.5008 -0.1386  0.3946
 7167TIP3    H145696   1.136   0.130   2.296 -1.4003 -1.6194  0.5737
 7167TIP3    H245697   1.243   0.028   2.331  0.6136  0.4343  0.6060
 7168TIP3   OH245698   2.798   6.863   1.413  0.0808 -0.4375  0.6307
 7168TIP3    H145699   2.729   6.913   1.457 -0.5575  0.7973 -1.5882
 7168TIP3    H245700   2.757   6.831   1.333  1.5160 -1.4921  0.2799
 7169TIP3   OH245701   3.160   6.069   1.478 -0.3499  0.1488 -0.0235
 7169TIP3    H145702   3.117   6.089   1.562  1.6482 -1.3402  1.4437
 7169TIP3    H245703   3.139   5.977   1.462  2.7378 -0.8595  1.1332
 7170TIP3   OH245704   5.130   2.273   2.992  0.3390 -0.0109 -0.0188
 7170TIP3    H145705   5.122   2.283   3.086 -1.8328  0.0778 -0.1633
 7170TIP3    H245706   5.091   2.187   2.973 -2.8457  1.5008 -1.1261
 7171TIP3   OH245707   4.880   2.880   1.355 -0.3064 -0.1585  0.3079
 7171TIP3    H145708   4.970   2.861   1.328 -0.2081  0.1135  0.4365
 7171TIP3    H245709   4.881   2.875   1.451 -0.6998 -1.3123  0.2576
 7172TIP3   OH245710   5.839   4.623   2.703  0.2867  0.2960  0.6427
 7172TIP3    H145711   5.773   4.625   2.772 -0.0576  0.4093  0.3159
 7172TIP3    H245712   5.795   4.583   2.628  0.3642  1.0243  0.1960
 7173TIP3   OH245713   7.508   1.595   1.543 -0.4039 -0.0443  0.2967
 7173TIP3    H145714   7.564   1.518   1.540 -1.2243 -0.6462 -0.0857
 7173TIP3    H245715   7.508   1.621   1.635  1.1623  0.4850  0.1727
 7174TIP3   OH245716   4.223   6.033   0.744  0.4922 -0.1002  0.1392
 7174TIP3    H145717   4.158   6.088   0.701  0.6167  0.5518  0.7611
 7174TIP3    H245718   4.204   5.944   0.713 -1.6180 -0.1578  1.3808
 7175TIP3   OH245719   4.878   6.626   1.050  0.5385 -0.0470 -0.0766
 7175TIP3    H145720   4.795   6.602   1.007  1.0075  0.8970 -1.6037
 7175TIP3    H245721   4.936   6.649   0.977  2.0284 -0.3137  0.9968
 7176TIP3   OH245722   5.206   2.140   0.915  0.1233 -0.0141  0.4786
 7176TIP3    H145723   5.152   2.070   0.878  0.3227 -0.1131  0.3744
 7176TIP3    H245724   5.175   2.149   1.005  1.8169 -2.0271  1.3419
 7177TIP3   OH245725   7.265   0.320   2.312 -0.1977  0.4052  0.2348
 7177TIP3    H145726   7.281   0.403   2.357  1.3653 -0.4174  1.2718
 7177TIP3    H245727   7.207   0.272   2.371  0.0777  0.1961  0.3391
 7178TIP3   OH245728   1.724   5.766   1.770 -0.1663 -0.0578 -0.3174
 7178TIP3    H145729   1.684   5.767   1.857 -0.8578 -1.5845 -0.5820
 7178TIP3    H245730   1.706   5.853   1.735 -2.1020 -0.2249  0.1076
 7179TIP3   OH245731   3.949   2.280   0.685  0.0950 -0.4364  0.3859
 7179TIP3    H145732   3.955   2.328   0.768 -1.0355 -1.3024  0.9838
 7179TIP3    H245733   3.974   2.190   0.707  0.8517 -0.4506 -0.4475
 7180TIP3   OH245734   5.394   4.593   1.096 -0.5718 -0.3051 -0.3140
 7180TIP3    H145735   5.367   4.621   1.009 -3.0804 -0.6025  0.3037
 7180TIP3    H245736   5.315   4.599   1.149  0.7903 -0.4981  1.8808
 7181TIP3   OH245737   5.739   5.715   2.319 -0.2110 -0.7705  0.5083
 7181TIP3    H145738   5.701   5.746   2.401  0.8140 -1.6265  1.3455
 7181TIP3    H245739   5.751   5.793   2.266  1.8508  0.2529  2.3485
 7182TIP3   OH245740   2.582   4.631   0.751  0.3562 -0.0703 -0.0815
 7182TIP3    H145741   2.493   4.638   0.784  0.5913  0.2093  0.5039
 7182TIP3    H245742   2.636   4.619   0.829  0.9740  1.1633 -0.2943
 7183TIP3   OH245743   6.310   2.703   0.612  0.0471 -0.5025 -0.1016
 7183TIP3    H145744   6.374   2.660   0.669 -0.2612 -0.3014  0.4002
 7183TIP3    H245745   6.237   2.641   0.608 -0.2832 -0.1515  0.4024
 7184TIP3   OH245746   3.811   5.964   2.672  0.3164 -0.1140  0.3212
 7184TIP3    H145747   3.860   5.893   2.631 -2.4254 -1.4526 -0.8946
 7184TIP3    H245748   3.808   6.032   2.604  1.3405  0.4408  0.8026
 7185TIP3   OH245749   7.184   4.517   2.304 -0.0178 -0.0881  0.6097
 7185TIP3    H145750   7.152   4.542   2.390 -0.9331  1.0466 -0.0138
 7185TIP3    H245751   7.168   4.595   2.250 -0.2185 -1.0419 -0.7591
 7186TIP3   OH245752   0.357   2.014   0.815  0.3122  0.2776  0.4173
 7186TIP3    H145753   0.392   2.061   0.739 -1.9637 -0.4145 -1.1664
 7186TIP3    H245754   0.299   2.078   0.858  0.6482  0.2825  0.8663
 7187TIP3   OH245755   2.163   7.493   2.185 -0.0418  0.1488  0.6082
 7187TIP3    H145756   2.228   7.441   2.138 -1.5088 -0.0454 -1.3336
 7187TIP3    H245757   2.141   7.441   2.262  0.1076 -1.0844 -0.1654
 7188TIP3   OH245758   1.914   5.881   0.647 -0.4506  0.0682  0.0608
 7188TIP3    H145759   1.990   5.828   0.672 -0.6818 -0.1062  0.4169
 7188TIP3    H245760   1.878   5.837   0.570 -1.9686 -1.6610  1.6465
 7189TIP3   OH245761   1.117   2.069   1.975 -0.0957  0.4758  0.0171
 7189TIP3    H145762   1.181   2.105   2.037  0.5282  0.5621 -0.6679
 7189TIP3    H245763   1.056   2.142   1.959 -0.0687  0.5557  0.2796
 7190TIP3   OH245764   1.132   0.063   2.670  1.1907 -0.2825 -0.1525
 7190TIP3    H145765   1.179  -0.002   2.618 -1.2251 -0.2530 -2.6381
 7190TIP3    H245766   1.123   0.139   2.611  1.1573  1.0759  1.5152
 7191TIP3   OH245767   6.722   3.706   0.599  0.1081  0.0301  0.1746
 7191TIP3    H145768   6.810   3.743   0.602 -0.0034  0.4753 -1.4602
 7191TIP3    H245769   6.666   3.773   0.637  0.4288 -0.1768  1.0382
 7192TIP3   OH245770   0.672   5.386   1.162  0.0354 -0.2953 -0.2093
 7192TIP3    H145771   0.670   5.463   1.105 -1.0377 -0.0421  0.1365
 7192TIP3    H245772   0.649   5.314   1.104  2.3069 -0.6074 -0.8279
 7193TIP3   OH245773   7.447   6.860   1.809  0.8583 -0.3296  0.2278
 7193TIP3    H145774   7.497   6.781   1.789  1.3161 -0.0347  0.2223
 7193TIP3    H245775   7.450   6.867   1.904 -0.3460 -1.0828  0.3477
 7194TIP3   OH245776   1.647   5.072   0.744 -0.0302 -0.0741  0.4591
 7194TIP3    H145777   1.639   5.166   0.726  1.8834  0.1050  0.3859
 7194TIP3    H245778   1.559   5.037   0.728 -0.3341  1.3786 -1.4159
 7195TIP3   OH245779   5.480   3.763   1.267  0.1305 -0.4102  0.2627
 7195TIP3    H145780   5.394   3.731   1.293 -0.4017  0.8868  0.1761
 7195TIP3    H245781   5.488   3.739   1.175 -0.1925 -0.4165  0.2367
 7196TIP3   OH245782   5.141   6.730   2.408 -0.2143  0.4644 -0.1650
 7196TIP3    H145783   5.214   6.697   2.355 -0.1996  0.5295 -0.1857
 7196TIP3    H245784   5.073   6.663   2.400  0.2298 -0.1096  0.7212
 7197TIP3   OH245785   0.282   5.228   1.751 -0.1661  0.2210  0.0207
 7197TIP3    H145786   0.353   5.235   1.687 -1.1417 -1.5773 -1.3797
 7197TIP3    H245787   0.325   5.226   1.836  1.3180  0.8649 -0.6985
 7198TIP3   OH245788   6.461   2.199   2.053  0.4996  0.3169 -0.6045
 7198TIP3    H145789   6.381   2.246   2.075  0.3976 -0.8311  1.7911
 7198TIP3    H245790   6.445   2.164   1.965 -1.1465  1.1036 -0.6484
 7199TIP3   OH245791   7.100   4.639   0.637  0.4497  0.4890  0.3635
 7199TIP3    H145792   7.133   4.724   0.608  2.0621 -0.5299 -0.9592
 7199TIP3    H245793   7.177   4.595   0.673 -0.0389 -0.9423 -0.2911
 7200TIP3   OH245794   0.529   4.474   2.532 -0.4714  0.2551  0.3050
 7200TIP3    H145795   0.542   4.411   2.461 -0.7316 -2.1972  2.2644
 7200TIP3    H245796   0.434   4.478   2.543 -0.4171 -1.5508  2.1589
 7201TIP3   OH245797   7.252   0.429   2.691  0.3877 -0.5460  0.3994
 7201TIP3    H145798   7.234   0.463   2.779  1.8579 -3.2103  1.8701
 7201TIP3    H245799   7.202   0.347   2.687  1.5414 -1.2240 -0.6377
 7202TIP3   OH245800   1.537   5.070   1.160 -0.1387 -0.0113 -0.3438
 7202TIP3    H145801   1.512   5.148   1.111 -1.3333 -0.4148 -0.4041
 7202TIP3    H245802   1.525   4.998   1.099 -2.3098 -0.5992  0.6805
 7203TIP3   OH245803   6.760   3.944   1.321  0.0952 -0.1421  0.0984
 7203TIP3    H145804   6.729   4.002   1.252  0.9337  0.2919  0.0722
 7203TIP3    H245805   6.800   4.003   1.386 -0.0764 -0.5961  0.6234
 7204TIP3   OH245806   3.639   7.110   1.007  0.6301  0.8827 -0.0387
 7204TIP3    H145807   3.588   7.110   0.926  0.3752 -0.1167  0.1003
 7204TIP3    H245808   3.587   7.163   1.068 -0.3577 -0.2465  0.1476
 7205TIP3   OH245809   1.987   5.697   1.822 -0.0065  0.0470 -0.0455
 7205TIP3    H145810   2.006   5.749   1.899 -1.6589  1.2276 -0.3987
 7205TIP3    H245811   1.897   5.719   1.798  0.1310 -0.9967 -1.7493
 7206TIP3   OH245812   5.702   5.342   2.209 -0.3838  0.4147  0.5759
 7206TIP3    H145813   5.734   5.336   2.119 -0.5270 -1.1507  0.5837
 7206TIP3    H245814   5.646   5.264   2.219  0.7713 -0.2558  2.4553
 7207TIP3   OH245815   4.672   2.317   1.998  0.0355 -0.5728 -0.2054
 7207TIP3    H145816   4.619   2.386   2.039 -0.4494 -1.4233  0.6296
 7207TIP3    H245817   4.759   2.357   1.990 -0.2218  0.1284  0.3147
 7208TIP3   OH245818   5.861   3.587   0.726 -0.2896  0.6990  0.2721
 7208TIP3    H145819   5.896   3.529   0.659  0.1462 -0.2327  1.2773
 7208TIP3    H245820   5.794   3.639   0.681  0.6653  0.7853 -1.0975
 7209TIP3   OH245821   5.037   2.529   2.118 -0.8724  0.5896 -0.0563
 7209TIP3    H145822   5.029   2.621   2.089  0.6165  1.0341  0.8628
 7209TIP3    H245823   5.118   2.498   2.077 -1.5993 -0.5014 -0.7393
 7210TIP3   OH245824   5.780   7.355   1.890 -0.0764 -0.2736 -0.0321
 7210TIP3    H145825   5.695   7.391   1.913 -0.2859 -0.2555 -0.8164
 7210TIP3    H245826   5.785   7.272   1.937  0.7127  1.0347  2.4106
 7211TIP3   OH245827   0.455   4.026   2.773 -0.7357  0.9069 -0.6130
 7211TIP3    H145828   0.529   4.085   2.783  0.2787 -0.0276 -2.2568
 7211TIP3    H245829   0.446   4.012   2.679 -2.2954  0.1099 -0.3940
 7212TIP3   OH245830   0.848   3.802   3.318 -0.1049  0.4831 -0.5250
 7212TIP3    H145831   0.753   3.813   3.312 -0.4858 -1.7423  0.5256
 7212TIP3    H245832   0.862   3.708   3.302  1.8374  0.6154  0.2094
 7213TIP3   OH245833   4.955   6.578   3.044  0.1304 -0.4705  0.0363
 7213TIP3    H145834   5.015   6.570   2.970  1.0034 -1.0933  0.7993
 7213TIP3    H245835   4.946   6.672   3.058  1.1427 -0.3754  0.0828
 7214TIP3   OH245836   5.879   5.327   1.406 -0.0121 -0.1313 -0.0643
 7214TIP3    H145837   5.833   5.305   1.324  0.4816  0.4177 -0.4978
 7214TIP3    H245838   5.971   5.327   1.382  0.2687 -1.6956  0.9074
 7215TIP3   OH245839   2.930   4.961   2.899  0.4078  0.1038 -0.3531
 7215TIP3    H145840   2.936   4.996   2.988  1.3773  0.5989 -0.5953
 7215TIP3    H245841   2.868   4.888   2.906 -0.0609  0.5681  0.5830
 7216TIP3   OH245842   4.543   5.370   0.418 -0.1649  0.2890  0.0271
 7216TIP3    H145843   4.453   5.362   0.386 -0.1755  2.5432 -0.6617
 7216TIP3    H245844   4.564   5.282   0.451 -1.6813 -0.9993 -2.1764
 7217TIP3   OH245845   5.184   4.186   0.729  0.2405  0.2343 -0.2796
 7217TIP3    H145846   5.159   4.096   0.751  0.4839  0.1684 -0.2763
 7217TIP3    H245847   5.276   4.180   0.704 -0.0133  0.3163 -1.2692
 7218TIP3   OH245848   1.302   4.968   2.115 -0.3250  0.1276  1.0402
 7218TIP3    H145849   1.218   4.941   2.078  0.4648  0.2890 -1.0158
 7218TIP3    H245850   1.343   5.019   2.045  1.9893 -0.9599  1.5209
 7219TIP3   OH245851   6.929   2.294   1.231  0.2543 -0.5240  0.0935
 7219TIP3    H145852   6.964   2.367   1.281 -2.7078  1.5223 -0.5667
 7219TIP3    H245853   6.969   2.216   1.271  1.6249  1.2627  2.4724
 7220TIP3   OH245854   2.196   6.763   2.166 -0.2489  0.7876  0.2627
 7220TIP3    H145855   2.281   6.728   2.193  0.3694  0.3301 -2.0988
 7220TIP3    H245856   2.213   6.855   2.148 -0.4046  0.8420  0.3940
 7221TIP3   OH245857   5.493   6.296   3.091  0.0065  0.8556 -0.3895
 7221TIP3    H145858   5.546   6.342   3.156  0.6428 -0.3928  0.0080
 7221TIP3    H245859   5.404   6.329   3.105  0.3553  1.5400  0.2552
 7222TIP3   OH245860   4.494   0.855   1.031  0.0197  0.2215  0.1396
 7222TIP3    H145861   4.579   0.900   1.030  0.3000 -0.3004 -1.1028
 7222TIP3    H245862   4.515   0.762   1.037 -0.4371  0.0614 -0.5603
 7223TIP3   OH245863   0.775   4.504   2.716  0.3396  0.2086  0.4925
 7223TIP3    H145864   0.767   4.456   2.799  1.2139  1.8202  1.5533
 7223TIP3    H245865   0.701   4.472   2.664 -0.5294 -0.4963  2.0574
 7224TIP3   OH245866   4.542   4.099   1.266  0.0634 -0.5071 -0.2586
 7224TIP3    H145867   4.561   4.102   1.173 -0.3729 -1.0238 -0.3720
 7224TIP3    H245868   4.446   4.096   1.271  0.0608  0.0230  0.2241
 7225TIP3   OH245869   6.776   2.623   1.689  0.3733 -0.0620 -0.4301
 7225TIP3    H145870   6.792   2.539   1.646  2.8081  0.3755 -0.5214
 7225TIP3    H245871   6.742   2.679   1.620 -0.6173 -0.7522 -0.5288
 7226TIP3   OH245872   6.140   4.001   0.971  0.7275  0.1171  0.0063
 7226TIP3    H145873   6.094   3.958   1.043 -0.9924  0.4581 -0.8573
 7226TIP3    H245874   6.133   3.939   0.898  0.7139  0.6467 -0.4442
 7227TIP3   OH245875   3.677   4.019   2.065 -0.2892  0.1626  0.4579
 7227TIP3    H145876   3.630   3.943   2.098 -0.5672  0.3535  0.5064
 7227TIP3    H245877   3.755   4.025   2.119 -0.2690 -0.0849  0.4562
 7228TIP3   OH245878   1.299   5.901   0.696  0.1436 -0.2945 -0.0498
 7228TIP3    H145879   1.298   5.917   0.790 -1.3154  0.1453 -0.1120
 7228TIP3    H245880   1.359   5.967   0.661  0.8078 -0.5543  0.5725
 7229TIP3   OH245881   2.917   1.687   1.214 -0.3930  0.3012  0.0173
 7229TIP3    H145882   2.830   1.655   1.189 -2.1622  3.7842  1.1573
 7229TIP3    H245883   2.931   1.764   1.160  1.7317  0.2389  0.3883
 7230TIP3   OH245884   2.420   5.804   0.775 -0.3472  0.2292 -0.4967
 7230TIP3    H145885   2.383   5.886   0.808  0.5000  0.5872 -0.3940
 7230TIP3    H245886   2.401   5.740   0.843  0.3318  0.6984  0.1550
 7231TIP3   OH245887   3.987   0.520   2.458 -0.0108  0.2966  0.1220
 7231TIP3    H145888   3.911   0.539   2.513 -0.2010 -1.5498  0.5837
 7231TIP3    H245889   4.062   0.530   2.517  0.2097  2.7548 -0.4995
 7232TIP3   OH245890   4.546   3.734   2.318 -0.3313 -0.3472 -0.2162
 7232TIP3    H145891   4.566   3.687   2.399  0.2168 -0.0180 -0.1531
 7232TIP3    H245892   4.456   3.765   2.329 -1.2478 -2.5954 -0.8549
 7233TIP3   OH245893   6.494   5.199   1.387 -0.0133  0.5567  0.2292
 7233TIP3    H145894   6.536   5.235   1.309  0.9061 -0.0317  0.4410
 7233TIP3    H245895   6.419   5.257   1.403  0.4220  1.3207 -0.4478
 7234TIP3   OH245896   4.006   7.428   1.911 -0.6937  0.3177 -0.0157
 7234TIP3    H145897   3.994   7.451   1.819  0.0363 -1.6930 -0.6681
 7234TIP3    H245898   3.934   7.368   1.930  0.8507 -1.6896 -0.2172
 7235TIP3   OH245899   1.572   5.437   2.301  0.4810  0.1634  0.0168
 7235TIP3    H145900   1.522   5.488   2.237 -0.1885 -0.5057  0.0011
 7235TIP3    H245901   1.514   5.430   2.376  0.1886 -1.3455 -0.3197
 7236TIP3   OH245902   6.414   7.395   2.242 -0.1883 -0.2844 -0.8647
 7236TIP3    H145903   6.465   7.318   2.217  0.6665 -0.1589  0.3813
 7236TIP3    H245904   6.420   7.453   2.167 -0.8834 -1.4363 -1.8461
 7237TIP3   OH245905   5.433   5.267   0.771  0.1866 -0.6926  0.4917
 7237TIP3    H145906   5.389   5.338   0.817  0.7102  1.2060 -1.6845
 7237TIP3    H245907   5.369   5.236   0.707  0.1969 -1.7143  0.9675
 7238TIP3   OH245908   1.410   1.185   2.279  0.6652  0.5774 -0.3642
 7238TIP3    H145909   1.418   1.233   2.197  0.4092  0.8746 -0.2153
 7238TIP3    H245910   1.365   1.245   2.338  0.8577  0.3686 -0.0007
 7239TIP3   OH245911   4.782   0.197   0.587  0.2135 -0.3417 -0.4006
 7239TIP3    H145912   4.795   0.292   0.586 -2.7311  0.2375  1.4713
 7239TIP3    H245913   4.710   0.182   0.526 -2.2270 -0.6510  2.3497
 7240TIP3   OH245914   4.883   1.550   0.641  0.9324  0.2291  0.0358
 7240TIP3    H145915   4.954   1.603   0.678  1.2553 -1.8348  2.6466
 7240TIP3    H245916   4.925   1.467   0.618 -0.2562 -0.2969 -0.3172
 7241TIP3   OH245917   0.581   7.213   1.962  0.1991 -0.0681  0.1344
 7241TIP3    H145918   0.671   7.184   1.946  0.0058 -0.7714  0.2552
 7241TIP3    H245919   0.576   7.299   1.920  1.4842  0.8774  1.7964
 7242TIP3   OH245920   6.636   3.679   1.298 -0.7329 -0.0261  0.2203
 7242TIP3    H145921   6.635   3.775   1.304 -1.3024 -0.0632  0.7226
 7242TIP3    H245922   6.571   3.659   1.231 -1.6597 -0.1251  1.1249
 7243TIP3   OH245923   2.250   4.116   2.109  0.5402  0.0176  0.1827
 7243TIP3    H145924   2.196   4.141   2.183  0.2619  0.6354 -0.2194
 7243TIP3    H245925   2.274   4.199   2.068  1.6581 -0.2486  0.2590
 7244TIP3   OH245926   4.693   6.515   2.957  0.1112  0.0341 -0.5170
 7244TIP3    H145927   4.683   6.604   2.922  0.3189  0.0970 -0.4158
 7244TIP3    H245928   4.778   6.516   3.001 -1.1925  0.6875  2.2045
 7245TIP3   OH245929   4.960   3.357   0.882  0.7265 -0.3346  0.0012
 7245TIP3    H145930   4.877   3.311   0.870  0.0853  0.9587 -0.7694
 7245TIP3    H245931   5.014   3.328   0.808  0.8094 -0.8182  0.2440
 7246TIP3   OH245932   6.979   3.808   0.692 -0.1604 -0.1344  0.0386
 7246TIP3    H145933   7.002   3.899   0.709  0.3538 -0.0175 -1.2055
 7246TIP3    H245934   7.047   3.757   0.738  0.7002  0.1551 -0.8847
 7247TIP3   OH245935   5.730   7.553   0.378  0.2348  0.1976  0.0922
 7247TIP3    H145936   5.636   7.546   0.360  0.6518 -0.8367 -2.0615
 7247TIP3    H245937   5.742   7.512   0.463 -1.3037  0.6410  0.5497
 7248TIP3   OH245938   7.172   0.808   1.740  0.2033  0.3685  0.2150
 7248TIP3    H145939   7.233   0.761   1.683 -0.6100  0.0476 -0.4091
 7248TIP3    H245940   7.160   0.750   1.815  1.0186  0.6424  0.5663
 7249TIP3   OH245941   1.906   4.817   2.391  0.4009  0.5071 -0.4454
 7249TIP3    H145942   1.912   4.907   2.422 -1.9577  0.9896 -1.1894
 7249TIP3    H245943   1.871   4.768   2.466  0.2698  0.5021 -0.5101
 7250TIP3   OH245944   6.174   2.746   1.470 -0.2224  0.4536 -0.3041
 7250TIP3    H145945   6.164   2.755   1.376 -1.1898 -0.4225 -0.3059
 7250TIP3    H245946   6.087   2.720   1.501 -0.4861  2.7034  1.1006
 7251TIP3   OH245947   3.763   3.984   0.737 -0.2761  0.2349 -0.0811
 7251TIP3    H145948   3.849   4.012   0.767  0.3507 -2.6701  1.2031
 7251TIP3    H245949   3.772   3.890   0.723 -2.9391  0.0420 -1.0537
 7252TIP3   OH245950   6.827   1.850   1.625  0.1016 -0.5233  0.0409
 7252TIP3    H145951   6.823   1.765   1.580  0.3083 -0.5805  0.1294
 7252TIP3    H245952   6.920   1.863   1.643  0.4650  1.0287 -2.4866
 7253TIP3   OH245953   5.773   4.445   2.478  0.4170  0.5230  0.4908
 7253TIP3    H145954   5.810   4.403   2.400 -0.6354  0.9981 -0.2988
 7253TIP3    H245955   5.760   4.373   2.540 -0.3212 -0.1742 -0.4269
 7254TIP3   OH245956   2.645   1.884   1.350  0.5685  1.3564 -0.3494
 7254TIP3    H145957   2.599   1.814   1.303  2.9047 -0.5780  0.0558
 7254TIP3    H245958   2.681   1.939   1.280 -0.4123  1.5584 -0.7043
 7255TIP3   OH245959   2.945   5.890   2.273 -0.0781 -0.3921 -0.2625
 7255TIP3    H145960   2.983   5.941   2.202  1.3110 -1.2980 -0.2117
 7255TIP3    H245961   2.850   5.904   2.265  0.2127  1.7383 -0.5403
 7256TIP3   OH245962   7.406   2.734   3.132 -0.4483 -0.2750 -0.0712
 7256TIP3    H145963   7.400   2.671   3.204  0.2259 -0.6227 -0.3149
 7256TIP3    H245964   7.324   2.783   3.137 -0.3200 -0.1282  1.0977
 7257TIP3   OH245965   5.729   0.235   2.124  0.8018 -0.9887 -0.0713
 7257TIP3    H145966   5.800   0.174   2.146 -0.6205 -2.2116  1.3626
 7257TIP3    H245967   5.765   0.288   2.053  2.5468 -2.6732 -0.5432
 7258TIP3   OH245968   0.438   5.516   0.958 -0.4741 -0.6946 -0.0242
 7258TIP3    H145969   0.430   5.446   1.022  0.0440 -0.6503  0.0909
 7258TIP3    H245970   0.354   5.516   0.912 -0.7508 -0.9014  0.4727
 7259TIP3   OH245971   5.473   4.285   0.633  0.1385 -0.1756 -0.0213
 7259TIP3    H145972   5.535   4.320   0.697 -1.3368  0.1333  1.2751
 7259TIP3    H245973   5.455   4.196   0.662 -1.2925  0.2884  0.6210
 7260TIP3   OH245974   7.310   1.827   1.185  0.6137 -0.1762  0.3204
 7260TIP3    H145975   7.254   1.771   1.132 -0.5021  0.0234  1.2362
 7260TIP3    H245976   7.302   1.792   1.274 -0.3076  1.5338  0.9646
 7261TIP3   OH245977   4.579   0.102   0.942  0.1869 -0.0860 -0.1878
 7261TIP3    H145978   4.642   0.058   0.885  0.3002 -1.6041  1.0257
 7261TIP3    H245979   4.527   0.156   0.883  0.2867 -1.5729 -1.7329
 7262TIP3   OH245980   4.073   5.972   2.433  0.1156 -0.0413  0.3233
 7262TIP3    H145981   4.144   5.929   2.386  1.0472  0.3743  1.3003
 7262TIP3    H245982   3.993   5.929   2.402  0.5348  0.9467 -2.4453
 7263TIP3   OH245983   4.905   4.020   1.684 -0.2282  0.2950  0.1779
 7263TIP3    H145984   4.962   3.944   1.684 -0.9026 -0.2184 -0.1840
 7263TIP3    H245985   4.829   3.994   1.631 -0.9076  0.8764  0.8287
 7264TIP3   OH245986   2.879   7.406   2.353 -0.0263 -0.6179  0.4701
 7264TIP3    H145987   2.931   7.325   2.356  1.1509  0.0274 -1.0442
 7264TIP3    H245988   2.943   7.475   2.335 -1.5166  0.0101 -3.2533
 7265TIP3   OH245989   3.953   6.788   9.020  0.3046  0.2511  0.4225
 7265TIP3    H145990   3.935   6.704   8.977 -0.8710  1.2999 -1.1859
 7265TIP3    H245991   3.874   6.839   9.009  0.5890  1.2138  2.3805
 7266TIP3   OH245992   6.408   3.610   0.550  0.1424 -0.1625 -0.3505
 7266TIP3    H145993   6.430   3.556   0.626  0.1229 -1.4388 -1.2246
 7266TIP3    H245994   6.408   3.700   0.584 -0.3228 -0.7369  1.2549
 7267TIP3   OH245995   3.989   5.617   2.267 -0.6755  0.0045 -0.0312
 7267TIP3    H145996   4.017   5.606   2.176 -1.1956  1.5965 -0.4189
 7267TIP3    H245997   3.895   5.600   2.266 -0.9137  1.2430 -0.0528
 7268TIP3   OH245998   1.575   3.372   1.129 -0.1267 -0.2579  0.1370
 7268TIP3    H145999   1.601   3.301   1.070  1.5419  0.9223 -0.6483
 7268TIP3    H246000   1.492   3.405   1.093  0.0320 -0.6248 -0.5842
 7269TIP3   OH246001   2.406   4.121   2.398  0.2928  0.1193  0.5755
 7269TIP3    H146002   2.322   4.154   2.368  0.1881  0.9631  1.7477
 7269TIP3    H246003   2.426   4.172   2.476  1.2142 -1.0434  1.1341
 7270TIP3   OH246004   2.437   4.512   2.702 -0.1036  0.2282  0.0239
 7270TIP3    H146005   2.457   4.548   2.788  1.0895 -1.0670  0.3228
 7270TIP3    H246006   2.355   4.555   2.677  0.0881  1.4367  1.3131
 7271TIP3   OH246007   4.976   5.301   2.433 -0.3147 -0.0340 -0.8523
 7271TIP3    H146008   5.031   5.250   2.373 -1.4465 -2.1693 -0.1871
 7271TIP3    H246009   4.950   5.238   2.501 -1.9429  1.4054 -0.0663
 7272TIP3   OH246010   7.594   3.853   2.718  0.5511  0.0430 -0.5797
 7272TIP3    H146011   7.671   3.803   2.744 -0.0965 -0.8353 -0.2771
 7272TIP3    H246012   7.543   3.863   2.798  0.0187 -0.0015 -0.9064
 7273TIP3   OH246013   1.667   2.666   0.636  0.5431  0.2097 -0.5809
 7273TIP3    H146014   1.753   2.659   0.677  0.7371 -1.3614 -1.1916
 7273TIP3    H246015   1.672   2.747   0.584  1.1101  0.9295  0.5448
 7274TIP3   OH246016   0.833   3.229   0.571  0.0164  0.1917 -0.5647
 7274TIP3    H146017   0.763   3.293   0.560  1.0660  1.1339 -2.3056
 7274TIP3    H246018   0.837   3.213   0.665 -2.0579  0.6099 -0.3623
 7275TIP3   OH246019   1.791   2.411   2.608 -0.2703  0.0207 -0.7662
 7275TIP3    H146020   1.707   2.368   2.592 -1.6115  2.3686 -0.5586
 7275TIP3    H246021   1.844   2.391   2.531 -1.1232 -1.2456 -1.0444
 7276TIP3   OH246022   4.701   7.344   3.065  0.4335 -0.4795 -0.7809
 7276TIP3    H146023   4.622   7.320   3.114  0.5292  1.2533  0.3288
 7276TIP3    H246024   4.768   7.284   3.096 -0.2692 -1.5013 -1.1986
 7277TIP3   OH246025   7.506   4.634   1.685  0.2055  0.5916  0.0876
 7277TIP3    H146026   7.538   4.642   1.775  1.9338 -1.4737 -0.2403
 7277TIP3    H246027   7.414   4.658   1.690 -0.1474 -0.8852  2.7332
 7278TIP3   OH246028   7.264   5.500   0.723  0.4824 -0.4863 -0.1797
 7278TIP3    H146029   7.322   5.424   0.727 -0.8864 -1.5191  2.0041
 7278TIP3    H246030   7.178   5.462   0.706  0.1673  0.8725 -1.8306
 7279TIP3   OH246031   0.368   2.953   2.108  0.0030  0.3860 -0.2935
 7279TIP3    H146032   0.426   2.892   2.154  1.6538  0.3679 -2.2140
 7279TIP3    H246033   0.289   2.902   2.089 -0.7655  0.4211  2.4297
 7280TIP3   OH246034   4.511   7.040   0.692  0.5410 -0.0725 -0.3971
 7280TIP3    H146035   4.486   7.132   0.685  2.0291  0.3214 -0.9644
 7280TIP3    H246036   4.500   7.004   0.604  2.5090  0.3002 -0.8530
 7281TIP3   OH246037   2.825   0.437   2.450  0.2673  0.0382 -0.7501
 7281TIP3    H146038   2.798   0.390   2.529 -1.5315 -2.5253 -2.7193
 7281TIP3    H246039   2.755   0.501   2.435  1.4430  1.7185  0.5323
 7282TIP3   OH246040   7.542   2.799   2.373  0.2584  0.4624 -0.1642
 7282TIP3    H146041   7.635   2.784   2.360 -0.0466  0.1188 -2.3221
 7282TIP3    H246042   7.520   2.749   2.452  1.6943 -0.3414 -0.2447
 7283TIP3   OH246043   0.326   1.217   2.558  0.2982  0.0034 -0.4657
 7283TIP3    H146044   0.336   1.122   2.565  0.4650 -0.0423 -1.1899
 7283TIP3    H246045   0.243   1.236   2.600  1.5167 -0.1139  2.1628
 7284TIP3   OH246046   3.322   3.534   0.912 -0.1108  0.2221 -0.0759
 7284TIP3    H146047   3.256   3.484   0.960 -0.1444 -0.3536 -0.7215
 7284TIP3    H246048   3.357   3.596   0.977 -0.3000 -0.4059  0.6301
 7285TIP3   OH246049   0.604   5.279   2.845 -0.1157  0.4491 -0.0400
 7285TIP3    H146050   0.695   5.251   2.851 -0.2482 -0.2176 -0.9296
 7285TIP3    H246051   0.554   5.205   2.882 -0.3853  0.0776 -1.1274
 7286TIP3   OH246052   6.618   4.208   2.690  0.4899  0.0021  0.3605
 7286TIP3    H146053   6.561   4.132   2.679  0.7556 -0.4878  2.1347
 7286TIP3    H246054   6.640   4.234   2.600 -1.0854 -0.8686 -0.3230
 7287TIP3   OH246055   2.040   2.933   2.444  0.7819  0.5009  0.1513
 7287TIP3    H146056   2.063   2.842   2.467  0.8230 -0.0316 -1.8003
 7287TIP3    H246057   1.961   2.952   2.495 -0.3686 -1.3353 -0.8562
 7288TIP3   OH246058   1.465   2.150   2.748  0.6753  0.0057  0.1438
 7288TIP3    H146059   1.514   2.082   2.794  0.5920  0.1000  0.3728
 7288TIP3    H246060   1.447   2.216   2.814 -2.4066 -1.4166  0.9118
 7289TIP3   OH246061   7.566   0.417   2.212 -0.3699 -0.4629  0.4375
 7289TIP3    H146062   7.557   0.330   2.251 -0.8651 -0.1363  1.0702
 7289TIP3    H246063   7.478   0.455   2.217  0.0561  0.5016  1.2070
 7290TIP3   OH246064   0.142   1.156   1.922  0.0927 -0.1469 -0.2742
 7290TIP3    H146065   0.079   1.093   1.887 -1.8638  1.5810 -0.1134
 7290TIP3    H246066   0.227   1.118   1.904 -0.9702 -2.8688 -0.0579
 7291TIP3   OH246067   1.612   4.685   3.056 -0.0277  0.3675  0.5486
 7291TIP3    H146068   1.526   4.646   3.076  0.0156  0.0234  0.0811
 7291TIP3    H246069   1.597   4.779   3.059 -1.0923  0.3667 -2.2617
 7292TIP3   OH246070   6.209   7.243   1.725 -0.2287  0.0193  0.1029
 7292TIP3    H146071   6.125   7.281   1.698 -0.6196  0.3248  1.5961
 7292TIP3    H246072   6.197   7.148   1.713 -0.9471  0.0258  0.6268
 7293TIP3   OH246073   0.391   2.420   1.123 -0.4540  0.3211  0.2783
 7293TIP3    H146074   0.333   2.492   1.100 -0.3397  0.2388 -0.2834
 7293TIP3    H246075   0.477   2.460   1.129 -0.0054 -0.1001 -2.1726
 7294TIP3   OH246076   2.799   4.667   1.266 -0.1554  0.5795 -0.0668
 7294TIP3    H146077   2.827   4.667   1.358 -0.0635 -0.8141 -0.0710
 7294TIP3    H246078   2.730   4.600   1.262 -0.6591  1.1286 -0.8753
 7295TIP3   OH246079   1.363   1.515   2.173  0.2388 -0.1516 -0.2715
 7295TIP3    H146080   1.284   1.462   2.164  0.6916 -0.6787 -1.3109
 7295TIP3    H246081   1.334   1.596   2.216 -0.6762 -0.7330  0.2294
 7296TIP3   OH246082   7.023   1.228   1.701  0.2710  0.5343  0.1288
 7296TIP3    H146083   6.999   1.307   1.750  0.1315 -0.8063  2.3528
 7296TIP3    H246084   6.948   1.211   1.643 -0.6993  0.7816  1.2800
 7297TIP3   OH246085   0.686   6.181   2.267  0.2646  0.0815 -0.3174
 7297TIP3    H146086   0.593   6.199   2.254  0.0416  0.8433  1.8360
 7297TIP3    H246087   0.716   6.253   2.323  1.7143 -1.1343  0.5442
 7298TIP3   OH246088   4.672   4.002   1.529  0.1241  0.4244  0.6614
 7298TIP3    H146089   4.593   4.049   1.556  0.1086  0.9866 -0.3049
 7298TIP3    H246090   4.653   3.972   1.440 -1.2399 -4.5060  2.3069
 7299TIP3   OH246091   6.140   7.659   0.830  0.0639  0.0116  0.0112
 7299TIP3    H146092   6.153   7.696   0.918 -0.2313 -0.3091  0.1926
 7299TIP3    H246093   6.093   7.727   0.783 -1.4398 -0.5376  0.6689
 7300TIP3   OH246094   6.528   6.924   2.852 -0.0521  0.2772  0.4767
 7300TIP3    H146095   6.444   6.907   2.809  0.1830 -0.2488  0.2186
 7300TIP3    H246096   6.552   6.839   2.890  0.1587  0.5295  0.9117
 7301TIP3   OH246097   1.779   3.999   1.126 -0.0235  0.4311 -0.0193
 7301TIP3    H146098   1.754   3.944   1.200 -1.4278  0.2321 -0.6174
 7301TIP3    H246099   1.803   4.083   1.167  1.1038 -0.2583  0.8008
 7302TIP3   OH246100   4.896   0.138   3.157  0.0640  0.2670  0.2212
 7302TIP3    H146101   4.923   0.088   3.080  0.6736  1.0692 -0.1067
 7302TIP3    H246102   4.812   0.175   3.133 -0.0017  0.0751  0.1499
 7303TIP3   OH246103   4.605   3.991   0.637 -0.1297 -0.1937  0.4642
 7303TIP3    H146104   4.596   4.032   0.551 -0.9832 -1.5804 -0.1499
 7303TIP3    H246105   4.560   4.049   0.697  0.7576  0.9634  0.0457
 7304TIP3   OH246106   5.774   2.290   2.022 -0.4360 -0.5083  0.1865
 7304TIP3    H146107   5.725   2.220   2.065 -0.3722 -1.3006 -0.9945
 7304TIP3    H246108   5.727   2.305   1.940  0.1390  0.1340 -0.0310
 7305TIP3   OH246109   6.530   2.934   0.560 -0.5924  0.1465 -0.0509
 7305TIP3    H146110   6.543   2.850   0.516 -1.1077 -0.8410  1.5955
 7305TIP3    H246111   6.605   2.987   0.532 -0.2360 -0.8578 -1.0932
 7306TIP3   OH246112   1.718   3.640   3.319 -0.4240  0.4672 -0.5638
 7306TIP3    H146113   1.735   3.727   3.354  1.1114  0.8792 -2.1765
 7306TIP3    H246114   1.794   3.588   3.344 -0.4593  0.1108 -1.1663
 7307TIP3   OH246115   0.140   0.024   1.406  0.5598 -0.1475  0.8315
 7307TIP3    H146116   0.208   0.091   1.411  1.7862 -1.4181  1.9339
 7307TIP3    H246117   0.087   0.049   1.330  2.7710  0.4310 -0.6157
 7308TIP3   OH246118   0.146   2.530   2.100  0.6222 -0.5844 -0.0734
 7308TIP3    H146119   0.150   2.614   2.054 -0.5300 -0.6980 -0.4193
 7308TIP3    H246120   0.064   2.534   2.150  0.1017 -1.8421 -0.7883
 7309TIP3   OH246121   5.814   3.380   1.154  0.7893 -0.3735  0.4884
 7309TIP3    H146122   5.748   3.440   1.120  0.7551 -0.6931 -0.0170
 7309TIP3    H246123   5.834   3.322   1.080 -1.7381 -3.3026  1.8485
 7310TIP3   OH246124   5.678   2.126   1.326 -0.1340  0.3285  0.5947
 7310TIP3    H146125   5.655   2.210   1.286 -1.1948  0.1810  0.8685
 7310TIP3    H246126   5.605   2.069   1.304  1.1513 -0.9028 -0.6617
 7311TIP3   OH246127   7.342   3.462   1.288 -0.5878 -0.1745 -0.4743
 7311TIP3    H146128   7.273   3.525   1.311  0.2831  0.7514 -0.3333
 7311TIP3    H246129   7.398   3.459   1.365  0.9344  1.0169 -1.4791
 7312TIP3   OH246130   5.080   3.921   0.762  0.7061 -0.1502 -0.0334
 7312TIP3    H146131   5.147   3.886   0.821  0.4821 -0.1677  0.2145
 7312TIP3    H246132   5.044   3.843   0.719 -0.7417 -0.3899  1.5250
 7313TIP3   OH246133   0.318   7.309   0.897  0.1164  0.5697 -0.4196
 7313TIP3    H146134   0.263   7.358   0.836 -0.3919 -0.4274 -0.7875
 7313TIP3    H246135   0.256   7.253   0.945  0.8891 -1.6780 -1.8568
 7314TIP3   OH246136   7.482   6.876   1.404 -0.2976 -0.0225 -0.0812
 7314TIP3    H146137   7.525   6.958   1.431 -1.5680  0.7341 -0.2987
 7314TIP3    H246138   7.421   6.857   1.475 -1.3360  0.2280 -0.8863
 7315TIP3   OH246139   6.233   0.241   1.361 -0.1074  0.4300 -0.3493
 7315TIP3    H146140   6.299   0.178   1.332 -0.3830  0.5892 -1.3567
 7315TIP3    H246141   6.284   0.319   1.384 -0.0034  1.1965 -2.8241
 7316TIP3   OH246142   6.239   4.243   2.246  0.0838 -0.3381  0.0762
 7316TIP3    H146143   6.274   4.281   2.326  1.7300 -0.6899 -0.4271
 7316TIP3    H246144   6.201   4.317   2.198 -0.1057  0.0175  0.7689
 7317TIP3   OH246145   1.936   7.126   1.307  0.3637 -0.5147 -0.2995
 7317TIP3    H146146   1.881   7.055   1.341  0.0507  0.0644  0.4163
 7317TIP3    H246147   1.979   7.088   1.230  0.4954 -1.6109  0.2964
 7318TIP3   OH246148   5.947   7.401   1.122  0.4032  0.1843 -0.1223
 7318TIP3    H146149   5.858   7.419   1.152  0.3789 -0.2792  0.0848
 7318TIP3    H246150   5.937   7.343   1.047  0.5210  0.3388 -0.2586
 7319TIP3   OH246151   4.046   0.295   1.269 -0.0766 -0.5174  0.4389
 7319TIP3    H146152   3.972   0.339   1.226  0.7665 -0.1875 -0.7348
 7319TIP3    H246153   4.051   0.336   1.355  1.2484  2.4831 -0.9191
 7320TIP3   OH246154   1.241   3.077   1.161 -0.0895 -0.1659 -0.2197
 7320TIP3    H146155   1.303   3.065   1.233  0.2298 -2.7242 -0.8406
 7320TIP3    H246156   1.156   3.087   1.205  0.0618 -1.9596  0.5632
 7321TIP3   OH246157   3.413   3.630   1.775 -0.3914 -0.3987 -0.4057
 7321TIP3    H146158   3.409   3.579   1.855 -0.7663  0.7551  0.3314
 7321TIP3    H246159   3.506   3.651   1.763 -0.2949 -0.8492 -0.4679
 7322TIP3   OH246160   0.656   1.103   0.830 -0.1780  0.3403  0.1374
 7322TIP3    H146161   0.643   1.034   0.895 -4.0769  1.7791  1.1397
 7322TIP3    H246162   0.725   1.158   0.868  1.5050 -1.7673  0.3070
 7323TIP3   OH246163   4.197   5.917   0.466 -0.4141  0.1377  0.1314
 7323TIP3    H146164   4.132   5.985   0.449 -0.7808 -0.7709 -2.8510
 7323TIP3    H246165   4.270   5.962   0.508 -1.4638  1.9471  0.0834
 7324TIP3   OH246166   3.168   3.497   1.605  0.0171  0.5506 -0.0318
 7324TIP3    H146167   3.217   3.447   1.670 -2.3285  0.0010  1.4359
 7324TIP3    H246168   3.235   3.534   1.547  2.2994  1.6087  3.0344
 7325TIP3   OH246169   0.221   3.200   1.124 -0.1389 -0.1673  0.0082
 7325TIP3    H146170   0.178   3.119   1.151 -1.5303  0.3767 -0.4868
 7325TIP3    H246171   0.160   3.269   1.148  1.5631  0.8788  1.5395
 7326TIP3   OH246172   7.465   6.175   1.191  0.3403  0.1405 -0.3382
 7326TIP3    H146173   7.441   6.265   1.166  0.9565  0.6723  0.8995
 7326TIP3    H246174   7.483   6.132   1.108 -0.6794  0.9474 -1.0070
 7327TIP3   OH246175   3.303   2.480   1.593 -0.0906  0.0338 -0.1446
 7327TIP3    H146176   3.215   2.519   1.587  1.8984  5.4443  0.1825
 7327TIP3    H246177   3.290   2.400   1.644 -4.8500  0.2010 -0.6356
 7328TIP3   OH246178   7.461   5.260   1.758 -0.4386 -0.3664 -0.4547
 7328TIP3    H146179   7.520   5.282   1.830 -0.6617  0.3313 -0.4781
 7328TIP3    H246180   7.477   5.328   1.692  0.2604 -1.3816 -1.3720
 7329TIP3   OH246181   1.259   5.471   1.834 -0.0140 -0.0850  0.1640
 7329TIP3    H146182   1.210   5.500   1.911  0.0812 -0.6583  0.4460
 7329TIP3    H246183   1.351   5.478   1.860  0.0054 -1.0368  0.3943
 7330TIP3   OH246184   2.808   6.896   0.612 -0.3542  0.1222 -0.2387
 7330TIP3    H146185   2.850   6.876   0.696 -0.9908  1.8850  0.5537
 7330TIP3    H246186   2.849   6.977   0.584 -1.2397  0.3644 -0.8652
 7331TIP3   OH246187   1.694   2.003   2.043  0.2363  0.3372  0.0141
 7331TIP3    H146188   1.748   2.015   2.121  0.8305 -0.7544 -0.2220
 7331TIP3    H246189   1.604   2.008   2.076  0.4770 -0.1386  0.7793
 7332TIP3   OH246190   3.125   2.950   1.922 -0.1250 -0.1876 -0.1693
 7332TIP3    H146191   3.173   2.911   1.849 -0.5945  0.5656 -0.9052
 7332TIP3    H246192   3.191   2.963   1.990  0.3170 -0.9214 -0.4472
 7333TIP3   OH246193   1.834   3.947   0.851  0.2669 -0.0032  0.1475
 7333TIP3    H146194   1.840   3.986   0.938 -2.8862  0.7344  0.1631
 7333TIP3    H246195   1.771   3.876   0.861  0.4412 -0.4107 -1.3807
 7334TIP3   OH246196   0.940   3.225   2.048 -0.6637 -0.0774 -0.0415
 7334TIP3    H146197   0.874   3.207   2.115 -1.3304  1.1911 -0.3222
 7334TIP3    H246198   0.950   3.142   2.001 -1.5709 -0.4732  0.4398
 7335TIP3   OH246199   4.319   0.425   1.125  0.6635 -0.2663  0.7128
 7335TIP3    H146200   4.323   0.489   1.054 -1.7651  0.9858  1.5705
 7335TIP3    H246201   4.370   0.464   1.196 -0.1983  0.4324  0.9742
 7336TIP3   OH246202   3.981   5.148   1.213  0.0098 -0.2354  0.0853
 7336TIP3    H146203   3.916   5.188   1.155 -0.0761 -0.1135  0.2672
 7336TIP3    H246204   4.059   5.204   1.203  1.0822 -1.9686 -2.3476
 7337TIP3   OH246205   7.133   3.604   1.365 -0.2406  0.4544 -0.4162
 7337TIP3    H146206   7.041   3.605   1.392 -0.2687  0.0872 -0.4862
 7337TIP3    H246207   7.157   3.696   1.358 -0.2732  0.5741  0.7439
 7338TIP3   OH246208   1.496   2.707   2.078  0.0430  0.3160  0.3314
 7338TIP3    H146209   1.551   2.773   2.121 -1.0296  0.4936  1.5148
 7338TIP3    H246210   1.506   2.628   2.132 -0.0567  0.0437 -0.0438
 7339TIP3   OH246211   1.175   7.177   0.811 -0.0175 -0.6462  0.2523
 7339TIP3    H146212   1.222   7.107   0.764  1.9331  0.6959  0.0411
 7339TIP3    H246213   1.083   7.161   0.791  0.4725 -2.2429 -1.0597
 7340TIP3   OH246214   6.153   2.841   2.566  0.6919  0.7953 -0.0133
 7340TIP3    H146215   6.071   2.873   2.528  1.2928  3.8124  0.9121
 7340TIP3    H246216   6.157   2.750   2.540 -3.4223  0.1849  0.6838
 7341TIP3   OH246217   6.316   0.893   2.761  0.0383 -0.1751 -0.3892
 7341TIP3    H146218   6.258   0.825   2.726  0.6124  0.7593 -3.4378
 7341TIP3    H246219   6.263   0.972   2.761  0.3794  0.0571 -0.1831
 7342TIP3   OH246220   0.157   6.704   1.220 -0.6765  0.5217  0.1088
 7342TIP3    H146221   0.151   6.623   1.270  2.3078 -0.1868 -0.5111
 7342TIP3    H246222   0.206   6.764   1.276 -1.3521  1.3405 -0.1428
 7343TIP3   OH246223   3.024   1.546   1.709 -0.1152 -0.5669 -0.2410
 7343TIP3    H146224   2.955   1.556   1.776  0.3523  0.2412  0.1374
 7343TIP3    H246225   2.977   1.546   1.626 -0.6326 -0.6832  0.0476
 7344TIP3   OH246226   2.821   7.367   1.051  0.2449  0.7280 -0.2018
 7344TIP3    H146227   2.822   7.294   0.989 -2.2270  1.2006 -0.9131
 7344TIP3    H246228   2.776   7.438   1.004  2.2715  2.6613  0.5809
 7345TIP3   OH246229   1.470   3.695   2.685 -0.3696  0.0326  0.3677
 7345TIP3    H146230   1.401   3.759   2.670  0.8683  1.3916  0.2661
 7345TIP3    H246231   1.497   3.708   2.776  0.2502  0.0468  0.1902
 7346TIP3   OH246232   3.450   7.537   1.493  0.1570  0.4745  0.0738
 7346TIP3    H146233   3.497   7.543   1.410 -2.4059 -0.0626 -1.5417
 7346TIP3    H246234   3.463   7.622   1.534  2.6628  0.2667 -0.1299
 7347TIP3   OH246235   3.938   4.296   0.685 -0.4957  0.2018  0.0236
 7347TIP3    H146236   3.992   4.219   0.704  0.0045  0.8475  1.4412
 7347TIP3    H246237   3.866   4.291   0.748  0.2494  1.5177  1.0515
 7348TIP3   OH246238   2.854   6.123   1.109 -0.3514  0.1087 -0.3426
 7348TIP3    H146239   2.819   6.058   1.048  0.5722 -0.2909 -0.4481
 7348TIP3    H246240   2.945   6.136   1.083 -0.1463  0.4733  0.4943
 7349TIP3   OH246241   1.921   3.472   3.366  0.2930  0.2411 -0.2144
 7349TIP3    H146242   1.914   3.405   3.297 -1.9963 -0.7889  0.9371
 7349TIP3    H246243   1.973   3.430   3.435 -0.8592 -0.2711  0.3657
 7350TIP3   OH246244   3.060   6.053   2.090  0.1988  0.0949 -0.0797
 7350TIP3    H146245   3.036   6.139   2.125 -0.1099 -0.0827  0.1492
 7350TIP3    H246246   3.147   6.066   2.053 -0.3262  0.7995 -1.1086
 7351TIP3   OH246247   5.941   3.398   0.546 -0.0139 -0.3746 -0.0984
 7351TIP3    H146248   5.895   3.343   0.483 -0.7057  0.1428 -0.0567
 7351TIP3    H246249   6.012   3.343   0.578  0.0822 -0.7922 -1.0053
 7352TIP3   OH246250   2.828   7.202   1.332 -0.2176 -0.3381 -0.1445
 7352TIP3    H146251   2.823   7.270   1.264  0.4607  0.2346  0.3600
 7352TIP3    H246252   2.773   7.236   1.403 -0.4985 -0.6885 -0.1906
 7353TIP3   OH246253   2.147   5.267   2.551 -0.5836 -0.0279  0.9941
 7353TIP3    H146254   2.226   5.219   2.574 -0.3481 -0.2969 -0.3257
 7353TIP3    H246255   2.174   5.327   2.482 -1.3421  0.5182  1.1563
 7354TIP3   OH246256   1.189   4.595   3.279  0.0216  0.6859  0.1523
 7354TIP3    H146257   1.161   4.528   3.342  1.8962 -0.6243 -0.3342
 7354TIP3    H246258   1.211   4.671   3.333  0.6334 -0.0776  1.0063
 7355TIP3   OH246259   6.266   3.854   1.370 -0.0731 -0.4453 -0.3010
 7355TIP3    H146260   6.297   3.852   1.461  0.6135  1.0621 -0.4705
 7355TIP3    H246261   6.319   3.921   1.328 -1.4581 -0.0009 -1.4306
 7356TIP3   OH246262   4.920   3.155   1.464  0.1780 -0.3286 -0.0409
 7356TIP3    H146263   4.912   3.104   1.383  0.7251  3.3652 -2.7004
 7356TIP3    H246264   5.010   3.143   1.492  0.0051 -1.5880  0.0275
 7357TIP3   OH246265   5.836   0.490   0.869 -0.2929 -0.1156  0.0810
 7357TIP3    H146266   5.828   0.539   0.951  1.7586  0.0090  0.2386
 7357TIP3    H246267   5.867   0.555   0.806 -1.0167 -0.4178 -0.6016
 7358TIP3   OH246268   2.679   3.985   2.055  0.3612 -0.2517  0.0970
 7358TIP3    H146269   2.746   3.929   2.016  0.0808 -0.0901 -0.6326
 7358TIP3    H246270   2.599   3.965   2.006  0.3374  1.0453 -0.4306
 7359TIP3   OH246271   3.118   1.020   2.452  0.2846 -0.2314  0.1667
 7359TIP3    H146272   3.062   1.000   2.527 -0.7779 -0.6571 -0.7098
 7359TIP3    H246273   3.116   1.115   2.445  0.4664 -0.1858  0.7353
 7360TIP3   OH246274   4.739   5.567   1.096 -0.3127 -0.0180  0.0468
 7360TIP3    H146275   4.650   5.602   1.092 -0.0675  0.5794 -0.3087
 7360TIP3    H246276   4.750   5.522   1.012 -1.2950 -2.6575  1.2320
 7361TIP3   OH246277   4.610   1.855   0.860 -0.7036 -0.8406  0.0935
 7361TIP3    H146278   4.564   1.926   0.905 -1.1497 -1.9038  1.3666
 7361TIP3    H246279   4.590   1.777   0.911  2.2354 -1.4272  0.5077
 7362TIP3   OH246280   3.426   4.084   1.652  0.3007  0.3198  0.6040
 7362TIP3    H146281   3.361   4.148   1.625 -0.7960 -1.4342 -1.2208
 7362TIP3    H246282   3.377   4.019   1.703  0.8659 -0.3608  0.3080
 7363TIP3   OH246283   2.317   0.801   1.490 -0.2202  0.0759  0.1343
 7363TIP3    H146284   2.268   0.743   1.432 -1.0044  0.1132  0.7423
 7363TIP3    H246285   2.250   0.860   1.527  0.6314  1.7820 -0.9477
 7364TIP3   OH246286   6.093   0.634   0.863 -0.0098 -0.1233 -0.0065
 7364TIP3    H146287   6.174   0.585   0.870  0.5600  0.1525 -3.2261
 7364TIP3    H246288   6.110   0.715   0.911  1.0901 -0.6492  0.5255
 7365TIP3   OH246289   1.732   6.804   1.729  0.1046 -0.0113 -0.3116
 7365TIP3    H146290   1.740   6.739   1.798 -0.3157  1.6876  1.4444
 7365TIP3    H246291   1.772   6.883   1.766 -3.4251  2.0618 -0.4210
 7366TIP3   OH246292   1.919   7.583   2.743 -0.6279 -0.3274 -0.1302
 7366TIP3    H146293   1.861   7.645   2.698  1.9625  1.8059 -0.7635
 7366TIP3    H246294   1.957   7.633   2.815 -0.4239 -2.0393  1.0125
 7367TIP3   OH246295   5.920   3.853   2.679 -0.6315 -0.3192 -0.3918
 7367TIP3    H146296   5.857   3.889   2.741 -0.5471 -0.8577  0.0114
 7367TIP3    H246297   5.896   3.893   2.595 -0.3740  0.8798  0.0822
 7368TIP3   OH246298   0.217   1.124   2.191  0.2876  0.2349 -0.5412
 7368TIP3    H146299   0.164   1.110   2.112  0.2613  0.2118 -0.5195
 7368TIP3    H246300   0.154   1.117   2.263 -0.2408  2.9962 -0.6252
 7369TIP3   OH246301   6.506   3.944   2.681  0.1673  0.2279  0.4802
 7369TIP3    H146302   6.442   3.896   2.734  0.0881  0.4234  0.5627
 7369TIP3    H246303   6.582   3.886   2.678 -0.1311 -0.1544  0.1009
 7370TIP3   OH246304   6.399   0.116   1.743  0.0532 -0.2157 -0.4151
 7370TIP3    H146305   6.351   0.033   1.750  0.7388 -0.5363  0.6231
 7370TIP3    H246306   6.481   0.092   1.701 -0.6413  0.3330 -2.1880
 7371TIP3   OH246307   0.737   0.607   1.031 -0.1428  0.6144  0.1807
 7371TIP3    H146308   0.817   0.593   1.081 -1.1175 -1.5338  1.2396
 7371TIP3    H246309   0.720   0.701   1.039  1.1779  0.7662  1.5941
 7372TIP3   OH246310   0.810   0.788   2.902 -0.3320 -0.0164  0.4452
 7372TIP3    H146311   0.853   0.873   2.897 -0.8199  0.3689  2.0750
 7372TIP3    H246312   0.742   0.791   2.835 -0.6920  1.0970  0.8407
 7373TIP3   OH246313   4.992   0.079   2.248  0.4926 -0.4911  0.1975
 7373TIP3    H146314   5.033   0.024   2.181  0.5466  1.8922 -1.8850
 7373TIP3    H246315   4.903   0.094   2.216  0.4236  0.4636  0.7960
 7374TIP3   OH246316   0.560   0.172   0.716 -0.1906 -0.7364  0.4563
 7374TIP3    H146317   0.593   0.240   0.657  0.3461  0.8536  2.5017
 7374TIP3    H246318   0.635   0.148   0.770 -0.9281 -1.3506  1.2408
 7375TIP3   OH246319   1.420   2.791   0.711  0.4701 -0.4488  0.0248
 7375TIP3    H146320   1.405   2.867   0.656 -0.2862 -0.3553  0.3485
 7375TIP3    H246321   1.499   2.749   0.674  0.4063  0.0218 -0.6550
 7376TIP3   OH246322   5.374   0.737   1.704 -0.2598 -0.2013  0.1195
 7376TIP3    H146323   5.406   0.759   1.791  1.4011  1.7367 -0.9175
 7376TIP3    H246324   5.411   0.650   1.686  1.2897  0.3786  0.4485
 7377TIP3   OH246325   0.328   0.099   2.490 -0.5975 -0.4523 -0.0495
 7377TIP3    H146326   0.305   0.187   2.459 -1.0825  0.0511  1.6186
 7377TIP3    H246327   0.352   0.112   2.582  3.0037 -1.5169 -0.6900
 7378TIP3   OH246328   4.461   2.486   2.913  0.3331 -0.0983  0.0921
 7378TIP3    H146329   4.514   2.549   2.865  1.2835 -1.1157 -0.2240
 7378TIP3    H246330   4.399   2.540   2.962 -0.0551  0.9992 -1.5384
 7379TIP3   OH246331   1.390   4.348   1.956 -0.1605  0.5038 -0.0554
 7379TIP3    H146332   1.442   4.290   2.012 -2.3005 -2.0974 -0.5554
 7379TIP3    H246333   1.433   4.344   1.870  0.4048  0.6671  0.2151
 7380TIP3   OH246334   4.116   1.744   2.771 -0.5929  0.2567  0.5047
 7380TIP3    H146335   4.151   1.806   2.707 -1.6803 -1.5058 -1.9909
 7380TIP3    H246336   4.193   1.699   2.805 -0.0591  0.0409 -0.9121
 7381TIP3   OH246337   6.197   5.834   0.743  0.0328 -0.0126  0.3860
 7381TIP3    H146338   6.144   5.802   0.670  1.4031 -0.9603 -0.2418
 7381TIP3    H246339   6.135   5.843   0.815 -1.4431  1.3796 -0.9807
 7382TIP3   OH246340   0.838   6.953   1.333 -0.6017  0.4528 -0.0069
 7382TIP3    H146341   0.836   6.972   1.239 -0.3095 -0.5004 -0.2159
 7382TIP3    H246342   0.795   7.029   1.374  0.4730  1.5198 -0.7829
 7383TIP3   OH246343   3.600   3.732   0.523  0.0671  0.2622 -0.5877
 7383TIP3    H146344   3.523   3.683   0.554 -0.0485 -0.8174 -2.4466
 7383TIP3    H246345   3.574   3.824   0.532 -1.5872 -0.0767 -1.4602
 7384TIP3   OH246346   2.441   4.260   1.221 -0.2056 -0.6188 -0.2854
 7384TIP3    H146347   2.469   4.169   1.224 -0.8131 -0.8580 -1.5790
 7384TIP3    H246348   2.362   4.260   1.167 -0.5407  0.5961  0.1684
 7385TIP3   OH246349   1.138   5.302   2.113 -0.1064 -0.1100  0.0668
 7385TIP3    H146350   1.145   5.393   2.085  1.9438 -1.1591 -3.3967
 7385TIP3    H246351   1.050   5.274   2.086  0.1786  0.1757 -1.1724
 7386TIP3   OH246352   4.475   5.210   2.739  0.5461  0.7380  0.4487
 7386TIP3    H146353   4.471   5.116   2.753  1.6610  0.4679 -0.8598
 7386TIP3    H246354   4.450   5.248   2.824 -1.4276 -0.6959  0.5739
 7387TIP3   OH246355   2.246   1.562   0.377 -0.0591  0.7631 -0.2198
 7387TIP3    H146356   2.256   1.494   0.444 -0.5571 -0.4798 -1.3475
 7387TIP3    H246357   2.332   1.602   0.370  1.4181 -2.3783 -2.1881
 7388TIP3   OH246358   6.281   0.865   2.262  0.5638  0.3652  0.1265
 7388TIP3    H146359   6.308   0.957   2.252 -0.8583  0.8250  0.2207
 7388TIP3    H246360   6.195   0.870   2.304  0.0563 -0.9800 -0.6881
 7389TIP3   OH246361   0.287   4.111   1.311  0.1271 -0.3632  0.0390
 7389TIP3    H146362   0.309   4.196   1.350 -1.0900  0.6231 -1.3503
 7389TIP3    H246363   0.350   4.101   1.240  0.7134 -0.9765  0.6272
 7390TIP3   OH246364   7.289   6.315   2.489  0.4601 -0.4321  0.0345
 7390TIP3    H146365   7.361   6.336   2.430  0.5389  0.2631  0.3731
 7390TIP3    H246366   7.255   6.399   2.517  0.2381 -0.7510  0.7595
 7391TIP3   OH246367   4.037   2.188   1.424 -0.1393  0.5201  0.5003
 7391TIP3    H146368   4.016   2.099   1.395  1.6761 -0.1991  1.2171
 7391TIP3    H246369   4.125   2.204   1.390  1.2393  0.4338  3.6217
 7392TIP3   OH246370   5.356   1.600   1.208 -0.1981  0.1526 -0.1153
 7392TIP3    H146371   5.345   1.532   1.273  1.0554 -0.2361 -0.2886
 7392TIP3    H246372   5.365   1.553   1.125  1.6238  0.4440 -0.1181
 7393TIP3   OH246373   4.523   7.606   1.464  0.0894 -0.1389 -0.5705
 7393TIP3    H146374   4.460   7.677   1.475 -1.0388 -1.0467 -0.9377
 7393TIP3    H246375   4.527   7.591   1.370  0.2475 -0.6161 -0.4934
 7394TIP3   OH246376   7.400   0.989   0.699 -0.1003  0.2008  0.1958
 7394TIP3    H146377   7.413   1.015   0.790 -1.2702  0.6100  0.2638
 7394TIP3    H246378   7.432   1.063   0.648 -0.6243  0.5067  0.3092
 7395TIP3   OH246379   3.111   5.618   1.511  0.1559 -0.3972 -0.6043
 7395TIP3    H146380   3.128   5.705   1.475 -0.2955  0.2848  0.7822
 7395TIP3    H246381   3.017   5.604   1.498  0.1399 -0.4809 -0.4057
 7396TIP3   OH246382   2.893   1.219   2.983  0.1632  0.3943 -0.4105
 7396TIP3    H146383   2.845   1.301   2.995  0.2425  0.2461  1.1211
 7396TIP3    H246384   2.985   1.244   2.992  0.2148  0.2229 -0.4599
 7397TIP3   OH246385   3.411   5.813   2.906  0.2598 -0.1156  0.1237
 7397TIP3    H146386   3.371   5.846   2.986  1.3364  2.1081 -0.1999
 7397TIP3    H246387   3.505   5.825   2.918  0.3891  2.0765 -2.1149
 7398TIP3   OH246388   2.661   7.590   1.000 -0.1645  0.3499  0.2312
 7398TIP3    H146389   2.568   7.566   1.002  0.0632 -0.5325  1.0137
 7398TIP3    H246390   2.679   7.622   1.089  0.4564 -0.1927  0.3043
 7399TIP3   OH246391   5.647   0.191   1.496  0.4594 -0.3034 -0.2425
 7399TIP3    H146392   5.584   0.171   1.565  0.5464 -0.9050 -0.3313
 7399TIP3    H246393   5.594   0.229   1.425  0.1124 -1.2839 -0.5218
 7400TIP3   OH246394   0.724   3.891   1.222  0.1963  0.2889 -0.2083
 7400TIP3    H146395   0.734   3.902   1.317 -0.8668  0.6852 -0.1315
 7400TIP3    H246396   0.804   3.929   1.185  0.8695 -0.3443  0.5453
 7401TIP3   OH246397   2.567   3.846   2.551  0.3832 -0.3519  0.2578
 7401TIP3    H146398   2.561   3.910   2.480  2.6698 -1.3857 -0.9622
 7401TIP3    H246399   2.561   3.898   2.631 -0.9553  0.9926 -0.6516
 7402TIP3   OH246400   4.900   1.233   1.050 -0.4234 -0.4015 -0.2631
 7402TIP3    H146401   4.988   1.251   1.018 -0.6288 -1.0112 -1.2043
 7402TIP3    H246402   4.855   1.317   1.045  0.1185 -0.0754  0.2807
 7403TIP3   OH246403   3.888   2.116   2.537  0.2478  0.0222  0.0586
 7403TIP3    H146404   3.798   2.087   2.525 -0.3381  1.8034 -0.1342
 7403TIP3    H246405   3.940   2.036   2.524 -1.1297 -0.6236 -2.2366
 7404TIP3   OH246406   6.304   3.958   2.922 -0.0713  0.1129 -0.6475
 7404TIP3    H146407   6.283   3.888   2.860  1.3682 -1.4955  0.6066
 7404TIP3    H246408   6.240   3.948   2.992 -2.4377  2.6377 -2.2282
 7405TIP3   OH246409   1.020   0.672   3.160 -0.0228  0.1727  0.5446
 7405TIP3    H146410   1.075   0.712   3.227 -0.6624 -0.5856  1.5579
 7405TIP3    H246411   1.054   0.583   3.151  1.1401  0.7544 -1.4082
 7406TIP3   OH246412   7.388   4.898   1.573  0.2244  0.1054  0.0142
 7406TIP3    H146413   7.438   4.897   1.492  0.2547  0.8458  0.0234
 7406TIP3    H246414   7.343   4.982   1.574  1.4281  0.7745  1.4788
 7407TIP3   OH246415   0.763   5.429   0.781 -0.5246 -0.3320  0.2469
 7407TIP3    H146416   0.786   5.343   0.746 -0.9026  0.3348 -1.7880
 7407TIP3    H246417   0.679   5.416   0.825 -0.4517 -1.0456  0.1775
 7408TIP3   OH246418   5.257   3.701   2.089 -0.2923 -0.7455 -0.2942
 7408TIP3    H146419   5.303   3.626   2.127  1.7671  0.3846 -0.4374
 7408TIP3    H246420   5.288   3.706   1.999 -0.4476  0.2372 -0.3050
 7409TIP3   OH246421   0.228   4.679   1.727 -0.8150  0.0854 -0.2395
 7409TIP3    H146422   0.282   4.757   1.745 -1.2444  0.1758  0.7736
 7409TIP3    H246423   0.181   4.664   1.810 -0.6450 -1.3284 -0.3843
 7410TIP3   OH246424   5.709   6.051   0.676  0.3494  0.0886 -0.0080
 7410TIP3    H146425   5.721   6.077   0.767 -0.8657  0.2628  0.1236
 7410TIP3    H246426   5.638   5.986   0.679 -1.1872  1.6314 -1.0177
 7411TIP3   OH246427   6.492   4.297   3.137 -1.1028  0.1390 -0.0837
 7411TIP3    H146428   6.523   4.338   3.056  0.4161 -1.3533 -0.3126
 7411TIP3    H246429   6.526   4.352   3.207 -1.4340  0.7815 -0.4164
 7412TIP3   OH246430   7.423   6.316   2.218  0.0902  0.0155  0.1870
 7412TIP3    H146431   7.337   6.286   2.189  0.5837 -0.4340 -0.8698
 7412TIP3    H246432   7.485   6.254   2.179  1.0414  1.4673 -0.7344
 7413TIP3   OH246433   3.121   5.707   2.608  0.1284  0.1080 -0.0910
 7413TIP3    H146434   3.140   5.658   2.528 -1.7510 -2.2656  0.7993
 7413TIP3    H246435   3.207   5.734   2.640  1.0672 -0.6485 -1.8403
 7414TIP3   OH246436   1.893   4.288   2.942 -0.3007 -0.0582 -0.1748
 7414TIP3    H146437   1.903   4.353   3.011 -0.5750  0.2806 -0.4573
 7414TIP3    H246438   1.983   4.267   2.916 -0.1022 -1.3617  1.3696
 7415TIP3   OH246439   6.850   6.423   2.574 -0.1872 -0.5487 -0.6444
 7415TIP3    H146440   6.842   6.497   2.514 -2.1650 -1.3656 -1.4983
 7415TIP3    H246441   6.811   6.455   2.656  2.9922  0.7425  0.5097
 7416TIP3   OH246442   4.025   4.504   1.522 -0.5535 -0.5242 -0.2281
 7416TIP3    H146443   4.064   4.510   1.434 -2.6935  0.8998 -1.1634
 7416TIP3    H246444   4.071   4.570   1.573 -1.0370  0.4768 -1.0489
 7417TIP3   OH246445   1.575   4.405   1.749  0.1364 -0.0625 -0.1537
 7417TIP3    H146446   1.643   4.338   1.758 -0.9768 -1.1910  0.1155
 7417TIP3    H246447   1.598   4.471   1.814  1.1613 -0.2333 -0.3150
 7418TIP3   OH246448   2.957   6.008   1.674 -0.0613  1.1408  0.2821
 7418TIP3    H146449   2.893   6.056   1.621 -0.4814  1.3046  0.9345
 7418TIP3    H246450   2.955   6.051   1.759 -0.9547 -0.4575  1.1108
 7419TIP3   OH246451   6.399   1.124   2.274 -0.6987  0.7937  0.3454
 7419TIP3    H146452   6.413   1.187   2.345  2.2595 -0.6172  1.2048
 7419TIP3    H246453   6.437   1.166   2.197  0.8125  0.3621  0.8092
 7420TIP3   OH246454   3.569   3.950   3.102 -0.2924  0.1550 -0.3291
 7420TIP3    H146455   3.519   3.872   3.078 -1.0079  0.9028 -1.3863
 7420TIP3    H246456   3.510   4.023   3.083  0.4097  0.9638  0.5047
 7421TIP3   OH246457   1.456   6.660   0.904  0.1240  0.4779  0.3608
 7421TIP3    H146458   1.498   6.581   0.869 -2.1504 -1.1332  1.0511
 7421TIP3    H246459   1.410   6.698   0.829 -2.0220 -1.1345  0.7656
 7422TIP3   OH246460   2.199   3.228   1.466  0.3143  0.0175  0.3451
 7422TIP3    H146461   2.244   3.270   1.392  0.1081  0.5318  0.5103
 7422TIP3    H246462   2.213   3.287   1.540  1.0627 -0.8093  0.8839
 7423TIP3   OH246463   6.819   5.394   0.656 -0.0392 -0.3312 -0.0801
 7423TIP3    H146464   6.742   5.405   0.600 -1.6619  0.2398  2.1179
 7423TIP3    H246465   6.870   5.474   0.643  0.0939 -0.6095 -1.3804
 7424TIP3   OH246466   7.566   4.822   2.974  0.6064 -0.4221 -0.3972
 7424TIP3    H146467   7.606   4.861   2.896 -0.0570 -0.5662 -0.8160
 7424TIP3    H246468   7.482   4.866   2.983  0.9092 -0.0137  0.5690
 7425TIP3   OH246469   4.556   1.799   1.992 -0.8786 -0.1148 -0.0317
 7425TIP3    H146470   4.463   1.778   1.982 -0.8374  0.2764 -1.4234
 7425TIP3    H246471   4.601   1.717   1.972 -0.8278  0.4889 -2.7721
 7426TIP3   OH246472   5.135   6.046   2.564  0.1152 -0.1275  0.3732
 7426TIP3    H146473   5.055   6.086   2.531 -0.5100  0.1606  2.1462
 7426TIP3    H246474   5.200   6.062   2.496 -0.3483  3.0706  0.5667
 7427TIP3   OH246475   0.063   2.222   1.356  0.5772 -0.2219 -0.1304
 7427TIP3    H146476   0.077   2.232   1.262  1.5500  0.4994  0.0772
 7427TIP3    H246477  -0.024   2.183   1.363  1.0254 -1.5315 -1.3658
 7428TIP3   OH246478   2.609   4.066   1.353  0.3269 -0.0292 -0.4339
 7428TIP3    H146479   2.646   4.139   1.403 -0.5876 -0.1889  0.5051
 7428TIP3    H246480   2.683   4.031   1.304  1.1587  0.4154  0.4667
 7429TIP3   OH246481   6.481   1.433   0.931 -0.0468  0.0099  0.2126
 7429TIP3    H146482   6.431   1.352   0.944  1.5726 -0.8574  1.4782
 7429TIP3    H246483   6.552   1.407   0.871 -0.0742  0.7573 -0.1530
 7430TIP3   OH246484   0.383   5.801   1.795 -0.3872 -0.1410  0.6110
 7430TIP3    H146485   0.428   5.741   1.736  0.1112 -0.1188  0.9649
 7430TIP3    H246486   0.353   5.873   1.738  0.0132 -0.1607  0.3711
 7431TIP3   OH246487   3.802   2.648   2.032  0.0811 -0.3223 -0.1092
 7431TIP3    H146488   3.892   2.678   2.026 -0.2628  0.5914 -1.0525
 7431TIP3    H246489   3.790   2.589   1.958  0.1241 -1.0996  0.4870
 7432TIP3   OH246490   3.653   3.383   1.392 -0.0216  0.5624  0.3008
 7432TIP3    H146491   3.648   3.378   1.487  0.8796 -1.1683  0.2924
 7432TIP3    H246492   3.598   3.310   1.361  0.6665  0.3504 -0.4614
 7433TIP3   OH246493   5.738   5.054   0.473 -0.0977 -0.0115 -0.0051
 7433TIP3    H146494   5.795   5.091   0.541  0.0185 -0.6778  0.2748
 7433TIP3    H246495   5.717   5.128   0.416  1.0143  0.2583 -0.0905
 7434TIP3   OH246496   5.632   1.736   3.337  0.2460 -0.6774 -0.1699
 7434TIP3    H146497   5.569   1.721   3.407 -0.9315 -1.6805 -1.3928
 7434TIP3    H246498   5.715   1.704   3.372 -0.3882 -1.4641  0.6458
 7435TIP3   OH246499   4.439   5.164   3.410  0.3311  1.2424  0.3409
 7435TIP3    H146500   4.468   5.220   3.338  0.7122 -0.8479 -1.2406
 7435TIP3    H246501   4.521   5.134   3.451  0.3609 -1.0771 -1.2523
 7436TIP3   OH246502   1.834   7.480   0.654 -0.0437  0.1158  0.1003
 7436TIP3    H146503   1.807   7.557   0.705  1.6204  0.5212  0.4423
 7436TIP3    H246504   1.799   7.496   0.566  1.8079  2.2811 -0.3698
 7437TIP3   OH246505   5.953   2.632   2.204 -0.0593  0.2820  0.2904
 7437TIP3    H146506   5.937   2.566   2.137 -0.6651  0.0155  0.6879
 7437TIP3    H246507   6.048   2.638   2.209 -0.0013 -0.2271 -0.0746
 7438TIP3   OH246508   4.472   6.119   1.618 -0.0308  0.2097  0.5584
 7438TIP3    H146509   4.540   6.057   1.644 -0.3091 -0.2805  0.1330
 7438TIP3    H246510   4.449   6.093   1.529  0.1197  1.1723  0.2318
 7439TIP3   OH246511   3.795   2.429   1.875 -0.1112  0.1584 -0.4158
 7439TIP3    H146512   3.701   2.416   1.873 -0.0964  0.0949 -0.8764
 7439TIP3    H246513   3.824   2.386   1.956 -0.7995  2.5091  1.1880
 7440TIP3   OH246514   7.129   3.328   2.692  0.0077 -1.1857 -0.2515
 7440TIP3    H146515   7.125   3.234   2.709 -0.8902 -0.8932  1.3111
 7440TIP3    H246516   7.038   3.357   2.694  0.3341 -0.1488  0.0663
 7441TIP3   OH246517   4.134   3.524   0.908  0.3262 -0.3802 -0.0836
 7441TIP3    H146518   4.059   3.517   0.967 -0.7635 -1.9697 -1.5643
 7441TIP3    H246519   4.115   3.599   0.853  0.0381 -0.5095 -0.1621
 7442TIP3   OH246520   0.846   5.165   2.825  0.2056  0.2306 -0.1911
 7442TIP3    H146521   0.862   5.098   2.759  0.5375  1.1066 -1.0188
 7442TIP3    H246522   0.924   5.221   2.823  0.0102  0.5493  0.6032
 7443TIP3   OH246523   3.881   0.497   1.759  0.2855 -0.4484  0.2123
 7443TIP3    H146524   3.824   0.507   1.835  0.3172 -0.3493  0.2227
 7443TIP3    H246525   3.944   0.429   1.785 -0.2239 -1.0250 -0.0347
 7444TIP3   OH246526   2.218   0.368   1.938  0.7888  0.2835  0.2509
 7444TIP3    H146527   2.220   0.273   1.925  0.3065 -0.1008  2.5185
 7444TIP3    H246528   2.126   0.388   1.955  0.7893  1.2782 -0.7768
 7445TIP3   OH246529   6.529   1.820   1.870  0.0882 -0.2502  0.6139
 7445TIP3    H146530   6.547   1.783   1.784 -1.5705  0.2280  0.0217
 7445TIP3    H246531   6.550   1.913   1.860 -3.0636  0.4947 -0.3361
 7446TIP3   OH246532   3.629   4.646   2.365 -0.2277  0.4634 -0.2631
 7446TIP3    H146533   3.629   4.644   2.269 -0.7601  1.2331 -0.2935
 7446TIP3    H246534   3.618   4.739   2.387 -0.2420  0.2816  0.5445
 7447TIP3   OH246535   2.547   0.469   2.206 -0.2817 -0.5435  0.2770
 7447TIP3    H146536   2.483   0.522   2.158  0.1094  1.1118  1.4672
 7447TIP3    H246537   2.602   0.430   2.139 -1.9488 -1.2308 -0.7271
 7448TIP3   OH246538   2.901   2.779   1.965 -0.4661  0.2940  0.0543
 7448TIP3    H146539   2.911   2.748   2.055  2.0953  0.2443 -0.1778
 7448TIP3    H246540   2.965   2.849   1.957  0.0527 -0.3756 -2.0144
 7449TIP3   OH246541   6.455   5.120   0.950 -0.5809 -0.0742 -0.5989
 7449TIP3    H146542   6.522   5.122   0.882  0.0069 -2.5757 -0.2244
 7449TIP3    H246543   6.409   5.203   0.942 -1.0562 -0.5375 -4.5801
 7450TIP3   OH246544   2.566   2.772   1.107  0.3108 -0.2705 -0.3530
 7450TIP3    H146545   2.537   2.765   1.016 -0.2888 -0.6834 -0.1352
 7450TIP3    H246546   2.542   2.860   1.133  0.2504 -0.2385 -0.5129
 7451TIP3   OH246547   0.972   7.429   3.201 -0.6758  0.1372  0.0592
 7451TIP3    H146548   0.884   7.462   3.184 -0.9742 -1.0679 -0.8351
 7451TIP3    H246549   0.967   7.336   3.183  1.2644  0.3439 -1.9746
 7452TIP3   OH246550   3.197   0.119   0.641 -0.1552  0.5603  0.0460
 7452TIP3    H146551   3.103   0.130   0.657  0.1681  3.5738  0.6463
 7452TIP3    H246552   3.223   0.044   0.695 -2.1232 -0.0364  0.2185
 7453TIP3   OH246553   4.732   2.048   1.198 -0.1076 -0.4168 -0.1150
 7453TIP3    H146554   4.673   2.008   1.262  1.0971 -1.7796  0.2178
 7453TIP3    H246555   4.804   1.985   1.190  1.3238  1.1851 -0.4554
 7454TIP3   OH246556   3.020   0.592   0.787 -0.6590  0.1528  0.9167
 7454TIP3    H146557   3.039   0.601   0.694 -0.1941  0.7045  1.0589
 7454TIP3    H246558   3.043   0.502   0.809 -1.8721 -0.3390  0.2499
 7455TIP3   OH246559   4.932   2.246   1.641 -0.5117  0.0396  0.0313
 7455TIP3    H146560   4.913   2.327   1.689  1.9204  0.7882 -0.1227
 7455TIP3    H246561   4.949   2.275   1.551 -1.3834 -0.8956 -0.4559
 7456TIP3   OH246562   6.649   6.473   2.120 -1.0687 -0.0142 -0.0470
 7456TIP3    H146563   6.740   6.502   2.116 -0.8430 -0.8326 -1.0314
 7456TIP3    H246564   6.644   6.420   2.200 -0.2338 -1.3892 -0.8707
 7457TIP3   OH246565   5.785   6.096   0.926 -0.0881  0.2967 -1.1480
 7457TIP3    H146566   5.860   6.147   0.956  0.5019  0.1132 -2.2612
 7457TIP3    H246567   5.765   6.037   0.999  2.3786 -1.3325 -1.6878
 7458TIP3   OH246568   3.775   6.077   0.626 -0.3535 -0.9548  0.1486
 7458TIP3    H146569   3.719   6.009   0.589 -1.1206 -0.2092 -0.0896
 7458TIP3    H246570   3.716   6.129   0.680  0.5688 -1.5033  1.7543
 7459TIP3   OH246571   6.914   6.047   0.934 -0.5427 -0.1251  0.0868
 7459TIP3    H146572   6.959   6.112   0.988 -0.4983 -0.4429  0.4361
 7459TIP3    H246573   6.903   5.972   0.992  0.5583 -0.9190 -0.6967
 7460TIP3   OH246574   3.524   5.029   1.555  0.0452  0.1034  0.7219
 7460TIP3    H146575   3.549   5.107   1.604  0.8298  1.3472 -1.5225
 7460TIP3    H246576   3.481   4.973   1.619  1.7549  1.2446  3.0016
 7461TIP3   OH246577   3.119   5.254   1.400 -0.0957 -0.2205  0.1495
 7461TIP3    H146578   3.142   5.344   1.376  0.7450 -0.8588 -1.6141
 7461TIP3    H246579   3.058   5.226   1.331 -0.0919 -1.1001  0.4973
 7462TIP3   OH246580   6.245   0.135   1.998  0.2159  0.3830  0.0792
 7462TIP3    H146581   6.311   0.147   1.930 -1.3368  1.7616 -1.2455
 7462TIP3    H246582   6.168   0.104   1.951 -0.9721  1.6180  1.1402
 7463TIP3   OH246583   7.433   5.109   2.063 -0.4928 -0.0843  0.2379
 7463TIP3    H146584   7.430   5.041   1.995  0.5740 -0.4017  0.4853
 7463TIP3    H246585   7.475   5.183   2.020  1.2997 -0.6888  0.8443
 7464TIP3   OH246586   1.657   0.333   2.196  0.0229 -0.5018 -0.2819
 7464TIP3    H146587   1.728   0.271   2.213 -0.7309 -1.0217  1.0392
 7464TIP3    H246588   1.684   0.413   2.241  0.2232 -0.3830 -0.6083
 7465TIP3   OH246589   0.085   3.066   2.000 -0.3755 -0.4999 -0.2866
 7465TIP3    H146590   0.172   3.104   1.990 -0.1471 -1.2343 -1.2164
 7465TIP3    H246591   0.100   2.981   2.040 -0.6507 -0.6627 -0.5208
 7466TIP3   OH246592   4.298   4.318   1.791  0.5681 -0.4841  0.4658
 7466TIP3    H146593   4.212   4.360   1.789  0.4965 -0.5174  1.6338
 7466TIP3    H246594   4.293   4.247   1.727  0.0214  0.0551 -0.0968
 7467TIP3   OH246595   7.009   3.188   2.411 -0.1748 -0.1116 -0.3675
 7467TIP3    H146596   6.922   3.168   2.448  0.2031 -1.0794  0.0433
 7467TIP3    H246597   7.060   3.109   2.429  0.8659  0.5517 -0.3766
 7468TIP3   OH246598   6.908   2.466   1.905 -0.3404 -0.7504  0.2167
 7468TIP3    H146599   6.996   2.497   1.884  0.9739 -2.9997  1.9979
 7468TIP3    H246600   6.850   2.527   1.860  2.0987  1.0592 -0.6754
 7469TIP3   OH246601   1.369   2.617   1.204 -0.7025  0.2798  0.8501
 7469TIP3    H146602   1.321   2.673   1.143 -0.3419  0.4463  0.7165
 7469TIP3    H246603   1.301   2.577   1.259 -1.0661 -0.2491  0.0288
 7470TIP3   OH246604   1.655   4.209   1.430  0.0606  0.4365  0.0861
 7470TIP3    H146605   1.588   4.238   1.368  0.3501 -2.2805 -1.6522
 7470TIP3    H246606   1.738   4.227   1.387  0.2559 -2.4125 -0.9710
 7471TIP3   OH246607   3.056   6.015   0.708  0.1420 -0.0402 -0.3946
 7471TIP3    H146608   3.074   5.953   0.779  0.5746  1.0338  0.4775
 7471TIP3    H246609   2.969   6.050   0.729 -0.2002 -0.5038 -1.0110
 7472TIP3   OH246610   4.939   2.511   1.354  0.9119  0.0677  0.1251
 7472TIP3    H146611   5.008   2.495   1.419  0.2407  1.0364  1.1000
 7472TIP3    H246612   4.961   2.597   1.317  1.6099 -0.7098 -1.3869
 7473TIP3   OH246613   0.081   0.069   2.767 -0.0170 -0.6705 -0.3408
 7473TIP3    H146614   0.146   0.111   2.823  1.2909 -0.2550 -2.0573
 7473TIP3    H246615   0.005   0.126   2.770  0.5248  0.0525 -0.0493
 7474TIP3   OH246616   2.355   5.984   3.444 -0.3124 -0.2510 -0.7353
 7474TIP3    H146617   2.325   5.900   3.478 -1.6715  0.4715 -0.0246
 7474TIP3    H246618   2.435   6.003   3.493 -0.7914 -0.4728  0.1550
 7475TIP3   OH246619   2.702   4.442   3.559  0.2781  0.5370  0.1279
 7475TIP3    H146620   2.752   4.367   3.590 -1.5139 -1.3102 -1.1657
 7475TIP3    H246621   2.622   4.441   3.611 -1.7705 -1.2790 -2.7631
 7476TIP3   OH246622   7.476   1.182   3.310  0.7456 -0.3638 -0.4186
 7476TIP3    H146623   7.382   1.199   3.308  0.7405 -0.4218 -2.5844
 7476TIP3    H246624   7.509   1.238   3.380 -0.7183  0.6508 -0.5104
 7477TIP3   OH246625   6.262   1.836   2.217  0.4419  0.3193 -0.3984
 7477TIP3    H146626   6.350   1.838   2.254  0.4728  0.6999 -0.4876
 7477TIP3    H246627   6.239   1.928   2.206  0.5644  0.2191 -1.6419
 7478TIP3   OH246628   7.454   4.545   2.753 -0.1467  0.0338  0.3078
 7478TIP3    H146629   7.450   4.640   2.765  1.1463  0.1914 -0.2942
 7478TIP3    H246630   7.401   4.510   2.824  0.3229  1.1768  1.2699
 7479TIP3   OH246631   6.518   7.234   8.901 -0.8247  0.0960 -0.3697
 7479TIP3    H146632   6.537   7.233   8.807  0.0890  0.3434 -0.1964
 7479TIP3    H246633   6.484   7.146   8.918 -0.0286 -0.3107 -0.7572
 7480TIP3   OH246634   1.759   5.473   1.102  0.1242  0.1878 -0.1482
 7480TIP3    H146635   1.780   5.380   1.098  3.4059  0.7639  0.6084
 7480TIP3    H246636   1.836   5.514   1.142 -0.4078  3.4628 -2.0216
 7481TIP3   OH246637   6.296   1.289   1.688 -0.1849  1.0538 -0.3311
 7481TIP3    H146638   6.303   1.233   1.765 -2.4560 -2.0433 -2.1466
 7481TIP3    H246639   6.362   1.254   1.627 -0.6013  1.3205 -0.9453
 7482TIP3   OH246640   0.621   3.136   1.676 -0.4072 -0.0441  0.1389
 7482TIP3    H146641   0.669   3.210   1.713  3.6037 -2.0693 -0.4977
 7482TIP3    H246642   0.593   3.167   1.589  0.4669  1.0067  0.2072
 7483TIP3   OH246643   1.713   1.731   0.746  0.7546  0.4251  0.0398
 7483TIP3    H146644   1.773   1.790   0.790  0.2667  1.9128 -1.2113
 7483TIP3    H246645   1.720   1.753   0.653 -0.7055 -0.3103 -0.2801
 7484TIP3   OH246646   3.548   7.148   2.246  0.2426 -0.0321  0.2604
 7484TIP3    H146647   3.464   7.103   2.236  0.3214 -0.7125  2.2491
 7484TIP3    H246648   3.613   7.077   2.244  0.4863  0.1015  1.9195
 7485TIP3   OH246649   4.158   7.613   1.567  0.1137 -0.0159  0.8374
 7485TIP3    H146650   4.078   7.655   1.536 -0.2832  1.2205  3.2854
 7485TIP3    H246651   4.213   7.686   1.598  0.3042 -1.0974  3.2516
 7486TIP3   OH246652   5.312   4.367   1.348  0.1335 -0.3951 -0.0005
 7486TIP3    H146653   5.351   4.446   1.385  1.9901 -0.7774 -1.0547
 7486TIP3    H246654   5.325   4.300   1.415 -1.6987  0.1842  1.0198
 7487TIP3   OH246655   1.251   0.403   0.986  0.4932 -0.0739 -0.3145
 7487TIP3    H146656   1.164   0.373   0.959 -0.1894  1.3422  0.1835
 7487TIP3    H246657   1.256   0.492   0.952  1.9625 -0.3046 -0.7489
 7488TIP3   OH246658   5.208   3.449   1.147 -0.2952 -0.1667  0.2113
 7488TIP3    H146659   5.143   3.393   1.189  2.2378 -2.7950  0.9857
 7488TIP3    H246660   5.281   3.390   1.128  2.2735  2.7610  0.2674
 7489TIP3   OH246661   3.022   6.981   2.586 -0.2635  0.3159  0.1495
 7489TIP3    H146662   2.977   6.920   2.527  0.8683  0.6963 -1.1688
 7489TIP3    H246663   3.028   7.063   2.536 -0.0360  0.9267  1.1418
 7490TIP3   OH246664   4.231   3.265   0.805  0.0388  0.9408  0.2129
 7490TIP3    H146665   4.231   3.211   0.884 -1.6087  0.5457 -0.0349
 7490TIP3    H246666   4.182   3.343   0.829 -1.4418  0.3283 -0.7163
 7491TIP3   OH246667   3.100   3.967   1.941 -0.0201  0.0722 -0.3357
 7491TIP3    H146668   3.028   3.913   1.909 -0.5417 -0.0231  0.9149
 7491TIP3    H246669   3.178   3.931   1.899 -0.5355 -0.7380 -0.6162
 7492TIP3   OH246670   7.398   0.015   0.852  0.2217  0.7738  0.1088
 7492TIP3    H146671   7.477  -0.032   0.879 -0.6137 -0.5832  0.2835
 7492TIP3    H246672   7.327  -0.048   0.863 -1.2652  2.6302  2.1132
 7493TIP3   OH246673   2.341   1.366   1.735 -0.1478 -0.2854 -0.0746
 7493TIP3    H146674   2.380   1.298   1.790 -2.2490 -1.5545 -0.0539
 7493TIP3    H246675   2.352   1.335   1.646 -0.1399 -0.0893 -0.1433
 7494TIP3   OH246676   4.513   5.065   1.127  0.1468 -0.1436  0.1029
 7494TIP3    H146677   4.588   5.019   1.090 -1.0140 -2.1601  0.0693
 7494TIP3    H246678   4.438   5.032   1.077 -1.1558 -0.9660  2.4253
 7495TIP3   OH246679   6.635   3.939   0.728  0.1129  0.5292  0.1367
 7495TIP3    H146680   6.640   4.030   0.697 -0.9439  0.9671  1.1822
 7495TIP3    H246681   6.701   3.933   0.796 -0.3401  0.7438  0.5997
 7496TIP3   OH246682   3.366   1.378   1.406  0.2741  0.1755 -0.0628
 7496TIP3    H146683   3.448   1.425   1.423  1.0699  0.5021 -3.9853
 7496TIP3    H246684   3.315   1.436   1.350 -1.5620 -1.1088  0.1628
 7497TIP3   OH246685   5.644   2.715   2.903  1.0001  0.1671 -0.2240
 7497TIP3    H146686   5.706   2.742   2.970 -0.4622  1.3142  0.7315
 7497TIP3    H246687   5.659   2.777   2.831  0.5121  0.8998  0.2873
 7498TIP3   OH246688   4.535   5.734   2.042  0.3809 -0.2633  0.2441
 7498TIP3    H146689   4.557   5.825   2.059  1.2370 -0.1273 -1.3048
 7498TIP3    H246690   4.618   5.687   2.052  0.4152 -0.5156 -1.0222
 7499TIP3   OH246691   2.330   1.936   1.263 -0.1229  0.4689 -0.0027
 7499TIP3    H146692   2.265   1.967   1.326  0.7731  2.0967  0.1933
 7499TIP3    H246693   2.388   2.011   1.251 -0.3941  0.3255 -2.9714
 7500TIP3   OH246694   0.069   1.987   3.106  0.2225  0.7479  0.2374
 7500TIP3    H146695  -0.004   2.048   3.119 -1.1572 -0.4459 -1.5052
 7500TIP3    H246696   0.051   1.946   3.021  1.9145 -0.9770  0.6539
 7501TIP3   OH246697   4.476   2.579   1.658 -0.5200 -0.0542 -0.4206
 7501TIP3    H146698   4.384   2.557   1.640 -1.1288  0.5260  1.7787
 7501TIP3    H246699   4.513   2.498   1.693 -0.1623 -0.2978 -1.3402
 7502TIP3   OH246700   6.674   2.923   2.206  0.7486  0.2726  0.3132
 7502TIP3    H146701   6.681   2.907   2.300  3.1105 -1.2862 -0.0537
 7502TIP3    H246702   6.594   2.878   2.180  0.9099 -0.6269  1.3314
 7503TIP3   OH246703   4.371   3.484   2.102 -0.3842  0.0206 -0.0303
 7503TIP3    H146704   4.323   3.415   2.056 -1.1360  1.1256 -0.9896
 7503TIP3    H246705   4.303   3.534   2.147  0.2054 -0.1628  1.0780
 7504TIP3   OH246706   2.122   2.930   1.146  0.2286 -0.2469  0.8638
 7504TIP3    H146707   2.156   2.912   1.058 -1.2459 -0.1054  0.2390
 7504TIP3    H246708   2.183   2.886   1.204  1.4337 -0.0649 -0.2038
 7505TIP3   OH246709   7.045   1.206   2.012  0.3619  0.6460  0.0711
 7505TIP3    H146710   7.107   1.178   1.945 -0.2973  0.5795 -0.5199
 7505TIP3    H246711   7.086   1.181   2.095  1.1555  0.6742 -0.3096
 7506TIP3   OH246712   0.255   5.155   2.355  0.3171 -0.3890 -0.4423
 7506TIP3    H146713   0.249   5.114   2.441  1.4587 -1.6289 -0.9212
 7506TIP3    H246714   0.217   5.092   2.295 -2.0095  1.1521 -0.7168
 7507TIP3   OH246715   7.104   3.553   1.057  0.3758  0.0665 -0.4347
 7507TIP3    H146716   7.158   3.489   1.011  1.2626  0.7787 -0.4051
 7507TIP3    H246717   7.113   3.529   1.149  2.3267  1.3879 -0.2230
 7508TIP3   OH246718   3.399   0.984   2.437  0.0644  0.1718  0.0747
 7508TIP3    H146719   3.389   0.889   2.436 -0.1608  0.1605 -1.9870
 7508TIP3    H246720   3.309   1.017   2.433  0.1726  0.4216 -0.4593
 7509TIP3   OH246721   0.061   4.394   2.989 -0.3252  0.0012 -0.3289
 7509TIP3    H146722   0.140   4.435   3.025 -0.1193 -0.8216  0.1865
 7509TIP3    H246723  -0.009   4.457   3.007 -0.1213 -0.1239  0.9785
 7510TIP3   OH246724   3.208   1.988   3.378  0.1944 -0.0998 -0.3938
 7510TIP3    H146725   3.115   2.004   3.363  0.1467 -0.8584 -0.9830
 7510TIP3    H246726   3.218   1.893   3.371  1.0677  0.0032 -0.7025
 7511TIP3   OH246727   7.296   1.145   2.629  0.1165 -0.2576  0.3683
 7511TIP3    H146728   7.223   1.104   2.583 -0.4090  0.3836  0.6012
 7511TIP3    H246729   7.269   1.145   2.721  0.0336  0.7250  0.3574
 7512TIP3   OH246730   3.302   2.198   0.986 -0.0342  0.0522  0.3081
 7512TIP3    H146731   3.373   2.255   0.954  0.0815 -0.2478  0.0278
 7512TIP3    H246732   3.308   2.204   1.081 -1.5129  2.3846  0.3275
 7513TIP3   OH246733   1.072   6.881   1.690  0.2314 -0.3374 -0.1196
 7513TIP3    H146734   1.125   6.840   1.621  0.1423  1.1627 -1.1273
 7513TIP3    H246735   1.070   6.974   1.666 -1.0593 -0.0272  1.0944
 7514TIP3   OH246736   6.510   3.623   1.776 -0.0767 -0.1482 -0.1347
 7514TIP3    H146737   6.515   3.715   1.750 -1.3881 -0.0177 -0.0234
 7514TIP3    H246738   6.513   3.575   1.693  1.3150 -0.0628 -0.1522
 7515TIP3   OH246739   4.680   3.224   2.014 -0.4514  0.4456 -0.3429
 7515TIP3    H146740   4.638   3.138   2.008  0.9404 -0.1875 -1.9127
 7515TIP3    H246741   4.673   3.248   2.106 -1.6536 -0.9429 -0.0378
 7516TIP3   OH246742   1.304   2.322   1.414  0.1670  0.2571 -0.4924
 7516TIP3    H146743   1.266   2.275   1.340 -2.2193  0.0001  0.7816
 7516TIP3    H246744   1.263   2.282   1.491 -0.2812  2.9050  0.7722
 7517TIP3   OH246745   6.180   0.871   0.970 -0.0722  0.2356  0.2882
 7517TIP3    H146746   6.239   0.930   0.922  1.8099 -1.6592  0.1426
 7517TIP3    H246747   6.219   0.865   1.057  0.8570 -2.1126 -0.2083
 7518TIP3   OH246748   1.860   7.216   0.792  0.0795 -0.8920 -0.4738
 7518TIP3    H146749   1.840   7.288   0.732 -0.6679 -1.1055 -0.4884
 7518TIP3    H246750   1.804   7.232   0.868 -0.6873 -1.8704 -0.8013
 7519TIP3   OH246751   0.950   4.280   2.502  0.1506 -0.0059  0.2179
 7519TIP3    H146752   0.889   4.345   2.535  1.2181  1.8374 -1.1964
 7519TIP3    H246753   1.003   4.255   2.578 -1.4274 -0.6050  1.1523
 7520TIP3   OH246754   5.754   1.244   0.716 -0.0805  0.4988 -0.4110
 7520TIP3    H146755   5.760   1.328   0.670 -0.2192  0.2352 -0.9040
 7520TIP3    H246756   5.844   1.227   0.746  0.1231  0.3989 -1.0640
 7521TIP3   OH246757   5.130   1.665   0.756  0.7242  0.0199  0.2770
 7521TIP3    H146758   5.207   1.710   0.792  1.3561  0.1275 -1.1211
 7521TIP3    H246759   5.162   1.625   0.675 -0.3296 -1.2594  0.4569
 7522TIP3   OH246760   7.232   4.711   1.701  0.3659 -0.1486 -0.2031
 7522TIP3    H146761   7.138   4.726   1.691  0.5048  0.4978 -0.6091
 7522TIP3    H246762   7.271   4.750   1.622  1.0065 -0.0288  0.1638
 7523TIP3   OH246763   7.038   5.130   1.364 -0.3887 -0.0669  0.4675
 7523TIP3    H146764   6.976   5.199   1.342 -1.0322 -1.1603 -1.3618
 7523TIP3    H246765   7.108   5.138   1.299 -0.2982 -0.9237  0.4511
 7524TIP3   OH246766   4.342   0.127   1.596 -0.3622 -0.0420 -0.3531
 7524TIP3    H146767   4.314   0.193   1.533  1.4048 -1.0498 -2.3228
 7524TIP3    H246768   4.411   0.170   1.647  0.8474 -0.3443 -1.6887
 7525TIP3   OH246769   6.701   3.184   2.144 -0.0150 -0.3468 -0.3733
 7525TIP3    H146770   6.750   3.212   2.067  3.4383  0.9406  2.0592
 7525TIP3    H246771   6.722   3.091   2.153 -0.2057 -0.4345 -0.7675
 7526TIP3   OH246772   7.553   5.124   2.675  0.3596  0.5029 -0.0536
 7526TIP3    H146773   7.536   5.035   2.644  1.1675  0.5571 -0.6961
 7526TIP3    H246774   7.466   5.162   2.689 -0.0006 -0.1412 -0.4885
 7527TIP3   OH246775   1.850   3.166   2.755  0.3506  0.4984  0.2523
 7527TIP3    H146776   1.781   3.128   2.809  1.0949 -1.0253  0.1676
 7527TIP3    H246777   1.931   3.137   2.797  0.9780 -1.5112 -2.1292
 7528TIP3   OH246778   0.032   2.838   2.783  0.4573 -0.1507  0.0492
 7528TIP3    H146779   0.089   2.905   2.822  1.6221 -1.4739  0.7004
 7528TIP3    H246780   0.011   2.780   2.856 -0.8225 -0.3320 -0.4382
 7529TIP3   OH246781   3.191   5.291   3.228  0.3069  0.0498  0.1899
 7529TIP3    H146782   3.220   5.231   3.297 -0.1580  0.7655  1.0284
 7529TIP3    H246783   3.272   5.323   3.189  0.5644 -0.7885  0.0274
 7530TIP3   OH246784   5.345   6.888   1.209  0.7178  0.3637  0.6405
 7530TIP3    H146785   5.423   6.933   1.177  0.1535  1.1881  0.3863
 7530TIP3    H246786   5.320   6.829   1.138 -0.2696  1.8570 -0.3127
 7531TIP3   OH246787   6.074   2.654   2.855 -0.4171 -0.0923  0.4398
 7531TIP3    H146788   6.025   2.610   2.925 -1.0281 -2.3912 -1.3210
 7531TIP3    H246789   6.008   2.701   2.804 -0.6299 -1.7974 -0.9383
 7532TIP3   OH246790   2.457   6.144   1.620 -0.3429 -0.6982 -0.0892
 7532TIP3    H146791   2.364   6.132   1.639 -0.4203 -3.0382 -1.5110
 7532TIP3    H246792   2.459   6.201   1.543 -0.6013 -0.7864 -0.1604
 7533TIP3   OH246793   2.079   6.166   0.750  0.2047  0.0962  0.1717
 7533TIP3    H146794   2.152   6.114   0.784  0.0050 -1.8158 -2.0733
 7533TIP3    H246795   2.001   6.116   0.773 -0.0931  0.0644 -0.8416
 7534TIP3   OH246796   0.711   0.140   0.960  0.6765 -0.0418  0.4052
 7534TIP3    H146797   0.714   0.052   0.996 -2.1166  0.5079  2.2876
 7534TIP3    H246798   0.741   0.197   1.032  0.1242  0.7104  0.0578
 7535TIP3   OH246799   5.006   0.474   1.505 -0.3735 -0.2657  0.0159
 7535TIP3    H146800   4.987   0.383   1.480 -0.9449 -0.1081 -0.1494
 7535TIP3    H246801   4.920   0.511   1.526 -0.3228  0.6527 -1.3158
 7536TIP3   OH246802   2.357   5.012   3.409  0.5875 -0.5877 -0.0178
 7536TIP3    H146803   2.286   4.989   3.349  1.1044 -0.6379 -0.6192
 7536TIP3    H246804   2.391   5.095   3.376  2.3538 -1.6974 -1.1939
 7537TIP3   OH246805   7.077   0.168   2.762 -0.1030  0.2120  0.0510
 7537TIP3    H146806   7.016   0.165   2.836  1.5475  0.5308  1.4687
 7537TIP3    H246807   7.151   0.114   2.789  1.3663  1.8435 -0.5509
 7538TIP3   OH246808   7.150   0.866   2.426 -0.3327  0.1067 -0.1703
 7538TIP3    H146809   7.100   0.785   2.436 -2.5769  1.5613  1.3348
 7538TIP3    H246810   7.104   0.930   2.481  2.6080  1.8788  0.4809
 7539TIP3   OH246811   2.808   0.672   1.401 -0.0899 -1.2001 -0.0618
 7539TIP3    H146812   2.788   0.761   1.373 -2.0531 -1.6802 -0.3589
 7539TIP3    H246813   2.760   0.616   1.339 -2.1277 -2.3617  2.4057
 7540TIP3   OH246814   5.157   5.636   2.248  0.3204  0.0407 -0.0402
 7540TIP3    H146815   5.193   5.599   2.167 -0.3965 -0.6024 -0.0739
 7540TIP3    H246816   5.214   5.711   2.267 -1.0088  1.8737 -2.5944
 7541TIP3   OH246817   3.062   1.209   1.495 -0.5841  0.0467  0.8232
 7541TIP3    H146818   3.074   1.264   1.418 -0.9369 -0.3383  0.4902
 7541TIP3    H246819   3.000   1.257   1.550 -0.5728  0.1764  0.7233
 7542TIP3   OH246820   1.623   6.452   1.605  0.1337 -0.1313 -0.1804
 7542TIP3    H146821   1.617   6.381   1.541  0.8211  0.0768 -0.4925
 7542TIP3    H246822   1.697   6.505   1.574  0.7912 -0.2956  1.0584
 7543TIP3   OH246823   2.676   2.925   2.665 -0.5435  0.1656 -0.2753
 7543TIP3    H146824   2.629   2.894   2.742  0.4927 -2.3493 -0.5366
 7543TIP3    H246825   2.626   2.890   2.591  1.8129 -3.1665 -0.5559
 7544TIP3   OH246826   6.891   0.028   0.924 -0.2291  0.3804 -0.0783
 7544TIP3    H146827   6.925   0.104   0.972  0.3647  0.1853 -0.1754
 7544TIP3    H246828   6.845   0.066   0.849 -0.3128  0.6590  0.1107
 7545TIP3   OH246829   0.830   0.455   1.982 -0.0709  0.4567  0.9050
 7545TIP3    H146830   0.913   0.423   2.018  1.4871  0.4021 -2.3963
 7545TIP3    H246831   0.764   0.397   2.019  1.9032 -2.4052  0.2479
 7546TIP3   OH246832   4.331   6.437   0.887  0.2609 -0.3940 -0.1652
 7546TIP3    H146833   4.363   6.380   0.957  1.0009  0.3726  0.1297
 7546TIP3    H246834   4.238   6.415   0.879  0.0904 -0.2847  1.2542
 7547TIP3   OH246835   4.702   6.245   1.099  0.5806 -0.3925 -0.0967
 7547TIP3    H146836   4.744   6.299   1.032  0.9438 -1.2493 -0.5695
 7547TIP3    H246837   4.608   6.259   1.086  0.6787  1.4920  0.9276
 7548TIP3   OH246838   5.639   4.470   0.500 -0.5159  0.0267 -0.2269
 7548TIP3    H146839   5.585   4.534   0.453 -1.2812 -0.5299 -0.1217
 7548TIP3    H246840   5.578   4.400   0.523  0.0534 -0.1519  0.7743
 7549TIP3   OH246841   0.134   3.692   2.759  0.1983 -0.1564 -0.5241
 7549TIP3    H146842   0.204   3.662   2.701  0.8896 -1.0665  0.7479
 7549TIP3    H246843   0.122   3.621   2.822  1.0442  1.6677  1.8555
 7550TIP3   OH246844   1.643   5.200   1.914  0.0068  0.0132  0.1458
 7550TIP3    H146845   1.553   5.170   1.910  0.3897 -1.3076  0.8260
 7550TIP3    H246846   1.637   5.295   1.910 -1.3463 -0.0876 -0.7164
 7551TIP3   OH246847   2.671   7.104   2.699  0.2714  0.5767 -0.7450
 7551TIP3    H146848   2.642   7.176   2.756  1.5918  1.1738 -0.7895
 7551TIP3    H246849   2.743   7.141   2.648  0.4192 -0.5415 -1.3832
 7552TIP3   OH246850   4.456   2.236   3.066  0.0085 -0.2920  0.4864
 7552TIP3    H146851   4.366   2.217   3.043 -0.5614  1.6434  0.9277
 7552TIP3    H246852   4.478   2.315   3.015  0.8649  0.2641  1.6542
 7553TIP3   OH246853   7.258   7.023   2.112 -0.2930 -0.4602  0.0382
 7553TIP3    H146854   7.335   7.012   2.055  0.0803 -3.8037  0.9988
 7553TIP3    H246855   7.184   6.997   2.058  0.0042 -3.1194  0.7979
 7554TIP3   OH246856   4.446   3.143   2.661 -0.6323 -0.2804 -0.1673
 7554TIP3    H146857   4.364   3.113   2.700  0.1128  0.6438  2.2737
 7554TIP3    H246858   4.481   3.066   2.616 -1.5718 -1.4372  1.0034
 7555TIP3   OH246859   2.007   1.509   0.672 -0.2930  0.4137 -0.3599
 7555TIP3    H146860   1.981   1.440   0.611  0.4053  0.4536 -0.7119
 7555TIP3    H246861   1.948   1.498   0.747 -0.7023 -0.0702 -0.7460
 7556TIP3   OH246862   3.028   5.271   1.962 -0.1605 -0.2558 -0.9217
 7556TIP3    H146863   3.019   5.285   1.868 -2.6745 -1.2421 -0.9001
 7556TIP3    H246864   2.982   5.189   1.979  2.7547 -1.7031  0.8093
 7557TIP3   OH246865   4.774   6.859   1.201 -0.6880  0.1357 -0.6263
 7557TIP3    H146866   4.792   6.767   1.182 -1.7576 -0.2321  0.0690
 7557TIP3    H246867   4.771   6.902   1.115 -1.7046 -0.7780 -1.0667
 7558TIP3   OH246868   4.674   6.467   2.507  0.2315  0.6440  0.6080
 7558TIP3    H146869   4.731   6.442   2.580  1.0688  1.4187  0.2414
 7558TIP3    H246870   4.657   6.385   2.461 -0.1903  0.1685  1.5916
 7559TIP3   OH246871   3.102   4.855   3.157  0.1917 -0.2641  0.2394
 7559TIP3    H146872   3.018   4.815   3.133  0.1355  1.1685 -2.3150
 7559TIP3    H246873   3.088   4.949   3.146  2.3503 -0.0429 -1.1912
 7560TIP3   OH246874   5.150   6.421   2.529  0.4047  0.6853 -0.2876
 7560TIP3    H146875   5.088   6.360   2.489 -0.7253  1.0767  0.8092
 7560TIP3    H246876   5.228   6.414   2.475 -0.6728  0.3631 -1.8783
 7561TIP3   OH246877   1.012   0.900   1.924 -0.0288 -0.1692  0.3835
 7561TIP3    H146878   0.921   0.923   1.906  0.3816  0.7821 -0.6222
 7561TIP3    H246879   1.034   0.837   1.856  0.8306  1.6494 -1.1177
 7562TIP3   OH246880   0.308   2.812   0.526  0.1403 -0.1486 -0.0812
 7562TIP3    H146881   0.273   2.723   0.517 -0.6659 -0.0067  1.3393
 7562TIP3    H246882   0.403   2.801   0.525  0.0825 -0.7946 -1.7926
 7563TIP3   OH246883   0.004   1.825   1.534 -0.1376  0.1267 -0.0598
 7563TIP3    H146884   0.003   1.792   1.444  1.3099  0.0999 -0.0956
 7563TIP3    H246885   0.030   1.749   1.587  0.3862  0.4761  0.1989
 7564TIP3   OH246886   6.774   0.854   1.213  0.3013 -0.0573  0.1598
 7564TIP3    H146887   6.852   0.903   1.238 -0.8519  1.0648  1.7724
 7564TIP3    H246888   6.789   0.829   1.122  2.3127  0.5304  0.2912
 7565TIP3   OH246889   0.432   6.130   1.230 -0.2401  0.0862 -0.1737
 7565TIP3    H146890   0.515   6.105   1.191 -0.9717 -1.9755 -0.5541
 7565TIP3    H246891   0.423   6.223   1.211  1.9293  0.3531 -0.1564
 7566TIP3   OH246892   4.841   0.650   0.755  0.5001  0.6897 -0.0757
 7566TIP3    H146893   4.812   0.599   0.831  1.4914  0.5923  0.2529
 7566TIP3    H246894   4.804   0.737   0.768  1.7608  1.0803  1.2598
 7567TIP3   OH246895   7.078   4.427   2.826 -0.1784  0.4357 -0.0044
 7567TIP3    H146896   7.147   4.413   2.761 -0.2022 -1.4385  0.3274
 7567TIP3    H246897   7.125   4.443   2.908 -0.1534  2.3073 -0.3453
 7568TIP3   OH246898   3.812   0.881   1.651  0.1621  0.2173 -0.2894
 7568TIP3    H146899   3.849   0.962   1.614  0.9949 -0.5737 -1.2417
 7568TIP3    H246900   3.859   0.811   1.607 -1.5773 -0.8275 -0.5839
 7569TIP3   OH246901   4.384   3.824   1.620 -0.0177 -0.3847 -0.0249
 7569TIP3    H146902   4.326   3.777   1.559 -1.7567 -0.0886  1.3167
 7569TIP3    H246903   4.400   3.762   1.690  2.1335 -0.7881 -0.7944
 7570TIP3   OH246904   4.556   1.210   1.421  0.4058 -0.2662 -0.0506
 7570TIP3    H146905   4.641   1.210   1.377  0.3768 -0.2086 -0.1066
 7570TIP3    H246906   4.577   1.197   1.513  0.4712 -0.3175 -0.0722
 7571TIP3   OH246907   3.435   4.425   1.816 -0.1785 -0.1270  0.5711
 7571TIP3    H146908   3.382   4.355   1.778 -0.0524 -0.1212  0.3797
 7571TIP3    H246909   3.472   4.470   1.740  0.4151 -0.3763  0.7049
 7572TIP3   OH246910   3.449   7.196   1.332  0.4834  0.0900  0.1823
 7572TIP3    H146911   3.442   7.145   1.413  0.7706 -2.3350 -1.2293
 7572TIP3    H246912   3.543   7.197   1.312  0.3515  0.1615 -0.4485
 7573TIP3   OH246913   3.851   6.631   3.003 -0.5757  0.2389  0.5997
 7573TIP3    H146914   3.831   6.601   3.092 -2.2283  0.1105  0.2153
 7573TIP3    H246915   3.911   6.565   2.969  0.6293  0.6402  1.8177
 7574TIP3   OH246916   4.528   2.924   1.798  0.0809  0.5459  0.2347
 7574TIP3    H146917   4.617   2.923   1.833  0.9071  0.0859 -1.7556
 7574TIP3    H246918   4.486   2.848   1.838  1.9112 -1.7178 -1.8580
 7575TIP3   OH246919   6.737   0.222   0.776 -0.4001  0.1482  0.2545
 7575TIP3    H146920   6.649   0.190   0.761 -0.8556  1.6719 -0.5613
 7575TIP3    H246921   6.777   0.226   0.689  0.9099 -1.5987  0.7162
 7576TIP3   OH246922   4.764   2.545   0.836  0.1867  0.8222 -0.1168
 7576TIP3    H146923   4.803   2.630   0.815 -1.4584  1.5709 -0.3244
 7576TIP3    H246924   4.838   2.488   0.853  1.3607  2.0739 -0.8553
 7577TIP3   OH246925   2.128   0.325   1.135  0.0018  0.0857  0.0831
 7577TIP3    H146926   2.159   0.240   1.102  1.5790  0.8453 -0.4721
 7577TIP3    H246927   2.202   0.360   1.184 -0.5522  1.2620  0.1074
 7578TIP3   OH246928   3.321   4.447   2.065  0.0416  0.0148 -0.0994
 7578TIP3    H146929   3.366   4.436   1.982 -0.1233 -1.2225 -0.0388
 7578TIP3    H246930   3.264   4.371   2.072  0.3365 -0.0990  1.3238
 7579TIP3   OH246931   1.280   2.889   2.026 -0.2244 -0.1122 -0.0196
 7579TIP3    H146932   1.365   2.846   2.028  0.1266  0.5824  0.2955
 7579TIP3    H246933   1.278   2.944   2.105 -0.8382  0.1157 -0.1823
 7580TIP3   OH246934   5.589   0.488   1.227 -0.4213  0.1088  0.2426
 7580TIP3    H146935   5.555   0.474   1.139 -1.2446 -0.3227  0.6157
 7580TIP3    H246936   5.574   0.405   1.272 -1.0872  0.6829  1.1243
 7581TIP3   OH246937   7.122   0.624   1.941 -0.1805  0.2296  0.1569
 7581TIP3    H146938   7.044   0.583   1.904  1.5318  0.2615 -4.0214
 7581TIP3    H246939   7.176   0.550   1.970 -0.7077  0.0913  0.8206
 7582TIP3   OH246940   1.390   6.143   1.786  0.2040 -0.1287 -0.0520
 7582TIP3    H146941   1.364   6.198   1.712  0.5331  0.3169  0.1587
 7582TIP3    H246942   1.364   6.193   1.864  1.0475  0.0066  0.1500
 7583TIP3   OH246943   5.518   3.500   1.466  0.6184 -0.1129  0.8327
 7583TIP3    H146944   5.471   3.451   1.398  1.0339 -0.3254  0.6979
 7583TIP3    H246945   5.532   3.437   1.536  1.2273 -0.2082  0.6235
 7584TIP3   OH246946   1.975   4.254   0.911  0.3177 -0.4000 -0.4934
 7584TIP3    H146947   1.936   4.338   0.935  2.5130  0.0229  2.0336
 7584TIP3    H246948   1.954   4.243   0.818  1.0605  3.5868 -1.3021
 7585TIP3   OH246949   2.353   6.434   2.903 -0.3354  0.3559 -0.8247
 7585TIP3    H146950   2.317   6.431   2.992 -1.7875 -1.9430 -1.4302
 7585TIP3    H246951   2.443   6.404   2.913 -0.1879  1.0110 -0.0285
 7586TIP3   OH246952   3.205   6.764   1.190  0.0274 -0.3502  0.2874
 7586TIP3    H146953   3.168   6.676   1.189 -1.8256  0.3952 -0.5578
 7586TIP3    H246954   3.148   6.814   1.248 -0.6573  0.9575 -1.4324
 7587TIP3   OH246955   3.240   6.340   1.555 -0.7225 -0.2010 -0.4738
 7587TIP3    H146956   3.317   6.338   1.498 -0.3061 -1.7605  0.0893
 7587TIP3    H246957   3.205   6.252   1.551 -2.0797  0.2975 -0.1445
 7588TIP3   OH246958   2.466   4.836   0.405 -0.1523  0.2034  0.4284
 7588TIP3    H146959   2.468   4.910   0.345  1.8216 -1.2683 -1.4651
 7588TIP3    H246960   2.547   4.844   0.456 -0.0694 -0.4753  0.4123
 7589TIP3   OH246961   3.906   6.689   2.109  0.6414  0.5658  0.3518
 7589TIP3    H146962   3.904   6.685   2.205  1.7992  1.0988  0.4228
 7589TIP3    H246963   3.863   6.772   2.088  0.5887  0.5567  0.4236
 7590TIP3   OH246964   0.821   0.782   1.335 -0.0268 -0.1530 -0.1477
 7590TIP3    H146965   0.914   0.784   1.314  0.5490 -1.4093  1.9814
 7590TIP3    H246966   0.818   0.763   1.429 -2.4040  1.7925  0.2830
 7591TIP3   OH246967   6.293   1.557   1.746  0.6179 -0.2999  0.2247
 7591TIP3    H146968   6.280   1.462   1.750 -0.3822 -0.1241  1.7752
 7591TIP3    H246969   6.286   1.586   1.837 -0.4278  1.4368 -0.3677
 7592TIP3   OH246970   3.388   5.389   0.506  0.3620  0.6558 -0.2550
 7592TIP3    H146971   3.359   5.458   0.446 -3.9476  0.3356  1.1017
 7592TIP3    H246972   3.424   5.436   0.581 -0.4282  1.3665 -0.3035
 7593TIP3   OH246973   2.577   5.173   2.310 -0.0555 -0.1459  0.3612
 7593TIP3    H146974   2.654   5.175   2.368 -0.8172 -0.5920  1.4138
 7593TIP3    H246975   2.583   5.255   2.261  0.5997  0.2634  1.0913
 7594TIP3   OH246976   0.563   4.910   0.580  0.3184 -0.2687  0.4984
 7594TIP3    H146977   0.568   4.844   0.510 -0.5080  0.8506 -0.6544
 7594TIP3    H246978   0.470   4.919   0.599  0.4718  0.1094  1.1158
 7595TIP3   OH246979   3.287   7.018   2.187 -0.5392  0.5458  0.1529
 7595TIP3    H146980   3.207   7.004   2.237  0.5748  0.7311  2.0926
 7595TIP3    H246981   3.337   6.937   2.197  0.6720  1.3783  1.2930
 7596TIP3   OH246982   4.614   7.141   2.327 -0.3421  0.0530  0.0111
 7596TIP3    H146983   4.522   7.159   2.308 -0.3221  0.2593  0.1109
 7596TIP3    H246984   4.632   7.059   2.280 -0.5678  0.0258 -0.0312
 7597TIP3   OH246985   2.247   0.646   0.649 -0.0364  0.7688  0.5251
 7597TIP3    H146986   2.226   0.559   0.614  1.7451  0.1523  0.8782
 7597TIP3    H246987   2.250   0.703   0.572  1.3383 -0.0495 -0.0647
 7598TIP3   OH246988   6.548   6.988   1.687  0.1087  0.0333  0.0997
 7598TIP3    H146989   6.491   6.927   1.639 -1.0020 -0.4478  1.9438
 7598TIP3    H246990   6.544   6.959   1.778  0.7493  1.9560  0.7989
 7599TIP3   OH246991   4.884   6.843   2.964 -0.4750  0.2055  0.5398
 7599TIP3    H146992   4.965   6.862   2.917 -0.7717  1.7658  0.6311
 7599TIP3    H246993   4.821   6.820   2.895 -0.0995 -0.5493  0.4360
 7600TIP3   OH246994   5.963   4.220   2.815 -0.1471 -0.0603  0.3506
 7600TIP3    H146995   5.939   4.136   2.853  1.8585 -0.7737  0.1346
 7600TIP3    H246996   5.957   4.282   2.887  0.0708 -0.7191  0.9473
 7601TIP3   OH246997   0.455   3.066   1.239  0.2118 -0.2019  0.0778
 7601TIP3    H146998   0.362   3.086   1.231  0.4160  0.5917 -0.4184
 7601TIP3    H246999   0.471   3.002   1.169 -0.4426 -2.2300  1.6761
 7602TIP3   OH247000   6.519   7.264   2.509  0.0840  0.9669  0.1614
 7602TIP3    H147001   6.469   7.283   2.430 -1.6403  1.6130  1.3670
 7602TIP3    H247002   6.474   7.189   2.549  0.1652  1.4568  1.1844
 7603TIP3   OH247003   5.296   6.765   1.977 -0.4420  1.2683  0.3395
 7603TIP3    H147004   5.309   6.733   1.888 -1.2646  0.1776  0.5879
 7603TIP3    H247005   5.377   6.813   1.997  1.4596 -1.7172  0.3827
 7604TIP3   OH247006   6.603   0.920   1.428 -0.1649 -0.0112 -0.6269
 7604TIP3    H147007   6.669   0.890   1.366  1.3227  1.3253  0.2244
 7604TIP3    H247008   6.643   0.906   1.514 -0.6934  1.4787 -0.1104
 7605TIP3   OH247009   6.960   3.154   3.191 -0.3056 -0.1988 -0.1927
 7605TIP3    H147010   6.947   3.206   3.271  0.5742  0.6808 -0.6027
 7605TIP3    H247011   7.054   3.152   3.180 -0.4085 -0.6609 -1.0012
 7606TIP3   OH247012   5.962   6.922   0.657  0.1798 -0.3570  1.0290
 7606TIP3    H147013   5.897   6.920   0.727  1.4779  1.2681  2.3607
 7606TIP3    H247014   5.915   6.958   0.582 -0.1568  2.3860  2.4347
 7607TIP3   OH247015   3.655   2.131   2.062  0.3063  0.1922  0.2232
 7607TIP3    H147016   3.693   2.103   2.145  3.5127  1.0446 -0.8103
 7607TIP3    H247017   3.590   2.196   2.086  0.9660  0.2264  2.0685
 7608TIP3   OH247018   4.701   0.358   2.106 -0.2974 -0.2668 -0.8862
 7608TIP3    H147019   4.710   0.289   2.041  0.9791 -0.9306 -0.0382
 7608TIP3    H247020   4.680   0.312   2.188 -1.5177  0.5230 -0.7312
 7609TIP3   OH247021   0.281   5.202   0.786 -0.2824 -0.2245  0.0910
 7609TIP3    H147022   0.247   5.204   0.696 -0.9980 -1.0018  0.3356
 7609TIP3    H247023   0.363   5.251   0.781 -0.4308 -0.0483 -0.9385
 7610TIP3   OH247024   7.471   3.482   0.436 -0.5196  0.0087 -0.0498
 7610TIP3    H147025   7.403   3.545   0.459 -0.8320  0.1790 -1.3675
 7610TIP3    H247026   7.506   3.513   0.352 -0.2894 -1.2539 -0.4498
 7611TIP3   OH247027   0.364   4.917   1.769  0.1558 -0.0438 -0.2247
 7611TIP3    H147028   0.456   4.939   1.781  0.4611 -0.5880 -1.4039
 7611TIP3    H247029   0.316   4.990   1.809  1.1030  0.5934 -0.2303
 7612TIP3   OH247030   6.436   1.734   1.593 -0.0764 -0.3699  0.2474
 7612TIP3    H147031   6.356   1.736   1.540 -0.4923 -1.9405  0.7393
 7612TIP3    H247032   6.419   1.666   1.659  0.2768  1.7186  2.6445
 7613TIP3   OH247033   1.568   4.239   1.057  0.7814  0.5512  0.4346
 7613TIP3    H147034   1.568   4.155   1.103  2.5624  0.2773 -0.0236
 7613TIP3    H247035   1.517   4.297   1.114  1.5970 -0.1916  1.9776
 7614TIP3   OH247036   4.400   4.829   3.479 -0.2144  0.2444  0.5524
 7614TIP3    H147037   4.396   4.751   3.534  1.2509 -0.9890 -0.9850
 7614TIP3    H247038   4.471   4.881   3.517 -0.3611  0.2463  0.8297
 7615TIP3   OH247039   0.500   0.398   1.437  0.1975  0.9534  0.4064
 7615TIP3    H147040   0.538   0.405   1.349  1.1215  1.6078  0.8453
 7615TIP3    H247041   0.535   0.473   1.484  1.9173 -0.8449  2.1523
 7616TIP3   OH247042   4.684   6.388   0.863 -0.0681  0.5996 -0.1599
 7616TIP3    H147043   4.688   6.438   0.781 -1.1258 -1.7723 -1.7742
 7616TIP3    H247044   4.619   6.434   0.915  0.2136  1.8547 -0.8702
 7617TIP3   OH247045   6.371   6.222   3.304 -0.0768 -0.3759  0.1582
 7617TIP3    H147046   6.290   6.238   3.256  1.5112 -0.0139 -2.6126
 7617TIP3    H247047   6.379   6.127   3.306  0.6345 -0.4100 -1.9023
 7618TIP3   OH247048   5.148   6.871   2.915 -0.1431 -0.1600 -0.1257
 7618TIP3    H147049   5.230   6.920   2.908 -0.0044 -0.5628 -1.7723
 7618TIP3    H247050   5.164   6.808   2.986  1.0097 -0.2765 -0.4658
 7619TIP3   OH247051   5.886   6.457   2.370 -0.2966  0.2818  0.5262
 7619TIP3    H147052   5.797   6.430   2.348  0.1873 -0.3855 -0.6787
 7619TIP3    H247053   5.913   6.397   2.440 -0.5320  0.0158  0.3893
 7620TIP3   OH247054   1.024   2.491   1.483  0.4585 -0.7498  0.1804
 7620TIP3    H147055   1.011   2.585   1.496 -0.1339 -1.0865  2.1878
 7620TIP3    H247056   1.116   2.477   1.504 -0.0843 -1.0075  2.6722
 7621TIP3   OH247057   0.662   3.229   1.105 -0.4361 -0.4650 -0.3494
 7621TIP3    H147058   0.576   3.199   1.136 -0.5957 -0.0295 -0.3664
 7621TIP3    H247059   0.724   3.183   1.161 -0.7407  1.1696  1.4455
 7622TIP3   OH247060   4.969   6.154   1.478 -0.5704  0.0165  0.4890
 7622TIP3    H147061   4.952   6.096   1.403 -0.2585 -0.4942  0.8119
 7622TIP3    H247062   4.955   6.242   1.443  1.8665 -0.0533 -0.8352
 7623TIP3   OH247063   0.633   6.893   2.664  0.4537 -0.1195  0.1754
 7623TIP3    H147064   0.598   6.866   2.749  1.0554 -0.2184  0.3905
 7623TIP3    H247065   0.635   6.989   2.669 -0.2138 -0.0925 -0.0088
 7624TIP3   OH247066   0.253   0.018   2.194  0.3284 -0.4314  0.3146
 7624TIP3    H147067   0.290   0.009   2.281  0.5534 -1.4358  0.1226
 7624TIP3    H247068   0.286  -0.057   2.145 -0.6792 -0.4805 -0.3282
 7625TIP3   OH247069   7.020   2.131   2.760 -0.1228  0.0532  0.4042
 7625TIP3    H147070   7.022   2.218   2.799  0.1112  0.6623 -0.9157
 7625TIP3    H247071   7.083   2.081   2.812 -2.1098 -0.1182  2.8436
 7626TIP3   OH247072   5.775   4.776   3.364 -0.0351 -0.2262  0.1625
 7626TIP3    H147073   5.802   4.849   3.419 -0.2657  0.2044 -0.2929
 7626TIP3    H247074   5.850   4.715   3.367  1.7316  1.6342 -2.3271
 7627TIP3   OH247075   4.101   6.715   2.647 -0.3488  0.2031 -0.7592
 7627TIP3    H147076   4.071   6.782   2.708  1.3378  0.3741 -0.0747
 7627TIP3    H247077   4.089   6.633   2.695 -0.1466  0.2331 -0.6558
 7628TIP3   OH247078   7.177   3.640   0.769  0.2069 -0.3014  0.1875
 7628TIP3    H147079   7.140   3.553   0.782 -0.4431 -0.1045 -0.2639
 7628TIP3    H247080   7.204   3.669   0.856 -0.7537 -0.4420  0.5449
 7629TIP3   OH247081   0.358   7.488   2.093 -0.0532  0.2590 -0.5825
 7629TIP3    H147082   0.437   7.453   2.053  0.0067  0.5051 -0.6845
 7629TIP3    H247083   0.288   7.430   2.064  0.0103  0.3630 -0.9423
 7630TIP3   OH247084   0.092   5.057   0.956 -0.0251  0.3686 -0.1989
 7630TIP3    H147085   0.159   5.103   0.907 -0.6219  0.3888 -1.0191
 7630TIP3    H247086   0.126   4.969   0.968  0.7486  0.7640  0.6284
 7631TIP3   OH247087   4.755   5.161   0.844  0.1082  0.4607  0.0909
 7631TIP3    H147088   4.706   5.107   0.783  0.8240 -0.5854  0.4183
 7631TIP3    H247089   4.734   5.126   0.931 -0.9387  1.9611  0.4887
 7632TIP3   OH247090   1.589   3.585   2.002  0.0660  0.1615  0.1647
 7632TIP3    H147091   1.558   3.505   1.958  2.3293 -0.6218 -0.1658
 7632TIP3    H247092   1.631   3.554   2.082  0.9552  0.9988  0.0463
 7633TIP3   OH247093   3.136   5.036   0.547  0.4881  0.3671 -0.3262
 7633TIP3    H147094   3.214   4.982   0.530  0.7371  0.2809  0.9697
 7633TIP3    H247095   3.170   5.126   0.553  0.5487  0.2906  0.5684
 7634TIP3   OH247096   2.582   4.767   1.475 -1.0882 -0.2523  0.7080
 7634TIP3    H147097   2.615   4.851   1.445 -0.2594 -0.4179  1.1262
 7634TIP3    H247098   2.495   4.787   1.511 -0.3571  0.6837  2.0533
 7635TIP3   OH247099   4.831   2.498   2.289 -0.2757 -0.0677  0.1905
 7635TIP3    H147100   4.901   2.525   2.230 -1.1306  1.3283 -0.2198
 7635TIP3    H247101   4.753   2.495   2.234 -0.8622  0.0986  1.0043
 7636TIP3   OH247102   4.717   3.263   1.619 -0.3639 -0.2874 -0.2250
 7636TIP3    H147103   4.766   3.238   1.541  0.3861 -0.2566  0.2260
 7636TIP3    H247104   4.784   3.292   1.682 -1.0213  0.5794  0.1074
 7637TIP3   OH247105   6.498   2.678   2.337  0.1847 -0.8442 -0.1871
 7637TIP3    H147106   6.584   2.692   2.376 -0.2137  0.0254  0.4068
 7637TIP3    H247107   6.516   2.658   2.245  0.9140  2.2696 -0.8139
 7638TIP3   OH247108   7.490   2.570   1.692  0.0820 -0.5584 -0.2907
 7638TIP3    H147109   7.487   2.514   1.770  3.5932 -0.2165  0.2399
 7638TIP3    H247110   7.494   2.508   1.619 -0.4097 -0.9091 -0.0322
 7639TIP3   OH247111   5.395   4.997   3.101 -0.4169  0.5880 -0.5489
 7639TIP3    H147112   5.445   4.926   3.141 -0.6035  0.7417 -0.0415
 7639TIP3    H247113   5.459   5.042   3.045 -0.1885  0.2938 -0.5268
 7640TIP3   OH247114   7.371   0.653   2.202  0.3815 -0.1470  0.5527
 7640TIP3    H147115   7.349   0.645   2.295 -0.0269  0.2629  0.4974
 7640TIP3    H247116   7.331   0.736   2.176 -0.4994 -0.7976 -0.2574
 7641TIP3   OH247117   1.037   0.380   2.614  0.6272  0.5741  0.2840
 7641TIP3    H147118   0.973   0.361   2.545 -0.6306 -3.0844  2.1522
 7641TIP3    H247119   0.995   0.447   2.667  1.0357  2.4725 -1.6705
 7642TIP3   OH247120   5.922   1.884   2.137  0.1563 -0.4157  0.0536
 7642TIP3    H147121   5.956   1.830   2.209 -0.1990  0.6984  1.0990
 7642TIP3    H247122   5.880   1.822   2.078 -0.4817 -1.2716  1.3504
 7643TIP3   OH247123   0.611   5.515   2.685 -0.0517 -0.4073  0.2425
 7643TIP3    H147124   0.599   5.427   2.720  0.3956 -1.0171 -1.0612
 7643TIP3    H247125   0.705   5.522   2.668 -0.0274  0.4680  0.7020
 7644TIP3   OH247126   6.792   7.348   0.846  0.1087 -0.0558  0.1102
 7644TIP3    H147127   6.764   7.322   0.758 -0.4543 -0.3096  0.3551
 7644TIP3    H247128   6.711   7.350   0.896  0.6074 -1.4125  1.0069
 7645TIP3   OH247129   3.662   5.655   2.890 -0.8733  0.2504  0.1147
 7645TIP3    H147130   3.631   5.565   2.879  2.9302 -1.2868  0.5504
 7645TIP3    H247131   3.713   5.654   2.971  0.8899  2.2679 -0.8616
 7646TIP3   OH247132   5.034   5.138   1.877 -0.1899 -0.0524  0.5505
 7646TIP3    H147133   4.975   5.138   1.952  0.5878  0.5737  1.1818
 7646TIP3    H247134   5.064   5.047   1.870 -2.5840 -0.8061 -0.9102
 7647TIP3   OH247135   6.577   0.807   2.870  0.4187  0.5354 -0.0400
 7647TIP3    H147136   6.497   0.853   2.846  0.3486  0.1115 -0.6394
 7647TIP3    H247137   6.616   0.862   2.939  1.3081  2.5543 -2.0039
 7648TIP3   OH247138   1.756   1.978   0.643  0.1753  0.1873 -0.1728
 7648TIP3    H147139   1.808   2.056   0.624  0.5912 -0.1520 -0.4305
 7648TIP3    H247140   1.731   1.987   0.735 -1.5941  1.6961 -0.7339
 7649TIP3   OH247141   7.314   2.200   1.207 -0.0457 -0.1139 -0.0994
 7649TIP3    H147142   7.253   2.245   1.149  2.6017  0.7829 -2.3693
 7649TIP3    H247143   7.354   2.132   1.153  0.9769 -0.6733  1.3033
 7650TIP3   OH247144   3.135   3.173   0.773 -0.1272 -0.6816 -0.2935
 7650TIP3    H147145   3.078   3.237   0.815  0.0586  0.1806 -1.3200
 7650TIP3    H247146   3.203   3.225   0.730 -0.3560 -1.5015 -1.7209
 7651TIP3   OH247147   1.547   0.492   1.818  1.3361  0.2398 -0.6265
 7651TIP3    H147148   1.459   0.456   1.816  0.7309  1.0773  3.1651
 7651TIP3    H247149   1.600   0.424   1.860  1.4929  1.2970  0.9887
 7652TIP3   OH247150   5.084   1.894   3.397  0.3694  0.1359  0.1208
 7652TIP3    H147151   5.142   1.922   3.326 -0.7469  0.0579 -0.8380
 7652TIP3    H247152   5.004   1.945   3.384 -0.4090 -0.9767  0.4266
 7653TIP3   OH247153   6.037   2.173   1.744 -0.2187 -0.1225  0.3518
 7653TIP3    H147154   6.058   2.267   1.746 -2.3809  0.4488 -0.5578
 7653TIP3    H247155   6.082   2.137   1.820  0.5741  1.6695  0.7983
 7654TIP3   OH247156   1.861   1.510   2.128 -0.6080  0.0689  0.0290
 7654TIP3    H147157   1.784   1.478   2.176 -0.1716 -0.6493  0.2689
 7654TIP3    H247158   1.889   1.588   2.177 -0.7680 -0.0726  0.3513
 7655TIP3   OH247159   0.925   7.270   1.641  0.3611 -0.1785  0.2560
 7655TIP3    H147160   0.982   7.328   1.590  0.9977 -1.2033 -0.2281
 7655TIP3    H247161   0.865   7.232   1.576 -0.3762  0.2935  0.6441
 7656TIP3   OH247162   2.899   1.985   1.625 -0.5154 -0.2751  0.1075
 7656TIP3    H147163   2.814   2.024   1.607  0.7074  2.1258 -1.0313
 7656TIP3    H247164   2.929   1.951   1.541  0.1367  0.0165  0.2085
 7657TIP3   OH247165   0.637   5.352   1.818 -0.3763 -0.3117  0.0019
 7657TIP3    H147166   0.641   5.331   1.911  1.2899 -1.5914 -0.3045
 7657TIP3    H247167   0.728   5.349   1.789 -1.0042 -1.7056 -2.0229
 7658TIP3   OH247168   6.234   4.353   2.527  0.2350  0.9202  0.4089
 7658TIP3    H147169   6.153   4.388   2.563  0.1494  1.7717 -0.5732
 7658TIP3    H247170   6.251   4.275   2.579 -1.1353  0.8061  0.7269
 7659TIP3   OH247171   6.896   4.925   1.471 -0.3259  0.3537  0.0052
 7659TIP3    H147172   6.958   4.995   1.449 -0.3804  0.0982 -0.9869
 7659TIP3    H247173   6.822   4.971   1.511  0.8274  0.5927  1.9920
 7660TIP3   OH247174   6.933   5.405   0.993  0.8192  0.1541 -0.6168
 7660TIP3    H147175   6.971   5.322   0.964 -0.7798 -1.0615  0.5846
 7660TIP3    H247176   6.927   5.457   0.913 -0.2917 -1.7799 -1.8672
 7661TIP3   OH247177   5.888   0.018   2.923 -0.3938 -0.1622  0.0297
 7661TIP3    H147178   5.976   0.015   2.961 -0.0618  0.5373 -0.6707
 7661TIP3    H247179   5.854   0.103   2.949 -0.6593 -0.2119 -0.1530
 7662TIP3   OH247180   0.862   3.524   3.223 -0.3427  0.6225  0.4189
 7662TIP3    H147181   0.881   3.579   3.147  1.2554  1.7234  1.5361
 7662TIP3    H247182   0.941   3.472   3.235 -0.4943  0.5980  1.4194
 7663TIP3   OH247183   5.739   4.954   0.799 -0.0334 -0.6628 -0.0809
 7663TIP3    H147184   5.779   4.927   0.881 -1.5061 -0.6711  0.6753
 7663TIP3    H247185   5.762   4.885   0.737  0.7689 -0.8596  0.4180
 7664TIP3   OH247186   1.021   6.728   0.600 -0.2333 -0.1416 -0.4621
 7664TIP3    H147187   0.952   6.742   0.536 -0.1123  1.0072 -0.3582
 7664TIP3    H247188   1.099   6.711   0.548  0.3045  2.7107 -0.7498
 7665TIP3   OH247189   4.837   0.021   1.034 -0.8013  0.7912 -0.3895
 7665TIP3    H147190   4.741   0.023   1.035 -0.8731 -0.8702 -1.0416
 7665TIP3    H247191   4.861  -0.028   1.113 -0.5648 -0.0683 -0.9815
 7666TIP3   OH247192   6.421   3.267   1.337  0.2319  0.1398  0.6772
 7666TIP3    H147193   6.387   3.179   1.351  1.0736 -0.6424 -1.7546
 7666TIP3    H247194   6.370   3.322   1.398 -1.1019 -1.8180  1.4388
 7667TIP3   OH247195   2.822   7.465   1.512 -0.6429  0.0028  0.7863
 7667TIP3    H147196   2.762   7.539   1.521 -0.2278  0.3341  0.8709
 7667TIP3    H247197   2.878   7.489   1.438 -1.0625 -0.6230  0.2532
 7668TIP3   OH247198   0.103   0.054   1.126  0.1963 -0.3736  0.7150
 7668TIP3    H147199   0.054   0.011   1.056 -1.3534 -0.1995  1.6426
 7668TIP3    H247200   0.192   0.019   1.118 -0.4098 -1.8127 -0.1355
 7669TIP3   OH247201   7.293   7.674   0.541  0.1024  0.5168  0.0796
 7669TIP3    H147202   7.280   7.747   0.480 -0.2697 -0.4326 -1.0404
 7669TIP3    H247203   7.345   7.710   0.612 -1.2756  2.2332  0.2918
 7670TIP3   OH247204   6.992   3.219   1.114 -0.3999  0.5060 -0.0243
 7670TIP3    H147205   7.062   3.240   1.052 -1.7681 -1.8615 -2.6132
 7670TIP3    H247206   6.992   3.123   1.118 -2.0029  0.5266  1.7475
 7671TIP3   OH247207   5.898   0.245   0.586 -0.7314  0.3969 -0.2851
 7671TIP3    H147208   5.809   0.243   0.620  0.1184  0.9493  2.2076
 7671TIP3    H247209   5.926   0.154   0.584 -0.9183  0.3279  0.1951
 7672TIP3   OH247210   3.517   1.635   1.440  0.0021  0.2409  0.1327
 7672TIP3    H147211   3.483   1.707   1.493 -1.8922 -0.8990  0.5777
 7672TIP3    H247212   3.586   1.596   1.493  0.0459  0.8335  0.5202
 7673TIP3   OH247213   6.432   5.741   1.127 -0.5364 -0.0213  0.4866
 7673TIP3    H147214   6.361   5.688   1.165 -0.8121 -0.0429 -0.0551
 7673TIP3    H247215   6.444   5.707   1.039  2.0066 -1.8546  1.4148
 7674TIP3   OH247216   1.650   0.817   0.542  0.5467 -0.4111  0.5263
 7674TIP3    H147217   1.616   0.877   0.607 -1.6144 -2.3216  1.2869
 7674TIP3    H247218   1.574   0.768   0.511  1.3053  0.6908 -3.8897
 7675TIP3   OH247219   2.835   5.536   1.109 -0.6718 -0.0677 -0.6453
 7675TIP3    H147220   2.889   5.473   1.060  1.2682  1.1006 -0.0992
 7675TIP3    H247221   2.766   5.561   1.047  0.5118 -0.1779 -2.0729
 7676TIP3   OH247222   2.495   0.238   1.142  0.3207 -0.3749  0.1072
 7676TIP3    H147223   2.422   0.181   1.166  0.8473 -1.1626 -0.0989
 7676TIP3    H247224   2.468   0.281   1.061 -0.4211  0.3127  0.7145
 7677TIP3   OH247225   5.029   1.752   2.096 -0.0773  0.3050  0.2812
 7677TIP3    H147226   4.940   1.784   2.114 -0.4583 -0.0179 -0.9044
 7677TIP3    H247227   5.015   1.673   2.044  0.9035 -0.1311  0.6608
 7678TIP3   OH247228   1.549   1.450   1.634 -0.0475 -0.3633 -0.7812
 7678TIP3    H147229   1.520   1.533   1.598 -1.1280  0.2738  1.3775
 7678TIP3    H247230   1.611   1.416   1.570  1.5060  2.7576 -1.0979
 7679TIP3   OH247231   0.007   0.008   2.069 -0.0773  0.4145  0.0799
 7679TIP3    H147232   0.088   0.037   2.112  0.0032  0.2378  0.0528
 7679TIP3    H247233  -0.038   0.088   2.043 -0.9158  0.5830  1.9258
 7680TIP3   OH247234   4.401   2.523   1.175  0.6696 -0.8012  0.1981
 7680TIP3    H147235   4.439   2.607   1.201 -1.3748  0.5499 -0.9697
 7680TIP3    H247236   4.457   2.493   1.103 -0.0917  0.9070 -1.1713
 7681TIP3   OH247237   2.610   0.119   0.832  0.4129 -0.2469 -0.0850
 7681TIP3    H147238   2.646   0.037   0.865 -1.2781 -0.4279  1.4436
 7681TIP3    H247239   2.515   0.105   0.831  0.2123  1.0146 -1.7094
 7682TIP3   OH247240   1.118   0.294   1.370 -0.7815  0.1494 -0.4485
 7682TIP3    H147241   1.093   0.356   1.439 -1.3769  1.0971 -1.4751
 7682TIP3    H247242   1.116   0.209   1.412 -0.9693  0.7193  0.7456
 7683TIP3   OH247243   2.914   4.492   1.523 -0.1132 -0.2447  0.0147
 7683TIP3    H147244   3.003   4.521   1.544 -0.2451 -0.7771  1.4373
 7683TIP3    H247245   2.858   4.561   1.559 -0.3897 -1.6827  2.5872
 7684TIP3   OH247246   2.511   7.035   1.031  0.4371  0.1461 -0.0838
 7684TIP3    H147247   2.452   6.960   1.017  0.7338  0.1864 -1.7740
 7684TIP3    H247248   2.509   7.050   1.125 -0.7817 -1.0578  0.1115
 7685TIP3   OH247249   1.322   6.775   2.922 -0.1180 -0.3322 -0.2234
 7685TIP3    H147250   1.300   6.755   3.013 -0.9751  0.1156 -0.3188
 7685TIP3    H247251   1.263   6.721   2.871  0.4566 -0.6830 -0.5183
 7686TIP3   OH247252   4.540   3.023   1.445  0.4670 -0.4094 -0.3968
 7686TIP3    H147253   4.560   2.959   1.514  1.6997  0.4564  0.0843
 7686TIP3    H247254   4.495   3.094   1.491  0.1728 -0.3835 -0.7211
 7687TIP3   OH247255   0.235   5.926   0.844 -0.4393  0.4257 -0.0128
 7687TIP3    H147256   0.238   5.896   0.935 -0.8929 -1.0925 -0.4655
 7687TIP3    H247257   0.293   6.002   0.842  0.5295 -0.2362  1.2902
 7688TIP3   OH247258   2.059   1.329   2.186 -0.4085 -0.2509 -0.3681
 7688TIP3    H147259   1.988   1.275   2.222 -1.4367  2.3759  1.8664
 7688TIP3    H247260   2.017   1.412   2.163  1.5159  0.5029 -1.4168
 7689TIP3   OH247261   1.091   3.959   0.530 -0.5842 -0.1642 -0.4975
 7689TIP3    H147262   1.047   4.044   0.530 -1.1741 -0.4436  0.7902
 7689TIP3    H247263   1.110   3.943   0.623  1.7192 -0.3217 -0.9427
 7690TIP3   OH247264   2.866   1.310   1.666 -0.0357 -0.1167 -0.3210
 7690TIP3    H147265   2.916   1.279   1.742 -1.5596 -1.6504  0.1488
 7690TIP3    H247266   2.805   1.374   1.703 -1.1476 -1.2606 -0.0938
 7691TIP3   OH247267   6.618   6.155   2.569  0.5365 -0.3007  0.0356
 7691TIP3    H147268   6.670   6.202   2.634 -0.1923 -0.9004  1.0916
 7691TIP3    H247269   6.680   6.100   2.523  0.8958 -0.7925  1.0802
 7692TIP3   OH247270   7.411   5.298   0.806 -0.1770 -0.3863 -0.6939
 7692TIP3    H147271   7.478   5.232   0.824 -1.5817 -2.0310 -1.1358
 7692TIP3    H247272   7.380   5.325   0.892  0.7718  0.1162 -0.4965
 7693TIP3   OH247273   1.259   6.441   8.317 -0.6273 -0.0824  0.1367
 7693TIP3    H147274   1.295   6.528   8.336 -0.6530  0.0746 -0.5121
 7693TIP3    H247275   1.166   6.456   8.302 -0.5849 -0.1779 -0.2378
 7694TIP3   OH247276   4.379   0.961   2.645  0.1730  0.7581  0.1379
 7694TIP3    H147277   4.347   1.012   2.719 -1.0317  1.0490 -0.5517
 7694TIP3    H247278   4.361   1.017   2.569 -0.1429 -0.2216 -0.5251
 7695TIP3   OH247279   5.904   7.470   0.782  0.3924  0.3913  0.4490
 7695TIP3    H147280   5.937   7.386   0.753 -0.2931 -0.0748  0.9820
 7695TIP3    H247281   5.962   7.496   0.854  0.8279  0.5614  0.0432
 7696TIP3   OH247282   2.349   3.805   3.543 -0.6394  0.2729 -0.3835
 7696TIP3    H147283   2.393   3.838   3.621 -0.5640  0.1177 -0.3610
 7696TIP3    H247284   2.419   3.783   3.482 -0.6651 -0.4812 -0.1445
 7697TIP3   OH247285   6.198   4.299   0.753 -0.6268  0.0581  0.1277
 7697TIP3    H147286   6.206   4.388   0.717 -3.6746  1.1615  1.8228
 7697TIP3    H247287   6.122   4.262   0.707 -1.0890 -0.5978  1.3891
 7698TIP3   OH247288   0.514   5.557   1.697 -0.2059  0.1409 -0.3480
 7698TIP3    H147289   0.521   5.549   1.602 -0.5113  0.5182 -0.4047
 7698TIP3    H247290   0.559   5.480   1.731 -0.8881 -0.4813 -0.8211
 7699TIP3   OH247291   5.302   6.687   0.577 -0.6509 -0.0216  0.2511
 7699TIP3    H147292   5.237   6.617   0.589 -0.0331 -0.4736  1.0368
 7699TIP3    H247293   5.269   6.760   0.629 -1.0565  0.1195 -0.1932
 7700TIP3   OH247294   5.499   1.996   0.598  0.4681 -0.1812 -0.6263
 7700TIP3    H147295   5.433   2.034   0.541 -0.3081  0.0782  0.4090
 7700TIP3    H247296   5.582   2.016   0.556  0.0007  1.4226 -0.8482
 7701TIP3   OH247297   2.877   6.043   2.537 -0.0219  0.2332 -0.3245
 7701TIP3    H147298   2.869   6.082   2.450 -3.0109 -0.0217 -0.2602
 7701TIP3    H247299   2.926   6.108   2.588  0.6002  0.9880 -1.8201
 7702TIP3   OH247300   4.902   6.054   1.709  0.0794 -0.0598  0.5189
 7702TIP3    H147301   4.809   6.031   1.709  0.0291  0.1331 -0.2017
 7702TIP3    H247302   4.921   6.082   1.619  0.5133  1.1974  0.9728
 7703TIP3   OH247303   5.503   4.262   1.131 -0.2103 -0.1361  0.2794
 7703TIP3    H147304   5.533   4.262   1.222  0.2145  1.0715  0.1549
 7703TIP3    H247305   5.465   4.349   1.118  0.2070 -0.1009 -0.8450
 7704TIP3   OH247306   6.803   1.455   2.358  0.7317 -0.4237 -0.2794
 7704TIP3    H147307   6.803   1.390   2.288 -2.1263 -0.9818  0.1486
 7704TIP3    H247308   6.858   1.416   2.426 -1.3557 -2.7357  0.2030
 7705TIP3   OH247309   1.245   2.056   3.268 -0.1918  0.0225  0.0872
 7705TIP3    H147310   1.279   1.966   3.264  0.6616  0.3603 -0.9855
 7705TIP3    H247311   1.228   2.071   3.361  1.3466 -0.6447  0.5170
 7706TIP3   OH247312   0.368   6.656   2.036  0.0383 -0.0349  0.4914
 7706TIP3    H147313   0.310   6.620   2.103  0.8441 -0.3597  1.0241
 7706TIP3    H247314   0.441   6.694   2.085  0.2355  0.4493 -0.1667
 7707TIP3   OH247315   4.601   4.483   3.241 -0.0692  0.2415 -0.3689
 7707TIP3    H147316   4.541   4.558   3.252  0.2768  0.5792 -0.7460
 7707TIP3    H247317   4.577   4.446   3.156 -1.4920 -1.2334  0.6059
 7708TIP3   OH247318   2.148   4.786   0.744  0.3743  0.8298 -0.0831
 7708TIP3    H147319   2.165   4.762   0.652  1.8802 -0.4035  0.4676
 7708TIP3    H247320   2.152   4.881   0.745 -0.2325  0.9023 -1.3832
 7709TIP3   OH247321   6.794   0.465   0.947 -0.1535 -0.3964 -0.0185
 7709TIP3    H147322   6.794   0.398   1.015 -1.3828  0.7466  1.1769
 7709TIP3    H247323   6.833   0.423   0.871  0.0615 -2.1230  1.0073
 7710TIP3   OH247324   7.241   1.670   1.790 -0.4421 -0.8493  0.1702
 7710TIP3    H147325   7.337   1.673   1.790 -0.4392 -0.1498  1.5303
 7710TIP3    H247326   7.217   1.674   1.883 -1.7546 -3.0421  0.0140
 7711TIP3   OH247327   1.243   1.676   0.802  0.1494 -0.0422  0.0305
 7711TIP3    H147328   1.261   1.759   0.846  0.0070  0.0553 -0.0920
 7711TIP3    H247329   1.252   1.696   0.709  3.5922 -0.9553  0.0337
 7712TIP3   OH247330   6.442   5.395   0.884 -0.1278  0.8107 -0.6021
 7712TIP3    H147331   6.392   5.365   0.809  0.2034 -0.3421 -0.3765
 7712TIP3    H247332   6.451   5.490   0.871 -1.3179  0.8532 -1.2531
 7713TIP3   OH247333   6.382   1.091   3.068 -0.1875 -0.0594 -0.2737
 7713TIP3    H147334   6.376   1.101   2.973 -0.3816 -1.9539 -0.5004
 7713TIP3    H247335   6.459   1.143   3.093 -0.4199  0.8530 -1.3818
 7714TIP3   OH247336   7.021   5.579   2.053 -0.5816 -0.5754  0.1347
 7714TIP3    H147337   7.036   5.536   2.137 -1.6481 -1.4159 -0.0776
 7714TIP3    H247338   6.926   5.582   2.044 -0.5466  1.5111 -0.0491
 7715TIP3   OH247339   4.265   1.624   0.802 -0.0843  0.9804  0.6092
 7715TIP3    H147340   4.205   1.590   0.868 -0.4963  0.3837 -0.0588
 7715TIP3    H247341   4.262   1.719   0.814 -0.7621  0.9271  0.9233
 7716TIP3   OH247342   4.730   3.897   1.294 -0.0586 -0.0394 -0.0584
 7716TIP3    H147343   4.657   3.948   1.260 -0.1847  0.6855  1.2141
 7716TIP3    H247344   4.779   3.869   1.217 -0.8261  0.7521 -0.8521
 7717TIP3   OH247345   3.943   5.745   1.252 -0.1320  0.4973 -0.1070
 7717TIP3    H147346   3.879   5.678   1.228  0.1775  0.4139 -0.7096
 7717TIP3    H247347   3.941   5.748   1.347  1.0540 -1.5399  0.0230
 7718TIP3   OH247348   7.505   4.618   2.022  0.0102  0.1352 -0.1585
 7718TIP3    H147349   7.442   4.554   1.989  0.9425 -0.1636 -1.4641
 7718TIP3    H247350   7.452   4.695   2.043 -1.2495 -1.2718  2.2167
 7719TIP3   OH247351   7.450   4.148   0.770 -0.0790  0.1714 -0.2099
 7719TIP3    H147352   7.494   4.175   0.689  0.9732 -0.5341  0.1008
 7719TIP3    H247353   7.468   4.054   0.777 -0.1887  0.2131  0.8088
 7720TIP3   OH247354   1.428   3.043   1.644 -0.0956  0.2791 -0.5798
 7720TIP3    H147355   1.487   3.012   1.714  0.5719  0.5021 -1.0343
 7720TIP3    H247356   1.487   3.072   1.575 -0.7082  1.8852 -0.4680
 7721TIP3   OH247357   5.487   6.361   2.793  0.2722 -0.3140  0.2140
 7721TIP3    H147358   5.439   6.418   2.734 -0.5552  0.6994  1.7806
 7721TIP3    H247359   5.579   6.369   2.767  0.2798  2.3263  0.8061
 7722TIP3   OH247360   0.553   6.867   1.420  0.7399  0.0805 -0.0528
 7722TIP3    H147361   0.524   6.800   1.481  0.6194  0.0389 -0.1574
 7722TIP3    H247362   0.618   6.918   1.469  3.2874 -2.0683 -0.9374
 7723TIP3   OH247363   4.577   6.980   1.540 -0.4675 -0.3840 -0.7921
 7723TIP3    H147364   4.484   6.960   1.525 -0.5517  0.2410 -1.1164
 7723TIP3    H247365   4.582   7.075   1.538  0.3182 -0.4225 -1.6435
 7724TIP3   OH247366   3.000   5.738   1.835 -0.1141 -0.0623 -0.4893
 7724TIP3    H147367   3.049   5.819   1.819  1.0860 -0.8027 -0.7651
 7724TIP3    H247368   3.068   5.670   1.840 -1.1746 -1.2876 -1.8602
 7725TIP3   OH247369   0.412   0.583   0.749  0.2058  0.7296 -0.1612
 7725TIP3    H147370   0.466   0.506   0.729  1.1093  1.2241  0.2726
 7725TIP3    H247371   0.453   0.654   0.699  0.6087  1.3293  0.9839
 7726TIP3   OH247372   3.666   2.172   0.808  0.2203 -0.1165  0.3712
 7726TIP3    H147373   3.649   2.082   0.838  1.5360 -1.1797 -1.8265
 7726TIP3    H247374   3.746   2.165   0.756 -0.2313  2.1504 -0.7485
 7727TIP3   OH247375   4.852   5.711   1.445  0.0515  0.6035  0.2125
 7727TIP3    H147376   4.759   5.731   1.457 -0.1634  0.8073 -1.5300
 7727TIP3    H247377   4.873   5.748   1.359  1.4792 -0.3676  0.1209
 7728TIP3   OH247378   6.319   5.307   0.665  0.3451  0.1675  0.1977
 7728TIP3    H147379   6.285   5.218   0.655 -1.2303  0.8967 -1.3937
 7728TIP3    H247380   6.245   5.364   0.647  1.1935  1.8513  1.6829
 7729TIP3   OH247381   5.904   6.374   1.774 -0.1811 -0.4187  0.0354
 7729TIP3    H147382   5.985   6.338   1.811  0.8501  0.3897 -1.3372
 7729TIP3    H247383   5.868   6.428   1.844  1.7075  1.0719 -0.0489
 7730TIP3   OH247384   2.211   2.402   1.348  0.8371  0.0418 -0.6043
 7730TIP3    H147385   2.271   2.459   1.301  0.3554 -0.8284 -2.3799
 7730TIP3    H247386   2.139   2.388   1.286  0.5264 -1.7604  0.1189
 7731TIP3   OH247387   7.031   3.896   2.610  0.4746  0.2412 -0.0542
 7731TIP3    H147388   7.095   3.827   2.595  1.6238  1.2467  0.0803
 7731TIP3    H247389   6.998   3.879   2.698  0.7241 -0.1518 -0.0321
 7732TIP3   OH247390   0.751   2.374   2.628  0.0611 -0.3729 -0.4695
 7732TIP3    H147391   0.710   2.455   2.598 -2.0207 -0.6330  1.3828
 7732TIP3    H247392   0.708   2.355   2.712  0.5246 -3.3478 -0.7812
 7733TIP3   OH247393   0.361   3.147   1.761  0.0023  0.3780  0.5661
 7733TIP3    H147394   0.346   3.172   1.852 -0.0341 -1.5071  1.1226
 7733TIP3    H247395   0.457   3.148   1.751 -0.0126  1.2302  0.4020
 7734TIP3   OH247396   0.295   7.481   2.482  0.3218 -0.0627  0.1975
 7734TIP3    H147397   0.215   7.499   2.531  0.5235 -0.7545  0.7776
 7734TIP3    H247398   0.353   7.436   2.543  1.5308  1.2390  0.0800
 7735TIP3   OH247399   3.135   0.739   2.699  0.0203  0.1024  0.4942
 7735TIP3    H147400   3.152   0.833   2.690  2.4440 -0.4323 -1.8578
 7735TIP3    H247401   3.218   0.702   2.728 -0.3269 -1.5153 -0.4422
 7736TIP3   OH247402   1.960   1.808   2.860 -0.2066 -0.3079 -0.8492
 7736TIP3    H147403   1.916   1.805   2.945  0.4152 -0.7753 -0.5315
 7736TIP3    H247404   1.889   1.817   2.797 -0.6073  1.3295 -0.2173
 7737TIP3   OH247405   2.838   4.172   2.421 -0.3247 -0.0434 -0.3112
 7737TIP3    H147406   2.905   4.145   2.359 -1.9321  0.3987 -2.3390
 7737TIP3    H247407   2.762   4.116   2.402 -0.9574  0.2550  1.1199
 7738TIP3   OH247408   0.602   1.245   2.567  0.3384 -0.2010  0.6907
 7738TIP3    H147409   0.522   1.192   2.568  1.1359 -1.4678  1.5819
 7738TIP3    H247410   0.635   1.239   2.657  0.5055  1.7950  0.7895
 7739TIP3   OH247411   2.982   6.432   0.731 -0.0211 -0.4850 -0.4987
 7739TIP3    H147412   2.999   6.513   0.682 -0.2357 -0.9805 -1.3980
 7739TIP3    H247413   2.909   6.455   0.789  0.0756  0.0339 -0.5708
 7740TIP3   OH247414   4.012   3.530   2.649  0.2649 -0.1000  0.2780
 7740TIP3    H147415   3.966   3.531   2.733  0.8669  0.9725  0.6201
 7740TIP3    H247416   3.953   3.573   2.588  0.7517  1.2324  0.7045
 7741TIP3   OH247417   0.853   2.818   3.075 -0.6832  0.2660  0.4389
 7741TIP3    H147418   0.895   2.903   3.087  0.4723 -0.0477 -1.0737
 7741TIP3    H247419   0.761   2.839   3.061 -0.0397  1.5898 -2.6629
 7742TIP3   OH247420   0.627   2.869   2.784 -0.2153  0.0671 -0.0454
 7742TIP3    H147421   0.635   2.774   2.770 -0.8784 -0.1127  0.7218
 7742TIP3    H247422   0.623   2.879   2.879  1.3708  1.0072 -0.0418
 7743TIP3   OH247423   5.233   1.365   2.476  0.3914 -0.5408 -0.2586
 7743TIP3    H147424   5.177   1.301   2.432  0.7476 -1.2563  0.3183
 7743TIP3    H247425   5.318   1.323   2.482  0.6819  0.0702 -0.0520
 7744TIP3   OH247426   0.247   4.509   2.554 -0.2046  0.5798  0.0816
 7744TIP3    H147427   0.250   4.604   2.545 -1.5194  0.7145  0.7965
 7744TIP3    H247428   0.163   4.484   2.515  0.2981 -0.3357 -0.4287
 7745TIP3   OH247429   1.041   1.669   1.761 -0.2554 -0.5200 -0.4258
 7745TIP3    H147430   0.973   1.736   1.765 -0.4724 -0.7486 -0.2283
 7745TIP3    H247431   1.005   1.595   1.810  0.8581  0.0031  1.3054
 7746TIP3   OH247432   0.343   1.292   1.182 -0.7891  0.3920  0.1664
 7746TIP3    H147433   0.291   1.360   1.139  0.8465  0.7807 -1.3712
 7746TIP3    H247434   0.414   1.274   1.119  1.0680  0.1129  2.2105
 7747TIP3   OH247435   5.933   3.721   3.126 -0.0493 -0.7796  0.2054
 7747TIP3    H147436   5.849   3.761   3.102  0.2748  0.5226  1.1680
 7747TIP3    H247437   5.925   3.631   3.095 -0.4457  0.2039 -2.8570
 7748TIP3   OH247438   1.894   3.217   1.248 -0.2039 -0.1319  0.2841
 7748TIP3    H147439   1.850   3.301   1.259  1.5040  0.9318 -0.5744
 7748TIP3    H247440   1.979   3.229   1.291  0.4418 -1.0697 -0.6884
 7749TIP3   OH247441   0.175   6.387   2.605  0.1681  0.2778  0.0178
 7749TIP3    H147442   0.113   6.316   2.591  0.6811 -0.8577  2.8364
 7749TIP3    H247443   0.121   6.466   2.604 -0.8031 -0.3661 -0.6958
 7750TIP3   OH247444   5.557   1.800   2.582 -0.0538  0.0450 -0.3739
 7750TIP3    H147445   5.501   1.722   2.578  0.5957 -0.5160  0.7841
 7750TIP3    H247446   5.523   1.850   2.657  0.9495 -0.2874  0.3280
 7751TIP3   OH247447   7.116   3.877   1.368 -0.6169 -0.1568 -0.1358
 7751TIP3    H147448   7.024   3.901   1.355 -0.5727  1.0056  1.4149
 7751TIP3    H247449   7.150   3.945   1.427  0.7593 -1.5731  0.7578
 7752TIP3   OH247450   7.236   7.329   2.058 -0.1120  0.2051 -0.5273
 7752TIP3    H147451   7.282   7.409   2.034  0.4657  0.3414  0.8909
 7752TIP3    H247452   7.301   7.260   2.048  0.3759  0.3541  1.1492
 7753TIP3   OH247453   7.103   3.228   0.481  0.0175  0.8638 -0.3794
 7753TIP3    H147454   7.012   3.257   0.491 -0.6675 -1.0813 -0.4871
 7753TIP3    H247455   7.098   3.133   0.490  2.2090  0.8027  0.7406
 7754TIP3   OH247456   1.617   2.623   1.301  0.1418  0.5465  0.1442
 7754TIP3    H147457   1.524   2.603   1.287  0.8222 -1.7884 -1.6138
 7754TIP3    H247458   1.645   2.666   1.220  0.8556  0.1359  0.1632
 7755TIP3   OH247459   5.845   0.137   2.375  0.3628 -0.5170 -0.0849
 7755TIP3    H147460   5.843   0.221   2.421  0.7879 -0.2602 -0.5241
 7755TIP3    H247461   5.757   0.126   2.340  1.0542  1.3257 -2.7718
 7756TIP3   OH247462   0.508   5.721   1.256  0.4720  0.4149 -0.8044
 7756TIP3    H147463   0.419   5.689   1.272  1.2866 -1.2007  0.7250
 7756TIP3    H247464   0.510   5.808   1.297  0.2862 -0.5571  1.3736
 7757TIP3   OH247465   1.737   6.977   3.236  0.2660 -0.4335  0.5082
 7757TIP3    H147466   1.820   6.930   3.234 -0.0323 -1.1091  2.2770
 7757TIP3    H247467   1.757   7.062   3.275  0.1610 -0.5545  0.8332
 7758TIP3   OH247468   3.426   4.928   0.524 -0.0773  0.0556 -0.2493
 7758TIP3    H147469   3.406   4.897   0.435 -1.1668 -1.0658  0.3640
 7758TIP3    H247470   3.505   4.879   0.549 -2.1471 -2.9361  0.9684
 7759TIP3   OH247471   0.822   6.493   2.692 -0.1012  0.0328 -0.0681
 7759TIP3    H147472   0.881   6.491   2.768 -0.3922 -1.0602  0.1409
 7759TIP3    H247473   0.739   6.524   2.728 -0.0389  0.2228 -0.0866
 7760TIP3   OH247474   0.227   1.467   1.405 -0.8431  0.0388 -0.3913
 7760TIP3    H147475   0.174   1.523   1.463 -2.4483 -0.6718 -1.1100
 7760TIP3    H247476   0.288   1.423   1.464 -1.3950  0.4895  0.5493
 7761TIP3   OH247477   7.581   2.783   0.638  0.2674 -0.4562  0.5392
 7761TIP3    H147478   7.610   2.711   0.582  0.7181  0.3488 -0.2872
 7761TIP3    H247479   7.573   2.858   0.578 -1.4728 -0.1268  1.1245
 7762TIP3   OH247480   5.902   1.084   2.272  0.0684 -0.4430 -0.6062
 7762TIP3    H147481   5.872   1.099   2.183 -0.8161  2.6005  0.0993
 7762TIP3    H247482   5.861   1.001   2.298 -1.5883 -0.1871 -2.2229
 7763TIP3   OH247483   2.356   2.230   1.513 -0.2647 -0.5223  0.1989
 7763TIP3    H147484   2.318   2.316   1.530  1.6238 -0.0748  2.7306
 7763TIP3    H247485   2.370   2.228   1.418  0.6444  2.4335  0.1741
 7764TIP3   OH247486   0.522   2.124   0.636  0.2389 -0.3367 -0.5384
 7764TIP3    H147487   0.581   2.120   0.560 -1.6393 -0.9569 -2.0468
 7764TIP3    H247488   0.500   2.216   0.644 -0.5606 -0.4005 -1.6360
 7765TIP3   OH247489   7.552   5.041   0.813  0.2994  0.4060 -0.3486
 7765TIP3    H147490   7.563   5.017   0.721 -0.4720  0.1422 -0.3859
 7765TIP3    H247491   7.640   5.036   0.851  0.5480  0.0662 -0.9669
 7766TIP3   OH247492   0.174   3.407   2.196 -0.3373 -0.2587  0.1808
 7766TIP3    H147493   0.159   3.345   2.266  1.7972 -0.1988  0.7690
 7766TIP3    H247494   0.210   3.355   2.124 -0.5295 -0.0170 -0.0966
 7767TIP3   OH247495   1.246   6.243   0.624 -0.0146 -0.0438  0.0863
 7767TIP3    H147496   1.230   6.328   0.585 -1.1395 -0.4806 -0.4210
 7767TIP3    H247497   1.170   6.191   0.602 -0.3290 -0.5577  2.1651
 7768TIP3   OH247498   1.148   4.883   2.997  0.0293  0.1249  0.1647
 7768TIP3    H147499   1.066   4.933   2.992 -0.9986 -1.3959  0.9285
 7768TIP3    H247500   1.167   4.858   2.907 -0.2441  0.6494 -0.0415
 7769TIP3   OH247501   2.520   1.501   1.464  0.1473 -0.1612  0.2086
 7769TIP3    H147502   2.485   1.417   1.494  0.1900 -0.3060 -0.1371
 7769TIP3    H247503   2.512   1.559   1.539  0.0645 -0.4610  0.4333
 7770TIP3   OH247504   5.930   2.968   2.455  0.1742 -0.2299 -0.1142
 7770TIP3    H147505   5.969   3.034   2.398  1.5134 -1.3302 -0.5277
 7770TIP3    H247506   5.905   3.016   2.534  0.5120  0.8722 -0.6593
 7771TIP3   OH247507   4.868   1.056   3.135 -0.6671 -0.3753 -0.2438
 7771TIP3    H147508   4.954   1.096   3.125 -0.6021 -0.6622 -0.8900
 7771TIP3    H247509   4.880   0.965   3.106 -0.7194 -0.9874  1.5685
 7772TIP3   OH247510   6.887   2.773   2.088  0.2335  0.0472  0.0139
 7772TIP3    H147511   6.829   2.808   2.156  0.3636  0.1155  0.0898
 7772TIP3    H247512   6.974   2.773   2.128  0.1136 -1.1471  0.3061
 7773TIP3   OH247513   6.847   6.015   2.674 -0.2719  0.0880  0.1850
 7773TIP3    H147514   6.883   5.934   2.638 -1.7861 -0.8772  0.7367
 7773TIP3    H247515   6.913   6.082   2.654 -0.1534 -0.7462 -2.6426
 7774TIP3   OH247516   5.993   7.671   0.605  0.4344 -0.0511 -0.1381
 7774TIP3    H147517   5.963   7.603   0.666 -0.1470 -0.0024 -0.3602
 7774TIP3    H247518   5.996   7.627   0.520  3.7502 -0.8657  0.2426
 7775TIP3   OH247519   3.902   0.858   0.490  0.0012 -0.2971  0.1169
 7775TIP3    H147520   3.889   0.777   0.539  0.0037 -0.2776  0.1493
 7775TIP3    H247521   3.814   0.897   0.484 -0.4920 -1.5712 -2.0979
 7776TIP3   OH247522   2.606   2.057   1.580  0.0289 -0.3242  0.7067
 7776TIP3    H147523   2.607   2.003   1.501 -0.4029  0.4975  0.1225
 7776TIP3    H247524   2.528   2.111   1.570  1.5196  1.8637  0.2615
 7777TIP3   OH247525   7.490   3.761   3.284 -0.6111  0.1371 -0.2053
 7777TIP3    H147526   7.408   3.772   3.331  0.7266  0.3453  2.2213
 7777TIP3    H247527   7.506   3.666   3.286 -0.3920  0.1785  0.0701
 7778TIP3   OH247528   2.856   5.041   1.986 -0.3251 -0.5322 -0.4275
 7778TIP3    H147529   2.786   5.020   1.924 -1.7376  2.4768 -0.0239
 7778TIP3    H247530   2.829   4.998   2.067  0.1305 -2.2096 -1.1163
 7779TIP3   OH247531   0.287   4.422   1.891  0.1129 -0.5831 -0.2045
 7779TIP3    H147532   0.244   4.347   1.850  1.4751 -1.6983  0.2991
 7779TIP3    H247533   0.257   4.498   1.841 -1.3339 -1.4486 -0.7117
 7780TIP3   OH247534   5.781   2.099   2.273 -0.3319  0.2439  0.0007
 7780TIP3    H147535   5.846   2.030   2.262 -1.4729 -0.9989  0.6995
 7780TIP3    H247536   5.697   2.053   2.272 -1.0985  1.5527  1.0248
 7781TIP3   OH247537   1.389   4.671   1.775 -0.4002  1.0805  0.5540
 7781TIP3    H147538   1.300   4.680   1.740 -0.1792  0.4146 -0.2096
 7781TIP3    H247539   1.382   4.603   1.842 -0.2326  0.0908 -0.4114
 7782TIP3   OH247540   3.092   2.624   2.191  0.0295 -0.0564  0.5319
 7782TIP3    H147541   3.165   2.660   2.240  0.7840 -2.4662  1.3271
 7782TIP3    H247542   3.111   2.646   2.100  1.1225  0.3543  0.8408
 7783TIP3   OH247543   5.235   1.327   2.052 -0.4754  0.4367  0.4611
 7783TIP3    H147544   5.260   1.306   1.961  1.4841 -1.1226  1.2822
 7783TIP3    H247545   5.139   1.323   2.051 -0.4729 -0.8751 -1.2719
 7784TIP3   OH247546   4.785   5.510   0.484 -0.0249  0.0069  0.2368
 7784TIP3    H147547   4.855   5.446   0.471 -0.4027 -0.1553 -1.1239
 7784TIP3    H247548   4.705   5.465   0.458 -0.5337  0.4584  0.9796
 7785TIP3   OH247549   5.198   0.980   1.731  0.2064 -0.3934 -0.0840
 7785TIP3    H147550   5.270   0.926   1.699  0.5831  0.0174  0.0593
 7785TIP3    H247551   5.232   1.019   1.812  0.7477  1.7789 -1.3092
 7786TIP3   OH247552   3.804   4.141   3.460  0.0216 -0.3281 -0.2950
 7786TIP3    H147553   3.816   4.225   3.505 -1.7611  0.3912 -1.0659
 7786TIP3    H247554   3.765   4.165   3.376  0.5425 -1.8732 -1.0089
 7787TIP3   OH247555   5.105   7.050   1.662 -0.1524  0.4107  0.6408
 7787TIP3    H147556   5.016   7.025   1.686  0.1537  0.3336  1.7501
 7787TIP3    H247557   5.138   6.976   1.612 -0.1145 -0.3365  1.7424
 7788TIP3   OH247558   6.579   3.367   1.130  0.3764 -0.1684 -0.7730
 7788TIP3    H147559   6.528   3.344   1.207 -0.4473  0.0260 -1.2411
 7788TIP3    H247560   6.566   3.461   1.120  0.5776 -0.1722 -1.0680
 7789TIP3   OH247561   3.810   7.283   2.999 -0.2155  0.4986 -0.7971
 7789TIP3    H147562   3.732   7.310   2.951 -1.8572 -1.1187  0.7807
 7789TIP3    H247563   3.847   7.365   3.033 -2.2856  1.1816 -0.0847
 7790TIP3   OH247564   4.256   7.477   1.347 -0.2914 -0.2356 -0.4831
 7790TIP3    H147565   4.301   7.550   1.306  1.4295 -1.4412 -0.8516
 7790TIP3    H247566   4.232   7.508   1.434 -1.8419  1.5578 -1.4767
 7791TIP3   OH247567   2.334   0.512   2.544  0.5311 -0.4289  0.4388
 7791TIP3    H147568   2.287   0.460   2.610  1.9017 -1.4381  0.6830
 7791TIP3    H247569   2.422   0.474   2.543  0.5300 -0.5371 -2.0707
 7792TIP3   OH247570   3.450   4.923   2.122  0.1295  0.2678 -0.1647
 7792TIP3    H147571   3.453   4.829   2.140  1.1559 -0.0177 -1.6463
 7792TIP3    H247572   3.519   4.960   2.176 -1.9198  0.6256  2.4410
 7793TIP3   OH247573   0.447   1.586   2.348  0.3140  0.0054  0.3524
 7793TIP3    H147574   0.532   1.629   2.347 -0.1359  0.9140 -0.7526
 7793TIP3    H247575   0.432   1.565   2.440  0.3997  2.5545  1.0324
 7794TIP3   OH247576   4.294   0.130   0.739  0.1147  0.4767  0.0633
 7794TIP3    H147577   4.245   0.166   0.813 -1.3579 -1.0373 -0.1248
 7794TIP3    H247578   4.246   0.160   0.662 -0.4202 -0.8202 -0.1288
 7795TIP3   OH247579   5.735   1.051   3.081 -0.2627 -0.7226  0.2010
 7795TIP3    H147580   5.715   0.959   3.071 -0.1095 -0.7727  0.3402
 7795TIP3    H247581   5.808   1.067   3.020 -0.7474 -0.5327 -0.3344
 7796TIP3   OH247582   4.641   1.158   1.688  0.2450  0.3025 -0.0369
 7796TIP3    H147583   4.611   1.069   1.705  1.4319 -0.4413 -1.5551
 7796TIP3    H247584   4.643   1.200   1.774 -0.2809 -1.1526  0.7122
 7797TIP3   OH247585   0.882   7.159   3.102  0.6277 -0.3108  0.1534
 7797TIP3    H147586   0.846   7.229   3.047  2.0734 -0.6656 -1.3111
 7797TIP3    H247587   0.837   7.080   3.071  2.2168 -0.6819 -1.3566
 7798TIP3   OH247588   5.441   4.671   0.362  0.4252 -0.5306  0.4136
 7798TIP3    H147589   5.474   4.741   0.418  1.0087  0.5115 -1.1629
 7798TIP3    H247590   5.471   4.694   0.275 -1.9568 -1.1177 -0.6552
 7799TIP3   OH247591   6.150   2.645   0.919 -0.0700 -0.8819 -0.0324
 7799TIP3    H147592   6.129   2.644   0.826  0.5173  0.4441 -0.2078
 7799TIP3    H247593   6.084   2.590   0.960 -2.2038  0.9133 -0.8822
 7800TIP3   OH247594   2.164   4.214   1.296 -0.3049  0.3720 -0.2879
 7800TIP3    H147595   2.168   4.306   1.320  0.4634  0.7404 -1.7172
 7800TIP3    H247596   2.199   4.168   1.372 -1.8223  1.1381  0.9210
 7801TIP3   OH247597   7.233   3.283   0.966 -0.0060 -0.2684 -0.3015
 7801TIP3    H147598   7.325   3.277   0.990  0.1880 -0.8360 -1.1425
 7801TIP3    H247599   7.230   3.261   0.873 -1.0793 -1.1183 -0.1044
 7802TIP3   OH247600   3.837   5.637   0.389  0.2860  0.0678 -0.1578
 7802TIP3    H147601   3.831   5.700   0.461 -0.8956 -0.4447  0.2164
 7802TIP3    H247602   3.746   5.616   0.367  0.5174  1.6302 -3.1287
 7803TIP3   OH247603   2.861   4.862   1.703  0.2594 -0.1445  0.3643
 7803TIP3    H147604   2.953   4.872   1.680  0.3300  2.0920  1.3703
 7803TIP3    H247605   2.813   4.886   1.623  0.5520  1.4744  0.6524
 7804TIP3   OH247606   2.297   1.254   0.708 -0.0705  0.2114  0.3918
 7804TIP3    H147607   2.238   1.330   0.710 -0.3939  0.1311 -2.4324
 7804TIP3    H247608   2.385   1.292   0.718 -0.1256  1.1879 -2.1428
 7805TIP3   OH247609   5.986   4.658   3.048 -0.0544 -0.1993  0.4308
 7805TIP3    H147610   5.908   4.713   3.034  0.7539  0.7494 -0.4892
 7805TIP3    H247611   6.004   4.666   3.142  0.2258  1.3834  0.2692
 7806TIP3   OH247612   2.167   5.051   0.770  0.4941  0.2679  0.5061
 7806TIP3    H147613   2.149   5.108   0.845 -0.8650 -0.3873  0.7049
 7806TIP3    H247614   2.081   5.033   0.732  1.0498 -0.3791 -0.5005
 7807TIP3   OH247615   4.905   6.606   1.538  0.0441  0.2512  0.2312
 7807TIP3    H147616   4.819   6.643   1.554 -0.2487  0.0095 -0.7185
 7807TIP3    H247617   4.929   6.638   1.451  0.4269 -0.5680  0.0259
 7808TIP3   OH247618   4.684   2.961   0.882  0.4474 -0.5297  0.1226
 7808TIP3    H147619   4.595   2.991   0.861  0.0062 -1.8893 -0.0387
 7808TIP3    H247620   4.722   3.033   0.931 -0.4299  0.4538 -0.5834
 7809TIP3   OH247621   7.251   1.255   0.707  0.6907  0.9927 -0.3408
 7809TIP3    H147622   7.316   1.308   0.661  1.5537 -0.1552 -0.4835
 7809TIP3    H247623   7.243   1.176   0.654 -0.2492  0.7803  0.0978
 7810TIP3   OH247624   6.709   3.656   2.408  0.2246 -0.4049 -0.2789
 7810TIP3    H147625   6.728   3.750   2.404  0.1941 -0.2517  2.0980
 7810TIP3    H247626   6.794   3.614   2.401  0.2724 -0.2090 -0.9924
 7811TIP3   OH247627   4.922   0.914   1.762 -0.4978  0.0425  0.1865
 7811TIP3    H147628   4.909   0.868   1.679  0.2385  1.9846 -1.0769
 7811TIP3    H247629   5.016   0.931   1.765 -0.4174 -0.4995  1.7411
 7812TIP3   OH247630   5.789   3.371   1.948  0.0192 -0.0610 -0.1560
 7812TIP3    H147631   5.854   3.440   1.956  1.4640 -1.5447  1.5839
 7812TIP3    H247632   5.725   3.390   2.016 -0.7163  0.6590 -1.0154
 7813TIP3   OH247633   4.852   6.660   3.502  0.2213  0.2810 -0.8690
 7813TIP3    H147634   4.781   6.718   3.474 -1.3224 -0.9159  0.3061
 7813TIP3    H247635   4.914   6.717   3.546  0.2676  1.4418 -2.3655
 7814TIP3   OH247636   3.709   1.942   1.156 -0.1263 -0.3416 -0.3118
 7814TIP3    H147637   3.673   1.906   1.075 -1.2312 -2.1112  0.8624
 7814TIP3    H247638   3.650   1.908   1.224 -0.1693  2.3604  1.1120
 7815TIP3   OH247639   5.601   6.675   2.161  0.0701 -0.3771 -0.0427
 7815TIP3    H147640   5.560   6.612   2.219  0.7055 -0.5639  0.2193
 7815TIP3    H247641   5.670   6.715   2.215  0.0895  0.0851 -0.3993
 7816TIP3   OH247642   4.020   2.059   0.866 -0.3198 -0.1079 -0.7706
 7816TIP3    H147643   4.002   2.022   0.952  0.9333  0.0541 -0.4272
 7816TIP3    H247644   4.057   2.145   0.883  0.0374 -0.1133 -1.4634
 7817TIP3   OH247645   5.215   7.130   1.240  0.1026  1.1412 -0.2907
 7817TIP3    H147646   5.134   7.110   1.287 -0.8589  2.4386 -1.3405
 7817TIP3    H247647   5.268   7.051   1.251 -2.1286 -0.6306 -1.3755
 7818TIP3   OH247648   6.592   6.033   0.856  0.2123 -0.3856  0.0802
 7818TIP3    H147649   6.594   6.109   0.798  0.1849  0.3411  1.0136
 7818TIP3    H247650   6.679   6.032   0.896  0.3603 -1.1059 -0.2492
 7819TIP3   OH247651   4.256   5.340   3.244  0.6041  0.0734 -0.0122
 7819TIP3    H147652   4.182   5.401   3.238  0.4471 -0.2116 -1.5750
 7819TIP3    H247653   4.326   5.391   3.285  0.5743  1.4573 -1.5543
 7820TIP3   OH247654   1.292   5.403   1.546 -0.5726  0.0976  0.2312
 7820TIP3    H147655   1.387   5.405   1.537 -0.3534 -1.0760  1.8463
 7820TIP3    H247656   1.276   5.417   1.640 -1.9726 -0.0274  0.0447
 7821TIP3   OH247657   6.198   4.595   1.744  0.3780  0.8103  0.2713
 7821TIP3    H147658   6.255   4.663   1.781 -0.5864  2.1565 -0.5826
 7821TIP3    H247659   6.208   4.605   1.649 -0.6773  0.5718  0.1189
 7822TIP3   OH247660   5.578   1.273   2.369 -0.2440  0.0869  0.0323
 7822TIP3    H147661   5.615   1.307   2.288  1.4324 -0.6302  0.4362
 7822TIP3    H247662   5.529   1.195   2.343 -1.2284  0.8678 -0.4860
 7823TIP3   OH247663   4.490   1.634   0.963  0.5314  0.3950 -0.2878
 7823TIP3    H147664   4.410   1.632   0.911  0.9533  0.5103 -0.9455
 7823TIP3    H247665   4.521   1.543   0.963 -0.2925  0.0774  1.0806
 7824TIP3   OH247666   4.402   5.505   1.961  0.3046  0.2806  0.1928
 7824TIP3    H147667   4.443   5.578   2.007 -0.1657  0.4669  0.3294
 7824TIP3    H247668   4.354   5.546   1.889  2.3504 -0.1383 -1.4960
 7825TIP3   OH247669   0.695   1.571   2.696 -0.3934 -0.1263 -0.2017
 7825TIP3    H147670   0.681   1.537   2.784 -0.6992  0.9167  0.1614
 7825TIP3    H247671   0.668   1.663   2.700 -0.5136 -0.0865 -1.4075
 7826TIP3   OH247672   6.338   4.053   0.783 -0.1849 -0.2335  0.1719
 7826TIP3    H147673   6.302   4.051   0.872  0.1596 -0.7503  0.3054
 7826TIP3    H247674   6.313   4.139   0.749  0.1896  0.2067  0.9771
 7827TIP3   OH247675   6.056   0.960   2.493 -0.6736 -0.0025 -0.1505
 7827TIP3    H147676   6.014   1.019   2.556  1.5684  1.2752  0.2290
 7827TIP3    H247677   6.059   1.011   2.412 -0.6255 -0.4146 -0.4072
 7828TIP3   OH247678   1.339   3.458   1.065  0.6670  0.1138 -0.6729
 7828TIP3    H147679   1.358   3.549   1.044  0.2916  0.4472  0.3625
 7828TIP3    H247680   1.245   3.456   1.084  0.9596 -0.1614  0.8532
 7829TIP3   OH247681   4.701   3.804   3.325  0.2629  0.1624 -0.5267
 7829TIP3    H147682   4.702   3.709   3.335 -0.3618  0.1580 -0.4884
 7829TIP3    H247683   4.763   3.836   3.391  2.3812 -0.3508 -2.1572
 7830TIP3   OH247684   6.391   6.827   1.895 -0.3265  0.1850 -0.1246
 7830TIP3    H147685   6.317   6.772   1.922  0.6124 -1.5914 -1.0057
 7830TIP3    H247686   6.462   6.803   1.954 -0.2411  1.4435  0.3185
 7831TIP3   OH247687   6.821   6.081   1.787  0.0557 -0.6825  0.0041
 7831TIP3    H147688   6.811   6.019   1.715 -1.5719  1.0048 -1.3006
 7831TIP3    H247689   6.829   6.167   1.745 -1.7171  0.4511  1.7826
 7832TIP3   OH247690   2.471   3.675   0.661 -0.4974  0.0445  0.3939
 7832TIP3    H147691   2.397   3.735   0.667 -0.3506  0.1921  0.7901
 7832TIP3    H247692   2.513   3.681   0.747  1.0138  1.2903 -0.3844
 7833TIP3   OH247693   7.543   3.542   1.493  0.1593  0.3733  0.1042
 7833TIP3    H147694   7.492   3.557   1.572  0.7379  1.0766  0.3563
 7833TIP3    H247695   7.614   3.607   1.497  0.6558 -0.1057 -0.5883
 7834TIP3   OH247696   3.735   1.364   1.732 -0.0498 -0.1361 -0.1993
 7834TIP3    H147697   3.751   1.271   1.717  2.2871 -0.1270  1.5271
 7834TIP3    H247698   3.655   1.367   1.784  0.2834 -1.2514  0.4041
 7835TIP3   OH247699   2.111   3.336   2.974  0.0653  0.0127 -0.0034
 7835TIP3    H147700   2.072   3.248   2.971 -0.1875  0.1316 -0.3535
 7835TIP3    H247701   2.112   3.359   3.067 -1.9404  0.5393 -0.0580
 7836TIP3   OH247702   5.288   2.126   2.809 -0.1084 -0.2149 -0.6264
 7836TIP3    H147703   5.223   2.142   2.741 -0.0439  0.5488 -0.5204
 7836TIP3    H247704   5.263   2.184   2.880 -0.9248 -1.9176  0.5453
 7837TIP3   OH247705   1.880   1.672   1.087 -0.6374  0.4855  0.4762
 7837TIP3    H147706   1.848   1.735   1.022 -0.7301 -0.9154 -0.8946
 7837TIP3    H247707   1.928   1.725   1.151 -1.0345  1.9766 -0.4278
 7838TIP3   OH247708   7.144   2.528   2.825 -0.2099 -0.0222  0.4300
 7838TIP3    H147709   7.226   2.571   2.851 -0.7531  2.0391 -0.9778
 7838TIP3    H247710   7.137   2.453   2.883  1.4918  1.0770  2.2011
 7839TIP3   OH247711   2.418   5.788   2.445  0.0944 -0.1946 -0.5768
 7839TIP3    H147712   2.439   5.881   2.435  0.8241 -0.2071  0.6729
 7839TIP3    H247713   2.417   5.754   2.355  2.2996  0.4989 -0.9283
 7840TIP3   OH247714   1.067   0.299   1.700  0.0923  0.0810  0.2045
 7840TIP3    H147715   1.154   0.316   1.735 -0.1401  1.5043  0.1427
 7840TIP3    H247716   1.048   0.374   1.643 -1.4555  0.1840  0.7958
 7841TIP3   OH247717   1.698   6.531   1.861  0.2406  0.0748  0.2789
 7841TIP3    H147718   1.611   6.571   1.866 -0.2025 -0.8645  0.3610
 7841TIP3    H247719   1.692   6.470   1.787  0.4166 -0.9258  1.0713
 7842TIP3   OH247720   0.170   2.994   2.946  0.5380  0.1107  0.3617
 7842TIP3    H147721   0.242   2.976   3.006  0.7705  1.9357  0.6602
 7842TIP3    H247722   0.147   3.085   2.961 -2.9830 -0.8102  1.4610
 7843TIP3   OH247723   7.149   6.264   2.879  0.2653  0.2032 -0.7891
 7843TIP3    H147724   7.209   6.300   2.945  0.9227  0.9412 -1.7555
 7843TIP3    H247725   7.079   6.328   2.873 -0.9993 -0.9490  0.7755
 7844TIP3   OH247726   3.435   3.707   3.279  0.3176  0.4697 -0.4022
 7844TIP3    H147727   3.443   3.615   3.302  1.0012  0.3389 -1.1101
 7844TIP3    H247728   3.440   3.708   3.183 -1.3382  1.0909 -0.5117
 7845TIP3   OH247729   5.402   5.888   1.830 -0.2665  0.2282  0.4308
 7845TIP3    H147730   5.450   5.937   1.763  0.7790  2.4951  2.6707
 7845TIP3    H247731   5.469   5.861   1.893 -1.1029 -2.5413  0.2881
 7846TIP3   OH247732   3.695   3.922   2.791  0.2941 -0.0115 -0.2129
 7846TIP3    H147733   3.690   3.966   2.876  0.1311  0.5838 -0.5195
 7846TIP3    H247734   3.782   3.884   2.789  0.3378  0.0595  0.1803
 7847TIP3   OH247735   7.373   2.777   1.210  0.2396 -0.4539 -0.2066
 7847TIP3    H147736   7.346   2.835   1.139 -2.4594  0.3600  1.3017
 7847TIP3    H247737   7.426   2.833   1.268  0.6314 -0.5098 -0.5102
 7848TIP3   OH247738   5.278   4.704   2.196 -0.2414 -0.4931 -0.1568
 7848TIP3    H147739   5.203   4.749   2.236 -0.0731  0.2420 -0.6425
 7848TIP3    H247740   5.242   4.662   2.118 -0.2335 -0.4858 -0.1643
 7849TIP3   OH247741   6.349   6.315   0.549  0.4708 -0.1107  0.0100
 7849TIP3    H147742   6.418   6.338   0.486  2.6721 -0.7747  2.0278
 7849TIP3    H247743   6.342   6.219   0.541  0.1271 -0.0983  0.1681
 7850TIP3   OH247744   2.407   5.598   1.722  0.0261  0.5352  0.0718
 7850TIP3    H147745   2.407   5.690   1.698  0.0255  0.6783  0.6130
 7850TIP3    H247746   2.415   5.598   1.818 -1.4976  0.0142  0.2181
 7851TIP3   OH247747   0.065   5.021   1.589 -0.0403 -0.0227  0.3229
 7851TIP3    H147748   0.153   5.012   1.626  0.1354 -0.9764 -0.2875
 7851TIP3    H247749   0.033   5.103   1.624  0.8718  0.0533  1.0284
 7852TIP3   OH247750   5.945   2.066   1.302 -0.1060 -0.3517 -0.0184
 7852TIP3    H147751   5.928   2.068   1.208 -0.4564  0.1108  0.0514
 7852TIP3    H247752   5.860   2.078   1.343  0.0603 -0.4311  0.3599
 7853TIP3   OH247753   6.377   7.555   2.031 -0.2772 -0.1271 -0.6191
 7853TIP3    H147754   6.382   7.513   1.946 -3.5662 -0.1927 -0.9171
 7853TIP3    H247755   6.313   7.626   2.019  0.4968  1.0065  1.3788
 7854TIP3   OH247756   2.879   1.215   2.328  0.0264 -0.5721  0.4490
 7854TIP3    H147757   2.909   1.274   2.258  0.1671 -1.8347 -0.5942
 7854TIP3    H247758   2.804   1.260   2.366 -0.1944  0.0528 -0.6668
 7855TIP3   OH247759   3.945   0.076   1.886  0.5599 -0.0552  0.0274
 7855TIP3    H147760   3.858   0.054   1.919  0.2518  1.2306  0.1212
 7855TIP3    H247761   3.952   0.027   1.804 -0.5681  0.4179 -0.3744
 7856TIP3   OH247762   7.393   5.834   1.707  0.4172 -0.1599 -0.1024
 7856TIP3    H147763   7.466   5.873   1.755  0.6120 -0.4924 -0.1201
 7856TIP3    H247764   7.337   5.796   1.775  2.0669 -3.0360 -0.1852
 7857TIP3   OH247765   5.903   1.737   2.394  0.3556 -0.4137  0.5228
 7857TIP3    H147766   5.818   1.697   2.411  0.6273 -1.1852  0.1123
 7857TIP3    H247767   5.913   1.803   2.463  1.0680 -2.8194  2.8677
 7858TIP3   OH247768   1.089   6.975   3.072  0.9424 -0.4720  0.0774
 7858TIP3    H147769   1.014   7.035   3.075  1.3992  0.0871  0.9752
 7858TIP3    H247770   1.138   7.002   2.994  0.2644 -0.7750 -0.4550
 7859TIP3   OH247771   1.029   6.235   1.674 -0.5341 -0.3235  0.4452
 7859TIP3    H147772   0.937   6.210   1.679 -1.3375  2.5426  2.7678
 7859TIP3    H247773   1.069   6.193   1.750 -0.5000  0.3584  0.8110
 7860TIP3   OH247774   5.800   3.102   1.975  0.3305  0.2949  0.1750
 7860TIP3    H147775   5.788   3.193   1.948  2.0725  0.2607 -0.8581
 7860TIP3    H247776   5.889   3.099   2.009  0.5734 -1.1771 -0.5344
 7861TIP3   OH247777   5.264   7.618   1.465 -0.0362 -0.2618  0.2063
 7861TIP3    H147778   5.291   7.529   1.486  1.7838 -0.3028 -1.8525
 7861TIP3    H247779   5.329   7.674   1.509 -1.2305  0.1004  1.5774
 7862TIP3   OH247780   0.407   0.902   2.224 -0.2737 -0.2058  0.2805
 7862TIP3    H147781   0.354   0.972   2.186  1.4119  1.5172  0.9742
 7862TIP3    H247782   0.387   0.826   2.169 -0.8872  1.2127 -1.5983
 7863TIP3   OH247783   1.638   7.522   2.522 -0.3126  0.1000  0.0531
 7863TIP3    H147784   1.699   7.481   2.583  1.1991  0.8756 -0.8669
 7863TIP3    H247785   1.658   7.616   2.528 -1.2190  0.3434 -0.4851
 7864TIP3   OH247786   2.225   4.667   1.144 -1.0526  0.4252 -0.2343
 7864TIP3    H147787   2.190   4.749   1.179 -0.5120  0.3744  0.4564
 7864TIP3    H247788   2.290   4.694   1.079  0.9419  0.6475  1.7224
 7865TIP3   OH247789   1.354   3.468   2.614 -0.2700 -0.1375 -0.0999
 7865TIP3    H147790   1.384   3.415   2.688 -0.8265 -0.5747 -0.1822
 7865TIP3    H247791   1.394   3.554   2.628 -1.1947  0.1009  1.2605
 7866TIP3   OH247792   4.006   2.449   1.278  0.4610  0.5870  0.2303
 7866TIP3    H147793   3.999   2.415   1.367  1.5802 -0.4574 -0.0502
 7866TIP3    H247794   4.092   2.420   1.248 -0.6641 -0.7748 -1.8808
 7867TIP3   OH247795   1.419   6.480   0.550  0.1909  0.1293  0.2949
 7867TIP3    H147796   1.482   6.526   0.494 -1.6314  2.9374  0.3289
 7867TIP3    H247797   1.458   6.483   0.637  0.8043  0.2101  0.0271
 7868TIP3   OH247798   7.042   1.956   2.000 -0.3782  0.6414 -0.2285
 7868TIP3    H147799   7.124   2.002   2.019 -1.1214  1.1398  1.9885
 7868TIP3    H247800   7.002   2.007   1.929  1.0756  0.5310 -1.1688
 7869TIP3   OH247801   3.708   7.569   2.168 -0.4033  0.2828  0.2011
 7869TIP3    H147802   3.771   7.580   2.239 -0.2583  1.5308 -0.1019
 7869TIP3    H247803   3.681   7.477   2.175 -0.9891  0.5531  2.3674
 7870TIP3   OH247804   1.042   3.763   2.221 -0.3577  0.4779  0.3006
 7870TIP3    H147805   1.021   3.851   2.255  0.1130  0.2133  1.3100
 7870TIP3    H247806   1.123   3.739   2.266 -0.3791 -0.3926 -0.1222
 7871TIP3   OH247807   1.027   0.068   2.145  0.0981 -0.0484 -0.3499
 7871TIP3    H147808   1.024   0.045   2.052 -1.0615  2.0198 -0.8703
 7871TIP3    H247809   0.984  -0.006   2.188 -1.4522  0.0083 -1.7009
 7872TIP3   OH247810   3.791   3.000   2.461 -0.6619  0.5500  0.2000
 7872TIP3    H147811   3.815   2.908   2.448  1.3691  0.9297  0.9922
 7872TIP3    H247812   3.740   3.000   2.542  0.6711  0.2949  1.0635
 7873TIP3   OH247813   5.322   1.301   2.772  0.0729 -0.8750  0.8316
 7873TIP3    H147814   5.283   1.214   2.781 -0.0844 -0.7267  1.7604
 7873TIP3    H247815   5.248   1.361   2.785  0.2931 -0.6002  0.8190
 7874TIP3   OH247816   0.751   0.606   3.096  0.0644  0.2384 -0.1780
 7874TIP3    H147817   0.766   0.691   3.054  0.8884 -0.3874 -1.1739
 7874TIP3    H247818   0.839   0.575   3.118 -0.2585 -0.1938  0.5410
 7875TIP3   OH247819   0.882   4.671   0.963  0.5909 -0.3541 -0.6461
 7875TIP3    H147820   0.844   4.704   0.881  0.8600  0.4187 -0.4674
 7875TIP3    H247821   0.849   4.732   1.030  0.4827 -0.9011 -0.1973
 7876TIP3   OH247822   5.068   0.880   2.673  0.0929 -0.0604 -0.2012
 7876TIP3    H147823   5.141   0.830   2.710  1.4993  1.4166 -0.8544
 7876TIP3    H247824   5.057   0.954   2.732 -2.5653 -1.4631  1.2662
 7877TIP3   OH247825   0.382   5.300   1.149 -0.3730  0.2273 -0.2345
 7877TIP3    H147826   0.446   5.262   1.090 -0.0830  1.6286 -0.8694
 7877TIP3    H247827   0.391   5.250   1.230  0.8597 -0.2087 -0.6189
 7878TIP3   OH247828   1.744   4.192   1.857  0.2589  0.5253  0.7959
 7878TIP3    H147829   1.830   4.153   1.878  0.4874 -0.1758 -1.1864
 7878TIP3    H247830   1.685   4.117   1.853 -0.1895  0.8709  0.9365
 7879TIP3   OH247831   1.170   4.716   1.615 -0.1255 -0.0858  0.5030
 7879TIP3    H147832   1.155   4.747   1.526  0.7347 -0.9976  0.0197
 7879TIP3    H247833   1.083   4.702   1.651 -0.4977 -1.3151 -0.7867
 7880TIP3   OH247834   3.636   6.346   1.278 -0.2028  0.2802 -0.8428
 7880TIP3    H147835   3.574   6.417   1.263  0.3470  0.6735 -1.3464
 7880TIP3    H247836   3.594   6.290   1.343  0.4755  2.5009  1.7131
 7881TIP3   OH247837   1.936   3.312   1.655  0.0215 -0.0032  0.1339
 7881TIP3    H147838   1.972   3.255   1.723 -2.0831 -0.1819  1.1682
 7881TIP3    H247839   1.967   3.400   1.679  1.7377 -0.4159 -0.4175
 7882TIP3   OH247840   4.258   1.123   2.448 -0.1823  0.0272  0.0670
 7882TIP3    H147841   4.216   1.117   2.362  1.1296 -1.0120 -0.5471
 7882TIP3    H247842   4.238   1.211   2.479 -2.4924 -0.3007 -0.3265
 7883TIP3   OH247843   6.578   7.506   0.712 -0.1186 -0.4090 -1.3169
 7883TIP3    H147844   6.560   7.550   0.795  0.8024  1.3372 -1.9898
 7883TIP3    H247845   6.510   7.538   0.653 -0.1837 -0.8846 -1.5063
 7884TIP3   OH247846   3.633   6.050   0.945 -0.1591  0.4163  0.3682
 7884TIP3    H147847   3.677   6.091   0.870 -0.8317  1.1507  0.3618
 7884TIP3    H247848   3.682   6.081   1.021  0.4881 -0.2838  0.2490
 7885TIP3   OH247849   0.589   1.201   1.480  0.4303  0.2290 -0.4279
 7885TIP3    H147850   0.659   1.266   1.477  0.5128  0.6459  3.8587
 7885TIP3    H247851   0.621   1.128   1.428  2.4996  1.7291 -1.3735
 7886TIP3   OH247852   5.918   4.601   1.749 -0.0840 -0.1620  0.8746
 7886TIP3    H147853   5.888   4.623   1.838 -1.5655 -0.9122  0.5983
 7886TIP3    H247854   6.006   4.567   1.761 -0.4907 -0.8282  2.1477
 7887TIP3   OH247855   5.042   1.966   1.644 -0.1048 -0.5579  0.5102
 7887TIP3    H147856   5.008   2.051   1.674  2.3919  1.2346 -1.3172
 7887TIP3    H247857   4.965   1.919   1.613 -1.2924  2.5620 -1.8033
 7888TIP3   OH247858   2.359   5.834   1.961 -0.0675 -0.3425  0.0693
 7888TIP3    H147859   2.405   5.915   1.938 -1.0262  0.2763  0.2649
 7888TIP3    H247860   2.305   5.815   1.884  0.1999 -0.8386 -0.0003
 7889TIP3   OH247861   0.143   4.067   2.386  0.4270  0.4758  0.6457
 7889TIP3    H147862   0.063   4.049   2.435  0.5733 -3.4729 -0.1734
 7889TIP3    H247863   0.113   4.079   2.296  0.5178  3.3652  0.9179
 7890TIP3   OH247864   2.118   6.058   2.680  0.1783 -0.3777 -0.1310
 7890TIP3    H147865   2.090   6.140   2.721  1.5773 -0.1136  0.3703
 7890TIP3    H247866   2.172   6.015   2.746 -0.5103 -1.7096 -0.4020
 7891TIP3   OH247867   2.543   0.058   0.501  0.2375  0.2083 -0.2938
 7891TIP3    H147868   2.487   0.028   0.572 -0.6571  0.5423 -0.8294
 7891TIP3    H247869   2.594  -0.019   0.475 -0.5463 -0.3164 -0.3052
 7892TIP3   OH247870   1.660   7.291   2.383 -0.0889 -0.3726 -0.2451
 7892TIP3    H147871   1.674   7.230   2.455  0.6401 -1.0794 -0.9764
 7892TIP3    H247872   1.635   7.373   2.426 -0.4413 -0.9913  0.7720
 7893TIP3   OH247873   4.219   5.988   3.091 -0.6034  0.1164  0.1993
 7893TIP3    H147874   4.216   5.960   3.182  0.1640  0.1355  0.2343
 7893TIP3    H247875   4.288   6.055   3.088  0.5490 -1.0559 -0.6921
 7894TIP3   OH247876   5.616   5.069   2.379  0.2240 -0.0650  0.2916
 7894TIP3    H147877   5.613   5.054   2.285  0.0062 -0.9199  0.4279
 7894TIP3    H247878   5.535   5.031   2.412  0.2426  0.3346  0.8146
 7895TIP3   OH247879   3.319   2.191   1.249 -0.4185 -0.6146 -0.2845
 7895TIP3    H147880   3.288   2.125   1.312 -1.5807 -0.2595 -0.4520
 7895TIP3    H247881   3.332   2.270   1.302  0.4105 -0.8111 -0.1838
 7896TIP3   OH247882   4.650   1.313   2.198  0.0675  0.1981  0.0690
 7896TIP3    H147883   4.671   1.270   2.115  0.7333 -0.6942  0.6871
 7896TIP3    H247884   4.555   1.319   2.199  0.0813  0.9404 -1.1043
 7897TIP3   OH247885   0.603   4.969   1.842  0.1356 -0.5981  0.3776
 7897TIP3    H147886   0.683   4.983   1.792  1.4405 -0.0789  2.4826
 7897TIP3    H247887   0.608   4.879   1.871 -0.7839 -1.0020 -0.6234
 7898TIP3   OH247888   5.426   4.016   0.723 -0.7283 -0.1969  0.1844
 7898TIP3    H147889   5.457   4.022   0.813 -0.6389  1.3658  0.0842
 7898TIP3    H247890   5.384   3.931   0.717 -1.4989  0.0277  1.9534
 7899TIP3   OH247891   1.766   6.017   0.963  0.3767 -0.0143  0.1957
 7899TIP3    H147892   1.772   5.934   0.917 -0.1171  0.7540 -1.3267
 7899TIP3    H247893   1.723   5.996   1.046  1.9153 -1.5495  0.6513
 7900TIP3   OH247894   1.539   5.844   1.068 -0.0914 -0.4293 -0.0742
 7900TIP3    H147895   1.491   5.912   1.019 -0.0219 -0.8765 -0.7783
 7900TIP3    H247896   1.585   5.892   1.136  1.0283  0.4260 -1.3807
 7901TIP3   OH247897   1.749   1.417   0.438  0.0696  0.2933 -0.0778
 7901TIP3    H147898   1.738   1.345   0.500 -2.6821  1.3461  0.8055
 7901TIP3    H247899   1.812   1.384   0.374 -0.5067 -2.5934  0.6990
 7902TIP3   OH247900   0.005   3.341   1.202 -0.0530  0.3127 -0.2309
 7902TIP3    H147901  -0.023   3.334   1.293 -0.5522 -0.9590 -0.4582
 7902TIP3    H247902  -0.073   3.321   1.151  0.2220  1.0214 -0.9448
 7903TIP3   OH247903   6.496   4.451   2.580 -0.0976 -0.0620 -0.4742
 7903TIP3    H147904   6.408   4.422   2.556 -2.0421  3.1697  1.8981
 7903TIP3    H247905   6.520   4.396   2.655  0.1951 -1.2508 -1.3995
 7904TIP3   OH247906   6.473   3.483   0.795  0.6568 -0.3698  0.5659
 7904TIP3    H147907   6.568   3.485   0.780  0.4695 -0.5202 -0.7890
 7904TIP3    H247908   6.449   3.575   0.805  0.7858 -0.2227 -0.3456
 7905TIP3   OH247909   0.317   1.912   2.450  0.2879  0.5844  0.1475
 7905TIP3    H147910   0.281   1.825   2.433  1.8070  0.1312 -0.9571
 7905TIP3    H247911   0.358   1.904   2.537 -1.3078  0.8186  0.9566
 7906TIP3   OH247912   0.047   4.779   0.599 -0.3249 -0.1004 -0.1117
 7906TIP3    H147913  -0.012   4.855   0.596  0.1773  0.2835 -2.6041
 7906TIP3    H247914  -0.006   4.707   0.565 -0.3236 -0.5363  0.7786
 7907TIP3   OH247915   4.453   6.373   8.785 -0.1079 -0.2543  0.0188
 7907TIP3    H147916   4.519   6.364   8.853 -0.6458 -0.3771  0.5326
 7907TIP3    H247917   4.370   6.356   8.829 -0.3509 -1.9212 -0.9855
 7908TIP3   OH247918   0.414   6.600   0.451 -0.2564 -0.5166 -0.0746
 7908TIP3    H147919   0.449   6.688   0.464 -1.2850 -0.2334  0.9233
 7908TIP3    H247920   0.426   6.556   0.535 -2.6312 -0.2525  0.4896
 7909TIP3   OH247921   1.320   0.779   1.094 -0.0127 -0.3637  0.2480
 7909TIP3    H147922   1.275   0.863   1.084  0.8979  0.2328  0.9173
 7909TIP3    H247923   1.281   0.722   1.028 -0.8725  0.4927  0.0015
 7910TIP3   OH247924   0.939   4.645   1.725  0.1228 -0.0111 -0.3290
 7910TIP3    H147925   1.000   4.587   1.770  0.0804  1.7978  2.3204
 7910TIP3    H247926   0.854   4.601   1.732  0.4958 -0.8084 -0.6984
 7911TIP3   OH247927   4.565   4.369   1.612  0.7011  0.0504  0.1503
 7911TIP3    H147928   4.487   4.339   1.567  0.2691  2.0245 -0.5091
 7911TIP3    H247929   4.633   4.373   1.544  0.9841 -0.2595  0.4107
 7912TIP3   OH247930   1.624   0.113   2.393  0.2376 -0.8231  0.4435
 7912TIP3    H147931   1.687   0.185   2.400  2.0371 -2.4122  1.3671
 7912TIP3    H247932   1.553   0.137   2.453 -0.8244  1.6118 -1.5479
 7913TIP3   OH247933   5.023   0.648   1.037 -0.1234  0.2659 -0.0577
 7913TIP3    H147934   4.943   0.599   1.016  1.0095 -2.2056  0.9294
 7913TIP3    H247935   4.993   0.718   1.095 -1.7222  0.1529 -0.6816
 7914TIP3   OH247936   2.330   7.554   3.195 -0.0105  0.3798  0.5232
 7914TIP3    H147937   2.261   7.587   3.253  0.9839  1.7995  0.9555
 7914TIP3    H247938   2.294   7.474   3.158 -1.1948  0.1426  2.0932
 7915TIP3   OH247939   6.086   2.049   1.972  0.4230 -0.8486 -0.6649
 7915TIP3    H147940   6.017   1.990   2.003 -0.0389 -0.2634 -0.5620
 7915TIP3    H247941   6.150   2.050   2.043 -0.7249  0.6454  0.4026
 7916TIP3   OH247942   3.005   4.874   0.944 -0.0666  0.4530  0.3263
 7916TIP3    H147943   2.976   4.879   1.035  0.2653 -3.5941  0.8503
 7916TIP3    H247944   3.100   4.884   0.949  0.5148 -3.6918  1.2036
 7917TIP3   OH247945   0.211   0.220   0.401  0.2887  0.6056 -0.3987
 7917TIP3    H147946   0.192   0.206   0.494  1.6608  0.6991 -0.0823
 7917TIP3    H247947   0.128   0.249   0.363 -0.4116  0.0693  0.6956
 7918TIP3   OH247948   3.639   0.940   0.457 -0.1459  0.2302 -0.1110
 7918TIP3    H147949   3.628   1.012   0.394 -0.7695 -1.7512 -2.4228
 7918TIP3    H247950   3.588   0.868   0.419  0.8401 -1.5903  1.8516
 7919TIP3   OH247951   4.064   4.799   0.577 -0.4555  0.2558 -0.6971
 7919TIP3    H147952   4.000   4.820   0.509 -1.4061 -0.0085  0.0940
 7919TIP3    H247953   4.035   4.715   0.612  0.6774 -0.1569 -0.7205
 7920TIP3   OH247954   5.348   2.418   1.374 -0.6952  0.2862 -0.2489
 7920TIP3    H147955   5.397   2.400   1.295 -0.5386 -1.4903  0.2057
 7920TIP3    H247956   5.401   2.381   1.445 -0.6372  2.1779  0.7541
 7921TIP3   OH247957   0.700   1.232   1.144 -0.0029 -0.1657 -0.0401
 7921TIP3    H147958   0.641   1.168   1.182  1.9105 -2.1329 -0.1592
 7921TIP3    H247959   0.738   1.278   1.219 -0.3123 -0.1931  0.1323
 7922TIP3   OH247960   4.480   6.094   0.844  0.0229  0.1554  0.5031
 7922TIP3    H147961   4.395   6.057   0.823 -0.3798  1.8203 -1.0429
 7922TIP3    H247962   4.467   6.138   0.928  0.0655 -1.6389  1.5028
 7923TIP3   OH247963   4.076   6.285   1.165 -0.2639 -0.1602 -0.1140
 7923TIP3    H147964   4.127   6.352   1.211 -0.4255  0.2078 -0.4588
 7923TIP3    H247965   4.053   6.221   1.232 -0.6075  0.4300  0.3435
 7924TIP3   OH247966   0.329   4.779   2.564  0.2337 -0.4244  0.1170
 7924TIP3    H147967   0.411   4.748   2.600 -0.2943  0.1785  1.9195
 7924TIP3    H247968   0.354   4.850   2.504  0.9320  1.6815  2.7296
 7925TIP3   OH247969   7.191   2.965   1.482  0.2892  0.0153 -0.1146
 7925TIP3    H147970   7.156   2.877   1.470 -1.9787  0.9456 -0.8574
 7925TIP3    H247971   7.152   3.017   1.412 -0.7266  2.2204  1.9252
 7926TIP3   OH247972   5.347   0.819   2.093 -0.1788 -0.2814 -0.1366
 7926TIP3    H147973   5.333   0.885   2.024  0.6184 -1.3384 -1.3458
 7926TIP3    H247974   5.258   0.796   2.122 -0.5053  0.5173 -0.4683
 7927TIP3   OH247975   3.923   5.818   3.483  0.2623  0.4927 -0.0569
 7927TIP3    H147976   3.881   5.732   3.489 -1.1180  1.2299  1.5684
 7927TIP3    H247977   4.001   5.810   3.538  0.9487 -0.1152 -1.0694
 7928TIP3   OH247978   2.469   6.824   3.190  0.1158 -0.1180  0.1044
 7928TIP3    H147979   2.376   6.815   3.167  0.0309  0.7658  0.0646
 7928TIP3    H247980   2.493   6.911   3.157  1.6819 -1.3695 -2.3080
 7929TIP3   OH247981   2.322   0.998   0.639 -0.2385 -0.1767  0.5621
 7929TIP3    H147982   2.301   1.086   0.671  0.3664 -0.4528  1.7889
 7929TIP3    H247983   2.406   0.978   0.680 -0.4487 -1.3936  0.4261
 7930TIP3   OH247984   3.835   3.192   2.989  0.1081  0.4760 -0.2076
 7930TIP3    H147985   3.778   3.267   3.006 -0.3091 -0.3920  2.8014
 7930TIP3    H247986   3.776   3.125   2.952 -0.2595  0.5192  0.2828
 7931TIP3   OH247987   6.080   3.696   1.775  0.0727  0.5879  0.4370
 7931TIP3    H147988   6.035   3.720   1.694  1.2157 -1.1192 -0.7686
 7931TIP3    H247989   6.158   3.751   1.777 -0.5777  1.5091  1.0435
 7932TIP3   OH247990   5.190   3.187   2.751 -0.0182  0.1033 -0.3497
 7932TIP3    H147991   5.256   3.169   2.819 -0.7073 -0.7110  0.1330
 7932TIP3    H247992   5.122   3.236   2.797 -0.3959 -0.2754 -0.5011
 7933TIP3   OH247993   3.580   4.435   0.557  0.5583  0.6710 -0.2326
 7933TIP3    H147994   3.590   4.419   0.651 -1.9224  1.9446  0.3236
 7933TIP3    H247995   3.510   4.377   0.529  1.4251  0.1353 -1.4016
 7934TIP3   OH247996   3.327   3.942   2.223  0.3841  0.3221  0.3298
 7934TIP3    H147997   3.314   3.932   2.128  2.2687  2.6592 -0.2781
 7934TIP3    H247998   3.414   3.907   2.239  0.3759  0.6198  1.0462
 7935TIP3   OH247999   6.071   2.010   3.018 -0.3579  0.0368 -0.1391
 7935TIP3    H148000   6.114   1.979   3.098 -0.7444 -1.3205 -0.4310
 7935TIP3    H248001   5.980   1.980   3.027 -0.1142 -1.3130 -1.6544
 7936TIP3   OH248002   7.076   2.462   2.231  0.0374  0.8462 -0.3463
 7936TIP3    H148003   6.986   2.495   2.225  0.0164  1.4074  2.0899
 7936TIP3    H248004   7.067   2.367   2.221 -0.6590  0.9925 -1.2591
 7937TIP3   OH248005   6.827   7.036   1.714  0.1382  0.0378  0.3175
 7937TIP3    H148006   6.734   7.016   1.714  0.2188 -0.3531  0.1509
 7937TIP3    H248007   6.869   6.952   1.736  0.6214 -0.5983 -2.6279
 7938TIP3   OH248008   4.056   6.140   0.544 -0.6614  0.3794 -0.2270
 7938TIP3    H148009   4.046   6.234   0.528  0.2802  0.3475 -1.1056
 7938TIP3    H248010   3.966   6.108   0.553 -1.0480  1.1555 -1.1454
 7939TIP3   OH248011   3.688   5.172   2.530  0.1790 -0.2615 -0.0833
 7939TIP3    H148012   3.713   5.155   2.620  0.0331 -1.0168 -0.1773
 7939TIP3    H248013   3.614   5.233   2.536  0.0942 -0.4047  0.3106
 7940TIP3   OH248014   6.736   6.742   2.591  0.0583 -0.5546  0.2022
 7940TIP3    H148015   6.757   6.835   2.601 -1.7376 -0.0959 -0.0662
 7940TIP3    H248016   6.807   6.697   2.637  1.8567  0.8671 -1.0190
 7941TIP3   OH248017   0.000   2.663   3.055  0.0889  0.3619  0.0106
 7941TIP3    H148018  -0.017   2.574   3.026  1.0092  0.5381 -1.1433
 7941TIP3    H248019  -0.082   2.692   3.095 -1.0371 -0.1122 -1.8683
 7942TIP3   OH248020   5.430   3.069   1.815  0.4555 -0.8711 -0.3018
 7942TIP3    H148021   5.514   3.022   1.810  0.9858  0.0893 -0.8713
 7942TIP3    H248022   5.447   3.141   1.876  0.9023  0.9065 -2.3924
 7943TIP3   OH248023   2.615   4.008   1.062  0.5720 -0.3159 -0.2061
 7943TIP3    H148024   2.690   4.053   1.099  1.5099 -1.0401 -1.1585
 7943TIP3    H248025   2.567   4.076   1.015  1.9159 -0.2220 -1.5381
 7944TIP3   OH248026   6.830   4.841   3.274 -0.2881  0.2764 -0.7041
 7944TIP3    H148027   6.821   4.754   3.312 -0.0165 -0.0243 -1.3013
 7944TIP3    H248028   6.902   4.881   3.322 -0.2483  0.0740 -0.5957
 7945TIP3   OH248029   2.471   2.849   2.478 -0.2333  0.3983 -0.0399
 7945TIP3    H148030   2.462   2.936   2.440 -1.8142  0.6180  0.7430
 7945TIP3    H248031   2.420   2.792   2.420  1.6052 -0.2197 -1.1087
 7946TIP3   OH248032   6.249   3.071   1.003 -0.4332  0.3056  0.2333
 7946TIP3    H148033   6.319   3.136   0.992  0.4067 -0.6694 -0.3407
 7946TIP3    H248034   6.271   3.001   0.942 -0.2471 -1.4074  2.1413
 7947TIP3   OH248035   2.104   1.511   1.806  0.1154 -0.0267  0.7700
 7947TIP3    H148036   2.186   1.462   1.810  0.3331  0.2802  0.2067
 7947TIP3    H248037   2.128   1.596   1.770 -0.4808 -0.0016  0.4032
 7948TIP3   OH248038   3.915   1.605   2.410  0.2133 -0.2982 -0.7403
 7948TIP3    H148039   3.896   1.622   2.317  0.5503  0.8647 -0.6079
 7948TIP3    H248040   3.920   1.510   2.416  0.2912 -0.3852 -1.9408
 7949TIP3   OH248041   2.004   6.667   0.649 -0.0670  0.2760  0.2769
 7949TIP3    H148042   1.961   6.637   0.729 -0.0462 -1.7580 -0.4325
 7949TIP3    H248043   2.060   6.739   0.678 -2.0612  1.3786  1.6196
 7950TIP3   OH248044   7.419   2.629   2.878 -0.8703 -0.5412 -0.2906
 7950TIP3    H148045   7.390   2.657   2.965  0.2635 -1.0550  0.2741
 7950TIP3    H248046   7.469   2.548   2.895 -0.5426 -0.5823 -1.4069
 7951TIP3   OH248047   1.182   3.333   1.985  0.9212 -0.2543 -0.1793
 7951TIP3    H148048   1.226   3.366   2.063 -0.5472  2.2056 -0.2702
 7951TIP3    H248049   1.092   3.317   2.014  1.0555 -2.2018 -0.7149
 7952TIP3   OH248050   6.540   1.707   0.832 -0.0869  0.0568  0.5853
 7952TIP3    H148051   6.573   1.691   0.743  1.6023 -0.8845  1.3342
 7952TIP3    H248052   6.509   1.621   0.862 -0.3106  0.2956  1.0508
 7953TIP3   OH248053   5.151   5.226   0.681 -0.1083 -0.1987  0.3592
 7953TIP3    H148054   5.102   5.161   0.732 -2.3258  1.2258  0.2183
 7953TIP3    H248055   5.099   5.307   0.691  1.6061  1.1175 -0.8564
 7954TIP3   OH248056   4.794   3.916   0.848  0.3133  0.2219  0.2383
 7954TIP3    H148057   4.877   3.903   0.801  1.0458  0.7740  1.3222
 7954TIP3    H248058   4.731   3.940   0.780  1.1884  0.3811 -0.5363
 7955TIP3   OH248059   5.877   5.069   2.232 -0.3880 -0.0989  0.2291
 7955TIP3    H148060   5.785   5.091   2.217 -0.7084 -0.5511  1.4188
 7955TIP3    H248061   5.925   5.146   2.202 -1.2087  0.4926  0.3794
 7956TIP3   OH248062   1.677   6.244   1.381  0.2944 -0.0037 -0.1182
 7956TIP3    H148063   1.582   6.244   1.387  0.2948 -0.4229 -0.1439
 7956TIP3    H248064   1.696   6.309   1.313  0.0422  0.2829  0.0799
 7957TIP3   OH248065   7.518   7.418   1.277 -0.2996 -0.5619 -0.5169
 7957TIP3    H148066   7.437   7.468   1.276  2.1903  4.0044 -1.9991
 7957TIP3    H248067   7.549   7.421   1.187  1.9810 -1.3209  0.1793
 7958TIP3   OH248068   2.748   0.374   2.008  0.2370  0.2862  0.0701
 7958TIP3    H148069   2.803   0.451   2.019  1.2912 -0.3355 -0.6569
 7958TIP3    H248070   2.763   0.322   2.087 -0.5226  0.8215  0.5903
 7959TIP3   OH248071   4.825   5.907   0.896 -0.0121  1.1144  0.1422
 7959TIP3    H148072   4.821   5.993   0.854  0.6088 -0.4514 -3.5234
 7959TIP3    H248073   4.747   5.861   0.865 -0.5248  0.3700  2.3262
 7960TIP3   OH248074   3.117   6.764   1.958  0.2801  0.2001  0.2660
 7960TIP3    H148075   3.093   6.824   2.029  0.6883  1.2027 -0.4313
 7960TIP3    H248076   3.036   6.716   1.940  0.2550 -0.2982  1.6235
 7961TIP3   OH248077   3.789   3.901   1.512 -0.0773  0.0102  0.0786
 7961TIP3    H148078   3.722   3.886   1.445 -0.4895  0.5740  0.3476
 7961TIP3    H248079   3.764   3.985   1.551 -0.2636 -0.6371  1.4122
 7962TIP3   OH248080   4.718   6.860   3.201 -0.0263  0.0162 -0.2502
 7962TIP3    H148081   4.736   6.953   3.220  0.1466 -0.3020  1.3275
 7962TIP3    H248082   4.785   6.836   3.137  0.8084  0.6434  0.3573
 7963TIP3   OH248083   3.113   5.744   0.454  0.2750  0.2804 -0.0470
 7963TIP3    H148084   3.176   5.792   0.507  0.7652 -0.2707 -0.1239
 7963TIP3    H248085   3.046   5.809   0.432  0.6032  0.7690  0.3737
 7964TIP3   OH248086   3.637   0.017   1.940  0.1926 -0.1279  0.2778
 7964TIP3    H148087   3.621  -0.058   1.882 -0.5627  0.4414 -0.2581
 7964TIP3    H248088   3.683  -0.021   2.015  0.9751 -0.9192 -0.5752
 7965TIP3   OH248089   6.469   5.961   2.814  0.1719  0.1104  0.4496
 7965TIP3    H148090   6.493   5.875   2.779  1.0079  0.4101  0.2536
 7965TIP3    H248091   6.553   6.003   2.832 -0.2213  1.0061  0.2480
 7966TIP3   OH248092   6.219   2.830   1.980  0.2208 -0.2951  0.2974
 7966TIP3    H148093   6.244   2.854   1.891 -0.0119 -2.1344 -0.3053
 7966TIP3    H248094   6.291   2.776   2.012 -0.5940 -1.3130  0.4685
 7967TIP3   OH248095   3.125   6.826   2.361  0.4287 -0.1045  0.1748
 7967TIP3    H148096   3.081   6.786   2.437 -0.1198 -0.2678 -0.2223
 7967TIP3    H248097   3.191   6.762   2.336 -1.6384 -1.6963 -1.5927
 7968TIP3   OH248098   5.883   5.837   1.943  0.1421 -0.0804 -0.4161
 7968TIP3    H148099   5.866   5.835   2.037 -2.5440  0.8645 -0.7864
 7968TIP3    H248100   5.888   5.930   1.921 -0.8356 -0.2284 -1.3871
 7969TIP3   OH248101   7.037   7.509   1.670 -0.0894  0.3309  0.0615
 7969TIP3    H148102   7.098   7.519   1.597 -2.1363 -1.6075 -2.0544
 7969TIP3    H248103   7.071   7.435   1.720  0.8685  1.1556  0.6834
 7970TIP3   OH248104   1.685   5.190   2.187 -1.3915 -0.1711 -0.5389
 7970TIP3    H148105   1.683   5.172   2.093 -0.0232  0.0098 -0.6235
 7970TIP3    H248106   1.670   5.284   2.193 -1.0780 -0.1153 -0.6087
 7971TIP3   OH248107   7.155   2.826   3.128 -0.9368  0.3754 -0.2282
 7971TIP3    H148108   7.120   2.894   3.069  0.4371  0.1738 -1.3141
 7971TIP3    H248109   7.105   2.748   3.107 -0.4585  0.3064 -1.1576
 7972TIP3   OH248110   0.748   3.849   1.488  0.1437 -0.3705  0.0212
 7972TIP3    H148111   0.812   3.782   1.513 -0.2662 -0.9893 -0.5418
 7972TIP3    H248112   0.687   3.852   1.562 -0.1145 -0.9797 -0.1636
 7973TIP3   OH248113   5.321   6.158   2.363  0.0777  0.4514  0.8157
 7973TIP3    H148114   5.329   6.098   2.289 -1.1688  1.0625  0.1574
 7973TIP3    H248115   5.395   6.135   2.420 -0.3169 -1.6596  0.5685
 7974TIP3   OH248116   4.164   4.883   1.402  0.1815  0.0082 -0.1129
 7974TIP3    H148117   4.122   4.849   1.322 -0.7823  0.2283  0.2833
 7974TIP3    H248118   4.253   4.905   1.375  0.0433 -0.4552 -0.9885
 7975TIP3   OH248119   3.264   3.689   2.665 -0.3216  0.3280  0.1153
 7975TIP3    H148120   3.283   3.631   2.738  0.7047 -1.1878 -1.2916
 7975TIP3    H248121   3.190   3.742   2.695 -0.5592 -0.9173  1.8743
 7976TIP3   OH248122   5.722   1.334   1.699  0.5078  0.0046 -0.3596
 7976TIP3    H148123   5.731   1.245   1.736 -1.5554 -0.9594 -1.9753
 7976TIP3    H248124   5.811   1.359   1.675  1.1156 -1.7554 -0.1084
 7977TIP3   OH248125   4.370   7.123   2.254 -0.3850  0.7440 -0.1691
 7977TIP3    H148126   4.344   7.109   2.345  1.7913  0.7059  0.4822
 7977TIP3    H248127   4.361   7.037   2.213  0.6447  0.2698  0.5633
 7978TIP3   OH248128   0.495   3.758   2.830 -0.7165 -0.3305 -0.0667
 7978TIP3    H148129   0.497   3.853   2.821  0.9963 -0.4294 -1.2217
 7978TIP3    H248130   0.508   3.742   2.923 -0.9475  0.5524  0.1286
 7979TIP3   OH248131   1.997   4.614   0.901  0.2576 -0.0811  0.0943
 7979TIP3    H148132   2.045   4.560   0.964 -0.2199  0.6455  1.1210
 7979TIP3    H248133   2.064   4.646   0.841  0.9812  0.4060  1.1288
 7980TIP3   OH248134   4.462   2.322   2.704 -0.2039 -0.4029 -0.7615
 7980TIP3    H148135   4.451   2.377   2.782 -0.5764  0.6529 -1.5399
 7980TIP3    H248136   4.527   2.367   2.651 -0.0128 -1.0749 -1.1151
 7981TIP3   OH248137   7.290   6.861   1.581 -0.6768 -0.4867  0.0063
 7981TIP3    H148138   7.202   6.893   1.599 -0.6774 -0.6998  0.4004
 7981TIP3    H248139   7.333   6.861   1.666 -0.6901 -1.5679  0.0266
 7982TIP3   OH248140   4.452   7.304   0.658  0.1334 -0.0314  0.2208
 7982TIP3    H148141   4.537   7.346   0.671  0.2443 -0.4887  1.0674
 7982TIP3    H248142   4.394   7.374   0.631  0.4489  0.5610  1.0433
 7983TIP3   OH248143   1.377   4.135   1.525 -0.0773  0.2116 -0.2951
 7983TIP3    H148144   1.400   4.227   1.536  1.8035 -0.3232  0.6492
 7983TIP3    H248145   1.281   4.133   1.533  0.0112  1.7730  2.3331
 7984TIP3   OH248146   1.548   2.349   2.939  0.0304  0.1028 -0.7132
 7984TIP3    H148147   1.586   2.430   2.907  0.3051  0.1670 -0.2244
 7984TIP3    H248148   1.592   2.332   3.022 -0.3108 -0.3334 -0.6154
 7985TIP3   OH248149   7.306   1.207   1.625  0.3823 -0.4436  0.0750
 7985TIP3    H148150   7.376   1.196   1.690 -0.4593 -0.2843  1.0331
 7985TIP3    H248151   7.227   1.179   1.671  0.1372 -3.1379 -1.8062
 7986TIP3   OH248152   0.944   6.811   2.493 -0.5619  0.8730  0.7797
 7986TIP3    H148153   0.988   6.800   2.408  0.3275 -0.1555  1.3446
 7986TIP3    H248154   0.856   6.776   2.479 -0.6258  1.2825  0.1171
 7987TIP3   OH248155   0.806   6.032   1.681  0.4041 -0.4518  0.0682
 7987TIP3    H148156   0.790   6.055   1.590  0.4614 -1.5106 -0.2312
 7987TIP3    H248157   0.719   6.024   1.720  0.3795 -0.0043  0.1032
 7988TIP3   OH248158   0.652   4.209   2.458 -0.3093  0.0161 -0.7198
 7988TIP3    H148159   0.557   4.199   2.458 -0.1710 -1.7049 -0.2587
 7988TIP3    H248160   0.676   4.216   2.551  0.1305 -1.2346 -0.7216
 7989TIP3   OH248161   1.958   0.963   2.872  0.1213  0.3865 -0.0174
 7989TIP3    H148162   1.963   0.992   2.964  1.2399 -2.0218  0.7698
 7989TIP3    H248163   1.864   0.965   2.852 -0.4677 -1.4422  2.0874
 7990TIP3   OH248164   0.453   5.552   1.988  0.3797  0.0372  0.0648
 7990TIP3    H148165   0.436   5.644   2.010 -1.5467 -0.7567  2.2999
 7990TIP3    H248166   0.456   5.551   1.892 -0.1988  2.3098 -0.0389
 7991TIP3   OH248167   5.061   4.853   1.884  0.4328 -0.0505  0.4645
 7991TIP3    H148168   5.067   4.773   1.937 -2.5863 -1.4824 -1.0841
 7991TIP3    H248169   5.129   4.842   1.818  0.6775 -0.8876  0.8276
 7992TIP3   OH248170   6.150   2.447   1.757  0.3613  0.5060  0.0260
 7992TIP3    H148171   6.105   2.506   1.696  1.0401  3.2206  1.9685
 7992TIP3    H248172   6.232   2.425   1.713 -1.1009 -1.5027 -1.9592
 7993TIP3   OH248173   0.869   2.799   1.771  0.2739 -0.2994  0.3888
 7993TIP3    H148174   0.964   2.810   1.766  0.5097  1.3896  4.5645
 7993TIP3    H248175   0.856   2.715   1.815 -0.1299 -0.2112  0.4465
 7994TIP3   OH248176   4.288   2.046   0.501 -0.1261 -0.2548 -0.3186
 7994TIP3    H148177   4.318   2.038   0.411  0.3704  2.6752 -0.5201
 7994TIP3    H248178   4.366   2.029   0.554 -0.2666 -1.3366 -0.4423
 7995TIP3   OH248179   2.343   0.053   0.899 -0.0975  0.3931  0.2784
 7995TIP3    H148180   2.278   0.106   0.944  0.9624 -0.2803  2.7299
 7995TIP3    H248181   2.352  -0.026   0.952  0.9551 -0.6517 -1.3357
 7996TIP3   OH248182   3.121   0.323   1.973 -0.1012  0.2137 -1.1290
 7996TIP3    H148183   3.130   0.314   1.878  1.7165  2.3160 -1.2110
 7996TIP3    H248184   3.204   0.359   2.003 -0.6926 -0.1916  1.2775
 7997TIP3   OH248185   3.132   3.138   1.599 -0.1063 -0.1553 -0.4926
 7997TIP3    H148186   3.225   3.159   1.600 -0.3914  1.2381 -0.8385
 7997TIP3    H248187   3.096   3.181   1.677 -0.8579  1.5196 -1.6934
 7998TIP3   OH248188   3.596   1.104   2.295  0.0332  0.1362 -0.1645
 7998TIP3    H148189   3.605   1.030   2.235  1.9392  0.3408 -0.2039
 7998TIP3    H248190   3.513   1.089   2.339  0.2448 -1.9114 -0.3534
 7999TIP3   OH248191   3.103   2.777   0.991  0.0806  0.4151 -0.1196
 7999TIP3    H148192   3.093   2.684   1.008  2.3846  0.0673 -0.4472
 7999TIP3    H248193   3.169   2.807   1.054 -2.4575  2.4748  1.8317
 8000TIP3   OH248194   5.585   6.455   1.879 -0.0739  0.3678  0.2469
 8000TIP3    H148195   5.516   6.389   1.871  2.5642 -2.6175  0.3469
 8000TIP3    H248196   5.611   6.473   1.789 -1.0699  1.7132  0.1925
 8001TIP3   OH248197   7.081   0.667   1.057  0.7109 -0.5974 -0.6466
 8001TIP3    H148198   6.991   0.679   1.029  0.3392 -0.1388  0.6608
 8001TIP3    H248199   7.134   0.707   0.988 -0.0302 -1.4770 -1.7558
 8002TIP3   OH248200   5.953   6.956   2.466  0.1828 -0.0779 -0.0067
 8002TIP3    H148201   5.968   7.045   2.497 -0.4685 -0.6082  2.0367
 8002TIP3    H248202   5.999   6.901   2.529  0.4207 -1.2049 -1.1311
 8003TIP3   OH248203   5.075   5.775   2.630  0.3998  0.1752 -0.5474
 8003TIP3    H148204   5.087   5.870   2.623 -1.0984  0.3812 -0.6534
 8003TIP3    H248205   4.995   5.758   2.581  1.1319 -1.2937 -1.3146
 8004TIP3   OH248206   2.143   6.016   2.294  0.1807  0.1969  0.3295
 8004TIP3    H148207   2.051   6.043   2.292  0.5538  1.6982  1.0757
 8004TIP3    H248208   2.147   5.950   2.363 -0.2860  0.4162  0.5728
 8005TIP3   OH248209   4.672   7.385   1.344  0.4472  0.4655  0.5203
 8005TIP3    H148210   4.659   7.436   1.264  0.1431 -1.5433 -0.7917
 8005TIP3    H248211   4.763   7.357   1.341 -0.0344 -1.1514 -0.1351
 8006TIP3   OH248212   5.573   0.798   2.980  0.2027 -0.0456 -0.0776
 8006TIP3    H148213   5.520   0.726   2.947  1.9275 -1.7723  0.6975
 8006TIP3    H248214   5.511   0.854   3.028 -1.0919 -1.2941 -0.2364
 8007TIP3   OH248215   6.797   0.737   0.963  0.3463 -0.4209 -0.4483
 8007TIP3    H148216   6.783   0.642   0.961 -0.9007 -0.2875  0.5412
 8007TIP3    H248217   6.791   0.764   0.872  1.6008 -1.3913 -0.8474
 8008TIP3   OH248218   3.519   6.576   2.448  0.2385  0.1485  0.1668
 8008TIP3    H148219   3.562   6.557   2.532  0.6653 -0.5082 -0.1914
 8008TIP3    H248220   3.426   6.579   2.469  0.3480  0.0744  0.6792
 8009TIP3   OH248221   6.477   4.307   1.864  0.3150  0.4571  0.3587
 8009TIP3    H148222   6.449   4.236   1.922 -1.4774  0.3448 -0.5748
 8009TIP3    H248223   6.405   4.316   1.802  1.6344  1.4185 -1.0818
 8010TIP3   OH248224   4.933   1.507   1.997  0.2644  0.9720  0.1392
 8010TIP3    H148225   4.943   1.413   1.984  2.0551  1.2555 -0.8505
 8010TIP3    H248226   4.844   1.526   1.965  0.2748 -0.2182 -0.6758
 8011TIP3   OH248227   3.268   1.566   0.837  0.1926  0.1762 -0.3973
 8011TIP3    H148228   3.358   1.566   0.870 -0.0138 -0.5374  0.1878
 8011TIP3    H248229   3.263   1.644   0.781  0.6093  1.3561  1.1394
 8012TIP3   OH248230   1.067   0.415   0.419  0.8656 -0.0079  0.3831
 8012TIP3    H148231   1.154   0.383   0.397  0.2763 -0.3853 -1.6564
 8012TIP3    H248232   1.025   0.340   0.462  1.8989  0.5763  2.4997
 8013TIP3   OH248233   0.082   7.470   1.572  0.4285 -0.0999 -0.0007
 8013TIP3    H148234   0.094   7.379   1.543  0.2569 -0.2143  0.2821
 8013TIP3    H248235   0.117   7.523   1.500 -0.0085 -0.3817 -0.4240
 8014TIP3   OH248236   3.005   5.363   0.982 -0.2432  0.1870 -0.1152
 8014TIP3    H148237   3.089   5.408   0.990 -0.6913  1.0274 -0.0788
 8014TIP3    H248238   3.016   5.281   1.031  1.0970 -0.4967 -1.4744
 8015TIP3   OH248239   6.086   0.681   3.253 -0.1058 -0.0147 -0.2364
 8015TIP3    H148240   6.169   0.661   3.208  0.5095  1.3284  0.2331
 8015TIP3    H248241   6.092   0.774   3.272 -1.3701 -0.0843  0.5778
 8016TIP3   OH248242   5.785   1.494   2.156 -0.0418 -0.4107 -0.6969
 8016TIP3    H148243   5.733   1.503   2.076  1.8444 -1.0164 -2.0595
 8016TIP3    H248244   5.869   1.534   2.134  0.6417 -0.9188  0.8888
 8017TIP3   OH248245   4.585   6.053   2.614 -0.2977 -0.8814  0.1166
 8017TIP3    H148246   4.611   6.112   2.543 -0.3322  0.1776  0.9577
 8017TIP3    H248247   4.668   6.027   2.654 -0.0936 -3.2011 -1.5702
 8018TIP3   OH248248   4.144   4.856   3.450 -0.1277 -0.0012 -0.1272
 8018TIP3    H148249   4.149   4.774   3.401  1.0288 -0.2668  0.3849
 8018TIP3    H248250   4.231   4.864   3.490  0.2478  2.1551 -1.2463
 8019TIP3   OH248251   3.806   2.540   0.632 -0.0727  0.3201 -0.0382
 8019TIP3    H148252   3.850   2.528   0.716  0.5468  0.1124 -0.3911
 8019TIP3    H248253   3.837   2.468   0.577 -1.1909 -0.0958 -0.1549
 8020TIP3   OH248254   0.292   3.727   0.912 -0.0406 -0.2517  0.0168
 8020TIP3    H148255   0.383   3.734   0.940 -0.2947  0.7507  0.6543
 8020TIP3    H248256   0.259   3.649   0.958  0.6229 -0.9327 -0.6337
 8021TIP3   OH248257   6.973   0.707   2.613  0.6080 -0.2906  0.0219
 8021TIP3    H148258   6.990   0.724   2.706 -0.5702 -0.6164  0.3258
 8021TIP3    H248259   6.878   0.719   2.604  0.7383 -0.0252 -1.1961
 8022TIP3   OH248260   1.683   6.816   1.184  0.0238 -0.3392  0.1390
 8022TIP3    H148261   1.751   6.828   1.250 -0.2325 -1.2183  0.5788
 8022TIP3    H248262   1.601   6.832   1.230 -0.0691  1.3798 -0.5456
 8023TIP3   OH248263   6.388   5.542   2.174 -0.3289 -0.0058  0.1923
 8023TIP3    H148264   6.388   5.633   2.144  0.8712 -0.3401 -0.9488
 8023TIP3    H248265   6.298   5.512   2.161 -0.5313  0.7737 -0.2547
 8024TIP3   OH248266   3.392   7.519   1.087  0.1434  0.2791  0.0575
 8024TIP3    H148267   3.443   7.496   1.165  0.6558  0.3879 -0.2401
 8024TIP3    H248268   3.438   7.594   1.049 -1.0794  1.3393  0.5966
 8025TIP3   OH248269   2.249   7.202   0.510 -0.2845  0.3076 -0.8619
 8025TIP3    H148270   2.305   7.227   0.584  0.5049 -1.2883 -0.8931
 8025TIP3    H248271   2.215   7.286   0.477  2.0118  1.3324 -0.7941
 8026TIP3   OH248272   5.821   5.988   2.473  0.3739 -0.1261  0.8244
 8026TIP3    H148273   5.754   5.928   2.505  1.3911 -2.3580 -0.9513
 8026TIP3    H248274   5.872   6.010   2.551 -0.7561 -0.5982  1.7326
 8027TIP3   OH248275   5.794   7.399   3.157 -0.4947 -0.5949 -0.2209
 8027TIP3    H148276   5.788   7.471   3.220  0.1074 -0.9881  0.2951
 8027TIP3    H248277   5.827   7.440   3.077  1.5042 -0.5469  0.5664
 8028TIP3   OH248278   2.639   5.097   0.500 -0.2281 -0.1306  0.6633
 8028TIP3    H148279   2.639   5.008   0.537 -2.7877 -0.2915  0.4681
 8028TIP3    H248280   2.718   5.100   0.447  1.3277 -1.3488  2.7591
 8029TIP3   OH248281   3.209   7.230   3.286 -0.1604  0.3675  0.1686
 8029TIP3    H148282   3.188   7.148   3.241 -0.8379  0.3783  0.4511
 8029TIP3    H248283   3.302   7.224   3.306  0.0733  0.2187 -0.9340
 8030TIP3   OH248284   1.280   3.429   2.229  0.0982  0.2478 -0.1575
 8030TIP3    H148285   1.347   3.385   2.281 -0.1731  0.7127  0.5871
 8030TIP3    H248286   1.269   3.514   2.270  0.0425  0.7114 -1.1139
 8031TIP3   OH248287   6.784   6.179   2.094  0.2081  0.1011 -0.3059
 8031TIP3    H148288   6.717   6.210   2.033  0.3175 -1.1263 -1.0837
 8031TIP3    H248289   6.755   6.212   2.179 -0.9685  0.2537 -0.7352
 8032TIP3   OH248290   2.704   0.781   2.651 -0.4441 -0.4019 -0.3780
 8032TIP3    H148291   2.613   0.771   2.676 -0.3238  1.1002  0.7419
 8032TIP3    H248292   2.704   0.773   2.555 -1.6023 -1.2197 -0.3273
 8033TIP3   OH248293   3.389   6.672   1.961  0.1277 -0.0548  0.2050
 8033TIP3    H148294   3.454   6.741   1.950  1.4197 -1.5255 -2.3050
 8033TIP3    H248295   3.305   6.717   1.948  0.8225  1.3165  0.2184
 8034TIP3   OH248296   2.034   5.188   0.989 -0.2364  0.6154 -0.5713
 8034TIP3    H148297   1.960   5.131   0.967  0.3551 -0.3155 -0.1972
 8034TIP3    H248298   2.017   5.217   1.078 -0.1422  0.3883 -0.4795
 8035TIP3   OH248299   1.655   4.720   1.656 -0.8218  0.5399  0.1744
 8035TIP3    H148300   1.688   4.631   1.650 -0.3019  0.7892 -0.9010
 8035TIP3    H248301   1.588   4.717   1.725 -0.5592 -0.5925  0.3854
 8036TIP3   OH248302   5.179   3.114   1.522  0.0610  0.2867 -0.0857
 8036TIP3    H148303   5.187   3.196   1.572  0.9814  1.7095 -2.3689
 8036TIP3    H248304   5.243   3.055   1.563  1.3127  1.6415  0.0202
 8037TIP3   OH248305   6.028   4.056   3.460  0.3124 -0.0801  0.5656
 8037TIP3    H148306   6.013   3.965   3.434 -0.9604 -0.4230  2.3777
 8037TIP3    H248307   5.949   4.103   3.433  1.1739  0.6713 -0.8503
 8038TIP3   OH248308   6.460   5.300   2.005 -0.1253  0.3293  0.4175
 8038TIP3    H148309   6.447   5.372   2.067  0.5952  0.3477  0.5606
 8038TIP3    H248310   6.376   5.254   2.004 -0.6429  1.2576  0.2041
 8039TIP3   OH248311   2.603   4.564   0.491 -0.7174  0.3869 -0.0941
 8039TIP3    H148312   2.547   4.622   0.440  0.6998  1.6546 -0.2950
 8039TIP3    H248313   2.581   4.582   0.582 -1.1758  0.2893 -0.1826
 8040TIP3   OH248314   3.133   1.977   3.079  0.5063  0.0796  0.3328
 8040TIP3    H148315   3.213   1.925   3.068 -0.0116 -1.2757  2.4347
 8040TIP3    H248316   3.165   2.067   3.090  1.6913 -0.3478  0.5359
 8041TIP3   OH248317   7.246   3.751   1.679  0.1098  0.2698  0.1043
 8041TIP3    H148318   7.225   3.786   1.766  1.5255  1.7294 -0.0818
 8041TIP3    H248319   7.324   3.800   1.652 -0.4613  0.0574 -2.1239
 8042TIP3   OH248320   0.958   4.033   1.152  0.2683 -0.1209 -1.2101
 8042TIP3    H148321   1.046   4.069   1.169  0.6855 -1.2620 -0.8853
 8042TIP3    H248322   0.899   4.102   1.180  1.0482  0.1949 -0.2883
 8043TIP3   OH248323   6.290   4.776   0.559  0.2442 -0.0586  0.5078
 8043TIP3    H148324   6.240   4.850   0.524 -1.4694 -0.8067  1.2804
 8043TIP3    H248325   6.367   4.817   0.600 -0.5813  1.2882  0.7880
 8044TIP3   OH248326   3.415   4.651   1.388  0.4330  0.3945 -0.0966
 8044TIP3    H148327   3.405   4.644   1.293 -0.5396 -0.2577  0.0303
 8044TIP3    H248328   3.329   4.626   1.422  0.6803  0.9272  0.9464
 8045TIP3   OH248329   6.506   3.532   1.498 -0.6636  0.3735 -0.3337
 8045TIP3    H148330   6.555   3.449   1.494 -1.1356  0.0445  0.4163
 8045TIP3    H248331   6.549   3.588   1.433  1.5162  0.5170  1.1042
 8046TIP3   OH248332   5.406   0.342   0.579 -0.0813 -0.1721  0.1181
 8046TIP3    H148333   5.360   0.423   0.557 -1.5201  0.0549  3.4223
 8046TIP3    H248334   5.493   0.370   0.606 -1.0012  0.5259  2.5536
 8047TIP3   OH248335   0.738   7.181   1.452 -0.3825  0.0920 -0.0276
 8047TIP3    H148336   0.649   7.188   1.487 -0.3720  0.1905 -0.0183
 8047TIP3    H248337   0.750   7.261   1.400 -0.2348  0.1714  0.1252
 8048TIP3   OH248338   5.775   2.905   1.237  0.1483 -0.2267 -0.0846
 8048TIP3    H148339   5.848   2.967   1.240 -0.5675  0.6669 -0.8469
 8048TIP3    H248340   5.783   2.855   1.319  1.0199  0.5257  0.3068
 8049TIP3   OH248341   7.252   5.973   0.948 -0.2130  0.0934 -0.9302
 8049TIP3    H148342   7.340   6.009   0.958 -0.2128 -0.2699  0.5547
 8049TIP3    H248343   7.200   6.018   1.014 -0.6540 -1.1748 -0.3825
 8050TIP3   OH248344   4.806   7.006   1.764  0.1478 -0.1575 -0.5042
 8050TIP3    H148345   4.753   7.048   1.696 -2.5580  0.0786  1.5616
 8050TIP3    H248346   4.750   6.935   1.797  3.0240 -2.9469 -1.2227
 8051TIP3   OH248347   6.099   3.280   1.050 -0.3634  0.8861  0.3703
 8051TIP3    H148348   6.151   3.200   1.039 -1.4634  0.2566 -0.4169
 8051TIP3    H248349   6.158   3.350   1.022 -0.2421  0.0889 -1.4864
 8052TIP3   OH248350   2.709   6.134   0.492  0.6463  0.1750  0.1356
 8052TIP3    H148351   2.669   6.047   0.498  1.6839 -0.4089 -0.9917
 8052TIP3    H248352   2.636   6.192   0.473 -0.0183 -0.4841  0.5909
 8053TIP3   OH248353   1.297   0.455   1.244 -0.4634  0.1251  0.0116
 8053TIP3    H148354   1.239   0.390   1.283 -1.5709  0.1634 -1.4616
 8053TIP3    H248355   1.281   0.447   1.150  0.7926  1.2287 -0.3251
 8054TIP3   OH248356   0.416   2.025   3.264 -0.5238 -0.1517  0.8093
 8054TIP3    H148357   0.403   2.074   3.345 -2.5445  0.1212  0.3630
 8054TIP3    H248358   0.421   2.092   3.196  1.2173 -0.3783  0.6675
 8055TIP3   OH248359   6.745   0.530   0.566  0.2167  0.0221  0.5589
 8055TIP3    H148360   6.836   0.510   0.546 -0.2589 -1.7768 -0.0343
 8055TIP3    H248361   6.695   0.466   0.515 -1.4215  1.5254  0.2061
 8056TIP3   OH248362   4.073   0.350   1.532 -0.1619 -0.1903  0.3806
 8056TIP3    H148363   4.166   0.374   1.528  0.2332 -1.4849  1.0786
 8056TIP3    H248364   4.059   0.324   1.623 -1.1258 -0.3448  0.1979
 8057TIP3   OH248365   3.423   5.404   3.148  0.2432 -0.1332  0.0128
 8057TIP3    H148366   3.492   5.340   3.161 -0.0152 -0.0446  2.1815
 8057TIP3    H248367   3.463   5.488   3.170 -0.2175  0.0680  0.1108
 8058TIP3   OH248368   2.570   4.780   3.125 -0.4532 -0.6394 -0.2612
 8058TIP3    H148369   2.533   4.752   3.209 -1.1051 -0.4464 -0.4766
 8058TIP3    H248370   2.514   4.852   3.096 -0.2794 -0.7497 -0.8990
 8059TIP3   OH248371   6.124   3.747   2.461  0.2603 -0.5890 -0.5556
 8059TIP3    H148372   6.060   3.677   2.472 -0.9445  0.4435 -0.8710
 8059TIP3    H248373   6.075   3.820   2.422  1.7794 -0.0261 -1.5243
 8060TIP3   OH248374   4.297   5.078   2.537 -0.4741 -0.0644 -0.3589
 8060TIP3    H148375   4.267   5.038   2.455 -1.7205  0.4740 -0.1932
 8060TIP3    H248376   4.255   5.026   2.606 -1.5390  1.0477 -0.1326
 8061TIP3   OH248377   6.798   4.369   0.732 -0.4276  0.3605 -0.0260
 8061TIP3    H148378   6.719   4.331   0.772 -0.8729 -0.6757 -1.7864
 8061TIP3    H248379   6.767   4.448   0.689 -0.5937 -0.2206 -0.9969
 8062TIP3   OH248380   5.660   4.623   0.998 -0.2484  0.0120 -0.0939
 8062TIP3    H148381   5.573   4.614   1.037 -0.4039  1.6754  0.0246
 8062TIP3    H248382   5.708   4.680   1.058  0.6936 -0.2699 -0.5416
 8063TIP3   OH248383   1.095   3.496   0.838  0.0749 -0.1189  0.1763
 8063TIP3    H148384   1.005   3.526   0.828  0.7232  1.4329 -1.6037
 8063TIP3    H248385   1.108   3.435   0.765  0.7003  0.3517 -0.1201
 8064TIP3   OH248386   6.250   4.329   1.403  0.3809 -0.3652  0.2574
 8064TIP3    H148387   6.272   4.410   1.357  0.1378  0.3615  1.3767
 8064TIP3    H248388   6.225   4.268   1.334 -0.6995  0.9033 -0.5226
 8065TIP3   OH248389   6.162   4.970   1.284  0.1588 -0.1817 -0.9892
 8065TIP3    H148390   6.251   4.953   1.253  1.1172  0.7650  1.0248
 8065TIP3    H248391   6.116   4.887   1.275  1.4090 -0.8282 -1.5596
 8066TIP3   OH248392   3.680   6.844   3.213  0.9121 -0.2558  0.6402
 8066TIP3    H148393   3.594   6.875   3.183  1.3254  0.1765 -0.1481
 8066TIP3    H248394   3.666   6.751   3.233  0.2499 -0.1823  0.5563
 8067TIP3   OH248395   4.908   3.043   2.826  0.1229  0.2197 -0.3904
 8067TIP3    H148396   4.939   3.132   2.812  0.2825  0.1437 -0.5123
 8067TIP3    H248397   4.938   2.994   2.750  3.1382 -0.7716  1.2721
 8068TIP3   OH248398   4.349   6.910   1.897  0.2293 -0.3641 -0.3836
 8068TIP3    H148399   4.340   6.842   1.831 -0.7531 -1.7763  1.1042
 8068TIP3    H248400   4.258   6.931   1.921  0.5614  0.3104  0.3112
 8069TIP3   OH248401   5.845   7.096   1.991 -0.5078 -0.3225 -0.3921
 8069TIP3    H148402   5.766   7.042   1.996 -0.8739  0.3179  2.1291
 8069TIP3    H248403   5.917   7.034   2.007 -0.4172 -0.9219 -2.7860
 8070TIP3   OH248404   3.877   5.742   1.835  0.5031  0.0341  0.1536
 8070TIP3    H148405   3.869   5.778   1.746  0.0036  0.1049  0.2213
 8070TIP3    H248406   3.875   5.647   1.823 -1.6179  0.0268  0.2328
 8071TIP3   OH248407   3.725   7.353   1.578 -0.0075  0.7187 -0.4705
 8071TIP3    H148408   3.632   7.332   1.570  0.0412  0.3876 -0.2186
 8071TIP3    H248409   3.767   7.269   1.598  0.1289  1.1273  1.1450
 8072TIP3   OH248410   5.842   1.839   3.142 -0.7065 -0.3161 -0.1234
 8072TIP3    H148411   5.780   1.850   3.214  0.9977 -0.6516  1.4863
 8072TIP3    H248412   5.876   1.750   3.154 -0.6208 -0.5024 -1.5747
 8073TIP3   OH248413   6.351   2.704   1.181  0.6488  0.6588 -0.2729
 8073TIP3    H148414   6.392   2.773   1.129  2.6697 -0.0302  0.3415
 8073TIP3    H248415   6.269   2.685   1.134  0.1990  3.1575 -0.6701
 8074TIP3   OH248416   2.103   2.425   3.349 -0.4652 -0.1185 -0.4405
 8074TIP3    H148417   2.175   2.425   3.286 -0.6903  0.5535 -0.6997
 8074TIP3    H248418   2.091   2.332   3.370  2.4455 -0.1086  1.9181
 8075TIP3   OH248419   1.605   6.009   1.675 -0.4528  0.2743  0.0049
 8075TIP3    H148420   1.545   6.065   1.724 -1.4187  0.7557 -1.6541
 8075TIP3    H248421   1.548   5.953   1.623  0.5418 -0.3478 -0.4387
 8076TIP3   OH248422   0.821   3.369   1.439 -0.7606  0.9806  0.0032
 8076TIP3    H148423   0.816   3.300   1.373 -1.1234  0.6006  0.4170
 8076TIP3    H248424   0.763   3.437   1.406  1.6536  2.3451 -1.7944
 8077TIP3   OH248425   4.909   0.222   1.390  0.1666  0.3148  0.2731
 8077TIP3    H148426   4.948   0.135   1.392  2.0800  1.1255 -0.1730
 8077TIP3    H248427   4.834   0.216   1.450  1.7543 -0.9568  2.2647
 8078TIP3   OH248428   1.283   1.344   2.436  0.2492 -0.3837 -0.3771
 8078TIP3    H148429   1.190   1.360   2.421  0.7218  1.0565 -2.1423
 8078TIP3    H248430   1.295   1.357   2.530 -1.9523 -4.4553  0.6797
 8079TIP3   OH248431   4.535   7.602   1.173 -0.6970 -0.1469 -0.1036
 8079TIP3    H148432   4.561   7.682   1.126  1.2305 -1.1382 -0.8234
 8079TIP3    H248433   4.482   7.554   1.110  0.1163 -0.4978 -0.5354
 8080TIP3   OH248434   6.579   6.724   2.096  0.1712  0.3969  1.3649
 8080TIP3    H148435   6.614   6.635   2.093 -1.2678 -0.1760  0.4954
 8080TIP3    H248436   6.508   6.720   2.160 -0.6810  0.6010  0.4514
 8081TIP3   OH248437   0.052   6.633   0.795  0.2242  0.2162 -0.6881
 8081TIP3    H148438   0.097   6.697   0.850 -0.6371 -1.6036  2.3986
 8081TIP3    H248439   0.093   6.549   0.818 -1.0529 -0.8038 -1.9350
 8082TIP3   OH248440   3.241   5.941   3.172 -0.1376 -0.3463 -0.6978
 8082TIP3    H148441   3.162   5.893   3.196  0.5961 -1.3394 -0.2105
 8082TIP3    H248442   3.209   6.014   3.119 -1.6792  1.0742  1.9686
 8083TIP3   OH248443   0.781   0.122   1.963 -0.1645  0.1799 -0.7572
 8083TIP3    H148444   0.861   0.069   1.957 -1.1695 -1.3255 -1.4595
 8083TIP3    H248445   0.770   0.139   2.057  0.5103 -0.3537 -0.5735
 8084TIP3   OH248446   3.869   5.332   1.926  0.5501 -0.2574  0.2223
 8084TIP3    H148447   3.922   5.289   1.993 -1.2033 -1.0260  1.1889
 8084TIP3    H248448   3.796   5.371   1.975  0.7978  1.7314 -0.9276
 8085TIP3   OH248449   0.629   2.833   0.503  0.1648  0.3764  0.1831
 8085TIP3    H148450   0.586   2.918   0.498  0.8970  0.9342  2.2350
 8085TIP3    H248451   0.711   2.851   0.549  1.0000 -1.2213 -0.6113
 8086TIP3   OH248452   5.973   5.164   0.620 -0.1961  0.4409  0.2066
 8086TIP3    H148453   5.976   5.135   0.711 -1.8490  0.6906  0.3745
 8086TIP3    H248454   5.931   5.250   0.624 -2.0414 -0.3346 -0.9117
 8087TIP3   OH248455   7.433   1.996   2.789 -0.3304 -0.1861  0.2032
 8087TIP3    H148456   7.406   1.928   2.851  0.5845 -1.4373 -0.7109
 8087TIP3    H248457   7.484   2.057   2.840 -1.4840  0.0457  1.1280
 8088TIP3   OH248458   1.572   4.884   0.961 -0.5488 -0.1661  0.6318
 8088TIP3    H148459   1.655   4.849   0.928  0.5046  0.1717  2.7759
 8088TIP3    H248460   1.508   4.858   0.895  1.3096 -0.0196 -1.3586
 8089TIP3   OH248461   0.055   4.085   2.115  0.1223 -0.1655 -0.6687
 8089TIP3    H148462   0.054   4.180   2.098  1.7088 -0.0501 -0.3579
 8089TIP3    H248463  -0.002   4.048   2.049 -0.0126  0.9598 -1.2133
 8090TIP3   OH248464   1.641   6.038   2.125  0.2670 -0.2037  0.3315
 8090TIP3    H148465   1.648   6.125   2.086  0.1583 -0.5576 -0.5035
 8090TIP3    H248466   1.598   6.052   2.209 -1.1133  0.3786 -0.4504
 8091TIP3   OH248467   5.554   0.105   2.335 -0.6036 -0.2020  0.2395
 8091TIP3    H148468   5.484   0.066   2.386 -0.8461 -2.0964 -1.4378
 8091TIP3    H248469   5.538   0.076   2.245  2.8910 -1.6578 -0.0649
 8092TIP3   OH248470   6.189   2.957   0.531  0.1860  0.1392 -0.2197
 8092TIP3    H148471   6.248   2.881   0.526  0.8886  0.7165 -0.7776
 8092TIP3    H248472   6.242   3.031   0.502 -0.3572  0.9325  0.7629
 8093TIP3   OH248473   6.342   6.071   1.966  0.3253  0.6696  0.5079
 8093TIP3    H148474   6.289   5.993   1.949 -1.0294  1.5115  0.6993
 8093TIP3    H248475   6.282   6.145   1.953  1.3672  1.6583  1.0499
 8094TIP3   OH248476   5.938   4.760   1.295  0.1674 -0.1327  0.7910
 8094TIP3    H148477   5.957   4.766   1.388  1.5080 -0.1880  0.5289
 8094TIP3    H248478   5.843   4.774   1.289  0.3356  1.7062  1.9625
 8095TIP3   OH248479   2.394   3.877   2.203  0.3377 -0.3796 -0.5018
 8095TIP3    H148480   2.354   3.926   2.131  1.4942 -0.3174 -1.1283
 8095TIP3    H248481   2.396   3.939   2.276 -0.2398 -0.2284 -0.6069
 8096TIP3   OH248482   4.347   2.463   1.975  0.4742  0.5834  0.3152
 8096TIP3    H148483   4.264   2.440   2.017  1.3636 -0.1593  1.7537
 8096TIP3    H248484   4.353   2.403   1.900  0.4848 -0.5232  1.1782
 8097TIP3   OH248485   2.061   3.055   2.894 -0.4539  0.2419 -0.0992
 8097TIP3    H148486   2.022   2.983   2.944 -0.5616 -0.4773 -1.1843
 8097TIP3    H248487   2.151   3.027   2.877  0.6786  1.9237  2.4468
 8098TIP3   OH248488   4.887   1.012   2.118 -0.1393  0.1219  0.1923
 8098TIP3    H148489   4.953   0.943   2.110  0.2795  0.7229 -2.2767
 8098TIP3    H248490   4.890   1.038   2.210  0.8908 -1.9535  0.7907
 8099TIP3   OH248491   5.824   2.743   1.439  0.3176  0.0963  0.4477
 8099TIP3    H148492   5.772   2.672   1.401  1.5583 -0.2747 -0.6479
 8099TIP3    H248493   5.869   2.703   1.513  0.6888 -0.1648  0.0867
 8100TIP3   OH248494   2.568   1.261   1.202 -0.0943  0.1080 -0.1030
 8100TIP3    H148495   2.602   1.265   1.291  1.2329  0.8689 -0.5982
 8100TIP3    H248496   2.595   1.175   1.169 -0.9299 -0.3327  0.3441
 8101TIP3   OH248497   0.942   3.914   0.917  0.3280 -0.5929  0.1268
 8101TIP3    H148498   0.944   3.966   0.997  1.1427 -1.1394  0.4756
 8101TIP3    H248499   1.032   3.918   0.883 -0.0087 -0.3537 -0.7744
 8102TIP3   OH248500   3.747   6.976   2.263  0.1189 -0.0545 -0.2134
 8102TIP3    H148501   3.825   6.990   2.211 -0.1971  1.4675 -0.3039
 8102TIP3    H248502   3.776   6.983   2.353  0.2944 -0.6730 -0.2181
 8103TIP3   OH248503   2.462   2.293   1.856  0.3369 -0.2474  0.3143
 8103TIP3    H148504   2.523   2.356   1.894  0.0757 -0.1965  0.6558
 8103TIP3    H248505   2.447   2.324   1.767  1.3037 -0.6199  0.0121
 8104TIP3   OH248506   6.605   4.429   1.665 -0.0026 -0.0352 -0.0832
 8104TIP3    H148507   6.557   4.401   1.743  2.1868  0.6603  1.5966
 8104TIP3    H248508   6.571   4.517   1.647 -0.3762 -0.1178  0.1985
 8105TIP3   OH248509   6.614   2.951   1.316 -0.0629 -0.0741  0.1344
 8105TIP3    H148510   6.558   2.943   1.238  1.5450 -0.1506 -1.0695
 8105TIP3    H248511   6.669   3.028   1.298  0.3365 -0.0928  1.2079
 8106TIP3   OH248512   1.949   1.619   1.405 -0.2676 -0.1709  0.4018
 8106TIP3    H148513   1.857   1.638   1.384 -0.7091 -0.5470  1.8711
 8106TIP3    H248514   1.971   1.547   1.346 -0.0172  1.6389 -1.8959
 8107TIP3   OH248515   6.839   1.072   1.876 -0.0721  0.1397  0.1895
 8107TIP3    H148516   6.916   1.112   1.915  1.2201 -1.8114 -0.2290
 8107TIP3    H248517   6.825   1.120   1.795  1.4423 -0.2275 -0.3112
 8108TIP3   OH248518   1.505   2.663   1.671  0.1682 -0.1491 -0.0479
 8108TIP3    H148519   1.570   2.599   1.702  0.5308  0.7820  1.1600
 8108TIP3    H248520   1.557   2.733   1.632 -0.0737  0.6504  1.0147
 8109TIP3   OH248521   0.479   3.424   1.989 -0.2304 -0.3135  0.0765
 8109TIP3    H148522   0.540   3.471   1.932  0.9287 -1.3634  0.4199
 8109TIP3    H248523   0.523   3.419   2.073 -0.2303 -2.1288  0.0159
 8110TIP3   OH248524   1.646   0.964   2.550  0.0990  0.2933  0.0396
 8110TIP3    H148525   1.641   1.056   2.577  0.5929  0.4798 -0.4848
 8110TIP3    H248526   1.626   0.965   2.457 -0.1193 -0.1641  0.0774
 8111TIP3   OH248527   4.317   0.168   1.252 -0.5027 -0.1907 -0.7432
 8111TIP3    H148528   4.264   0.233   1.299  0.2763  1.0596 -1.5624
 8111TIP3    H248529   4.324   0.202   1.163  1.4146 -0.4670 -0.7374
 8112TIP3   OH248530   3.256   7.616   0.860 -0.4004 -0.1137 -0.6900
 8112TIP3    H148531   3.294   7.574   0.937 -0.6587 -1.6190 -1.3333
 8112TIP3    H248532   3.166   7.636   0.886  0.3794  2.3156  0.4158
 8113TIP3   OH248533   0.018   4.177   1.521 -0.0022 -0.0464 -0.3686
 8113TIP3    H148534   0.031   4.105   1.460  0.2921  0.0999 -0.4811
 8113TIP3    H248535  -0.067   4.159   1.562  0.9572 -1.5131  1.0633
 8114TIP3   OH248536   1.350   4.500   0.775  0.1635 -0.0615  0.2637
 8114TIP3    H148537   1.289   4.476   0.705  1.2488  0.3893 -0.8760
 8114TIP3    H248538   1.433   4.462   0.748  0.0662 -2.2640  2.7023
 8115TIP3   OH248539   2.886   4.239   3.178 -0.1225 -0.0347  0.1949
 8115TIP3    H148540   2.961   4.262   3.232  0.2259  1.3309 -0.7996
 8115TIP3    H248541   2.895   4.145   3.162  1.4605  0.1251 -0.0049
 8116TIP3   OH248542   1.423   7.328   1.272 -0.0984 -0.0555 -0.0929
 8116TIP3    H148543   1.504   7.277   1.271  0.1762  0.3647  0.4116
 8116TIP3    H248544   1.380   7.305   1.190 -0.2950 -1.5985  0.4042
 8117TIP3   OH248545   3.315   3.909   2.873  0.1626  0.1453  0.2450
 8117TIP3    H148546   3.338   3.989   2.920 -1.3008 -0.6561  2.4822
 8117TIP3    H248547   3.394   3.855   2.878  0.2384  0.3333  1.2457
 8118TIP3   OH248548   0.581   2.887   1.757 -0.2273  0.1535  0.0947
 8118TIP3    H148549   0.660   2.861   1.805 -0.0932  0.9101  0.2918
 8118TIP3    H248550   0.596   2.978   1.733 -0.2690 -0.2178 -1.4457
 8119TIP3   OH248551   5.067   6.632   1.270  0.1038  0.3320  0.2420
 8119TIP3    H148552   5.151   6.588   1.258 -0.2066 -0.0492 -0.6170
 8119TIP3    H248553   5.028   6.634   1.182 -0.9443  0.1816  0.6871
 8120TIP3   OH248554   3.304   2.736   2.328 -0.6485  0.3617  0.0980
 8120TIP3    H148555   3.312   2.735   2.423  0.0338 -0.3242  0.0492
 8120TIP3    H248556   3.395   2.739   2.297 -0.8035 -0.8042 -0.5204
 8121TIP3   OH248557   2.412   3.181   0.880 -0.5191  0.1956  1.1305
 8121TIP3    H148558   2.347   3.207   0.944 -2.2034 -0.3979 -0.2596
 8121TIP3    H248559   2.473   3.255   0.876 -1.2221  0.8641  2.3168
 8122TIP3   OH248560   6.366   4.243   8.834  0.1182  0.3322  0.0313
 8122TIP3    H148561   6.430   4.172   8.839 -0.0257  0.3129  2.4875
 8122TIP3    H248562   6.405   4.315   8.883 -0.9921  0.9345  0.0692
 8123TIP3   OH248563   5.136   6.187   1.098  0.2664 -0.1294 -0.4964
 8123TIP3    H148564   5.137   6.220   1.008  1.0535 -0.6475 -0.6900
 8123TIP3    H248565   5.223   6.209   1.133 -0.3038  0.7824  0.4200
 8124TIP3   OH248566   4.315   6.746   1.672 -0.1845 -0.4388 -0.0496
 8124TIP3    H148567   4.229   6.710   1.651 -0.0599 -2.0123  1.8666
 8124TIP3    H248568   4.368   6.670   1.694  0.8109  0.7064  1.7469
 8125TIP3   OH248569   4.613   7.631   2.477 -0.0327 -0.1517 -0.2638
 8125TIP3    H148570   4.614   7.580   2.558  0.9856 -0.2885 -0.3470
 8125TIP3    H248571   4.655   7.574   2.412 -0.8678 -0.0582 -0.9076
 8126TIP3   OH248572   1.038   6.248   3.097 -0.1271 -0.2190  0.1917
 8126TIP3    H148573   0.994   6.168   3.128 -1.4373  0.2392 -0.4352
 8126TIP3    H248574   1.129   6.222   3.089 -0.2097 -1.1546  1.7118
 8127TIP3   OH248575   3.075   4.019   1.049 -0.5178 -0.3504  0.5264
 8127TIP3    H148576   3.007   4.086   1.052  1.8089  2.4125 -2.2517
 8127TIP3    H248577   3.082   3.995   0.956  2.6974  0.0539  0.5493
 8128TIP3   OH248578   6.865   7.268   1.565 -0.3142 -0.0058 -0.2388
 8128TIP3    H148579   6.846   7.184   1.607  0.1030 -0.1087 -0.2561
 8128TIP3    H248580   6.816   7.332   1.617  1.8721  0.1504  1.7482
 8129TIP3   OH248581   0.687   4.169   2.743  0.0368  0.2596  0.4278
 8129TIP3    H148582   0.703   4.223   2.820  0.9501 -0.0983  0.4992
 8129TIP3    H248583   0.771   4.127   2.725  0.1426  1.1189 -1.3740
 8130TIP3   OH248584   0.527   1.524   1.016 -0.0239  0.1039  0.2417
 8130TIP3    H148585   0.600   1.564   0.969 -0.4017  1.2285  0.5851
 8130TIP3    H248586   0.497   1.453   0.959  0.0981  0.8778 -0.7995
 8131TIP3   OH248587   6.387   6.738   2.301 -0.3271  0.5816 -0.5628
 8131TIP3    H148588   6.390   6.694   2.386  1.4906 -1.7891 -1.7324
 8131TIP3    H248589   6.383   6.831   2.323  0.5514  0.0920  2.1298
 8132TIP3   OH248590   0.101   5.810   2.364  0.2480 -0.1950  0.1348
 8132TIP3    H148591   0.077   5.824   2.456 -1.9964 -1.9674 -0.1051
 8132TIP3    H248592   0.083   5.894   2.322  0.8818  0.5029  1.1962
 8133TIP3   OH248593   2.068   2.960   0.796  0.6318 -0.6012  0.1493
 8133TIP3    H148594   2.067   3.055   0.795  0.5205 -0.6067 -0.7094
 8133TIP3    H248595   1.977   2.935   0.812  0.8019 -0.5634  1.2167
 8134TIP3   OH248596   1.468   6.157   7.313  0.0435 -0.4674 -0.1341
 8134TIP3    H148597   1.470   6.139   7.218 -0.0248 -0.5732 -0.1164
 8134TIP3    H248598   1.430   6.077   7.351  0.2171 -0.4870 -0.0027
 8135TIP3   OH248599   1.746   4.454   1.134  0.0929  0.1289  0.1183
 8135TIP3    H148600   1.679   4.502   1.183 -0.0360  0.7352 -0.6382
 8135TIP3    H248601   1.697   4.390   1.082  0.1701  0.0365  0.1583
 8136TIP3   OH248602   4.479   1.791   1.610  0.1381 -0.6562 -0.3461
 8136TIP3    H148603   4.383   1.788   1.609  0.0579 -0.1657  1.2908
 8136TIP3    H248604   4.506   1.700   1.617 -0.2818 -0.7309  0.4866
 8137TIP3   OH248605   6.762   6.935   2.090  0.1726  0.0625 -0.2918
 8137TIP3    H148606   6.705   6.859   2.077  1.7330 -1.7534  2.3592
 8137TIP3    H248607   6.731   6.973   2.172 -0.2070  2.0180 -1.2890
 8138TIP3   OH248608   1.639   6.280   0.898 -0.0330  0.7103  0.0581
 8138TIP3    H148609   1.684   6.200   0.928 -0.5603 -0.0749 -1.1783
 8138TIP3    H248610   1.562   6.286   0.955 -1.4894 -1.2416 -1.5396
 8139TIP3   OH248611   5.527   5.988   1.305 -0.0376  0.1065  0.1590
 8139TIP3    H148612   5.555   6.064   1.254 -0.0217 -0.7261 -1.1005
 8139TIP3    H248613   5.484   5.931   1.242  1.6632 -1.8371  0.6677
 8140TIP3   OH248614   7.254   4.796   1.193  0.1351 -0.3138  0.1873
 8140TIP3    H148615   7.248   4.712   1.146 -2.6009  0.2933 -0.7046
 8140TIP3    H248616   7.332   4.838   1.155  0.1710 -1.4436 -1.0945
 8141TIP3   OH248617   4.712   4.519   1.008 -0.3689 -0.0260 -0.3291
 8141TIP3    H148618   4.763   4.581   0.956  1.8957 -1.2384  0.3114
 8141TIP3    H248619   4.666   4.573   1.072  3.0389  0.9561  1.4695
 8142TIP3   OH248620   1.871   6.548   0.937 -0.2566  0.0164  0.3394
 8142TIP3    H148621   1.957   6.548   0.980 -0.8890  0.9970  1.6799
 8142TIP3    H248622   1.827   6.470   0.969  0.6513 -1.3402 -1.5417
 8143TIP3   OH248623   6.013   7.300   2.132 -0.2726  0.1331 -0.6462
 8143TIP3    H148624   5.956   7.237   2.088 -1.3390 -0.4455  1.4442
 8143TIP3    H248625   5.954   7.349   2.190  1.2992 -0.3408  1.4409
 8144TIP3   OH248626   6.746   5.586   1.981 -0.4597 -0.0112  0.0400
 8144TIP3    H148627   6.748   5.576   1.885 -0.1870  0.0727  0.0368
 8144TIP3    H248628   6.708   5.672   1.995  1.2910  0.8302 -0.0517
 8145TIP3   OH248629   4.494   5.520   1.277 -0.1639 -0.1418 -0.0384
 8145TIP3    H148630   4.518   5.607   1.245  4.7014 -0.9018  0.7513
 8145TIP3    H248631   4.482   5.468   1.198  0.6854  0.4675 -0.5920
 8146TIP3   OH248632   7.151   6.473   2.677  0.2506  0.3722  0.3628
 8146TIP3    H148633   7.064   6.486   2.715  0.3040  3.3967 -0.2693
 8146TIP3    H248634   7.201   6.550   2.707  2.3255 -0.6272 -0.3568
 8147TIP3   OH248635   1.983   0.260   1.344 -0.2571  0.0893  0.5840
 8147TIP3    H148636   1.953   0.169   1.351 -2.7953  0.8533  0.6092
 8147TIP3    H248637   2.042   0.260   1.268 -3.4331 -0.9075 -2.1326
 8148TIP3   OH248638   0.222   1.540   3.141  0.0113  0.3289  0.4141
 8148TIP3    H148639   0.228   1.494   3.224 -2.2478 -0.8540 -0.0172
 8148TIP3    H248640   0.200   1.630   3.165  0.4878  0.2705  1.1062
 8149TIP3   OH248641   6.107   5.455   0.700  0.1932 -0.1278  0.1348
 8149TIP3    H148642   6.144   5.497   0.778 -0.6115  1.7272 -0.4219
 8149TIP3    H248643   6.013   5.474   0.705  0.2497  0.9849 -1.7808
 8150TIP3   OH248644   3.800   1.872   2.936  0.3373 -0.6822  0.0144
 8150TIP3    H148645   3.796   1.795   2.994  3.2829 -0.6175  0.4238
 8150TIP3    H248646   3.878   1.858   2.883  0.2969  1.5204 -0.6907
 8151TIP3   OH248647   6.457   1.581   1.181 -0.0127  0.3226  0.2927
 8151TIP3    H148648   6.419   1.546   1.100 -0.6616  1.1847  0.2114
 8151TIP3    H248649   6.395   1.556   1.250 -0.6650  1.5436  0.1898
 8152TIP3   OH248650   3.190   6.853   0.724  0.3774 -0.2279  0.1224
 8152TIP3    H148651   3.226   6.908   0.654  0.3676  1.8497  1.6694
 8152TIP3    H248652   3.264   6.801   0.754  0.1198 -2.1505 -2.2012
 8153TIP3   OH248653   7.025   3.384   0.761 -0.0311 -0.4859  0.0132
 8153TIP3    H148654   7.063   3.371   0.674  2.7201  0.7796  0.9236
 8153TIP3    H248655   7.020   3.296   0.798  0.8630 -0.8263 -0.6390
 8154TIP3   OH248656   4.535   4.605   1.288  0.6254 -0.3684  0.2223
 8154TIP3    H148657   4.503   4.519   1.313  0.1229  0.5277  2.8913
 8154TIP3    H248658   4.627   4.606   1.315  0.5236  0.0540  0.5720
 8155TIP3   OH248659   1.249   5.990   2.245 -0.0321 -0.2731  0.4110
 8155TIP3    H148660   1.333   5.995   2.291  0.3906 -1.4975 -0.1872
 8155TIP3    H248661   1.273   5.969   2.155 -0.9698 -0.2116  0.1440
 8156TIP3   OH248662   1.000   4.989   2.287  0.3923  0.2659 -0.3011
 8156TIP3    H148663   0.913   5.026   2.302 -1.3979 -3.3592 -0.5441
 8156TIP3    H248664   0.989   4.933   2.209  2.2020 -2.2260  1.0893
 8157TIP3   OH248665   1.373   7.297   2.593  0.5951 -0.0926 -0.0986
 8157TIP3    H148666   1.350   7.232   2.527  1.9363 -0.6020 -0.1010
 8157TIP3    H248667   1.415   7.247   2.663  0.0407  0.5592  0.7290
 8158TIP3   OH248668   7.581   5.693   1.994  0.2690  0.5017  0.1867
 8158TIP3    H148669   7.674   5.711   1.982  1.1201 -2.1855  1.6762
 8158TIP3    H248670   7.560   5.630   1.925  0.0528 -0.2425  0.9202
 8159TIP3   OH248671   4.004   3.211   2.552 -0.4112  0.1194 -0.0779
 8159TIP3    H148672   3.954   3.132   2.532  0.1008 -0.3969  0.6421
 8159TIP3    H248673   3.945   3.265   2.605 -0.8559  0.3481 -0.7924
 8160TIP3   OH248674   3.345   4.734   0.803  0.4410 -0.5243  0.1872
 8160TIP3    H148675   3.412   4.710   0.739 -0.5459  0.4132 -1.2441
 8160TIP3    H248676   3.264   4.699   0.766 -0.4418  1.6691 -0.0630
 8161TIP3   OH248677   4.889   1.433   2.326 -0.0234 -0.9408  0.1442
 8161TIP3    H148678   4.903   1.411   2.234 -0.4215 -1.6320  0.2410
 8161TIP3    H248679   4.799   1.407   2.343 -1.1289  2.2449 -0.1468
 8162TIP3   OH248680   6.558   2.660   0.480 -0.3619 -0.6256  0.1380
 8162TIP3    H148681   6.553   2.612   0.563 -0.0621 -1.9779 -0.5965
 8162TIP3    H248682   6.471   2.650   0.442 -0.8579  0.9835  0.7962
 8163TIP3   OH248683   5.085   5.131   2.270  0.5637 -0.2286 -0.6584
 8163TIP3    H148684   5.160   5.107   2.216 -0.4716 -1.2087 -1.7151
 8163TIP3    H248685   5.010   5.123   2.211 -0.4131  0.4031  0.4647
 8164TIP3   OH248686   0.596   2.233   0.985 -0.9811  0.1727  0.4369
 8164TIP3    H148687   0.598   2.241   1.080 -0.4135  0.5125  0.4006
 8164TIP3    H248688   0.529   2.296   0.957 -1.2163  0.0027  0.6134
 8165TIP3   OH248689   6.938   2.892   3.268  0.1370  0.1317 -0.0568
 8165TIP3    H148690   7.030   2.877   3.248  0.2558  0.8911 -0.1262
 8165TIP3    H248691   6.926   2.986   3.254 -0.9312 -0.1455 -1.2475
 8166TIP3   OH248692   0.047   6.146   2.287 -0.0426  0.6279  0.3957
 8166TIP3    H148693  -0.027   6.090   2.262  0.2933  0.4010 -0.1039
 8166TIP3    H248694   0.042   6.150   2.383  0.5481 -1.1661  0.5501
 8167TIP3   OH248695   1.266   7.349   3.393  0.1779 -0.6954 -0.0952
 8167TIP3    H148696   1.262   7.259   3.359 -0.2678 -0.8941  0.4624
 8167TIP3    H248697   1.208   7.348   3.469  0.3324  0.0168  0.0366
 8168TIP3   OH248698   5.599   3.107   1.096  0.0605 -0.8873 -0.1666
 8168TIP3    H148699   5.625   3.129   1.007  1.7510  0.8332  0.6864
 8168TIP3    H248700   5.667   3.048   1.128  0.6307  0.1582  0.6304
 8169TIP3   OH248701   3.785   2.129   2.958  0.3541 -0.0150 -0.4003
 8169TIP3    H148702   3.798   2.034   2.968  2.2255 -0.2163 -3.4256
 8169TIP3    H248703   3.741   2.138   2.873  0.3586  1.8673 -0.2428
 8170TIP3   OH248704   1.717   1.065   2.048 -0.1829  0.6431 -0.2801
 8170TIP3    H148705   1.691   1.022   2.130 -1.7995  0.3534 -0.9101
 8170TIP3    H248706   1.648   1.129   2.032  0.1910  0.7873 -1.3558
 8171TIP3   OH248707   0.335   2.544   2.611 -0.0981  0.2325 -1.0005
 8171TIP3    H148708   0.249   2.561   2.649  0.2241  0.2188 -0.2532
 8171TIP3    H248709   0.319   2.475   2.547 -0.5845 -0.0476 -0.5881
 8172TIP3   OH248710   2.703   4.648   1.821 -0.0059 -0.5439 -0.0124
 8172TIP3    H148711   2.764   4.721   1.808 -0.8536  0.0385 -0.8733
 8172TIP3    H248712   2.670   4.629   1.733 -0.5764 -1.2810  0.3554
 8173TIP3   OH248713   5.031   1.297   0.620  0.1509 -0.2263 -0.6837
 8173TIP3    H148714   5.003   1.205   0.619  0.6299 -0.4196  0.8023
 8173TIP3    H248715   5.126   1.293   0.626  0.0723  0.2883  1.9745
 8174TIP3   OH248716   4.956   6.193   2.424  0.1622 -0.1735  0.1461
 8174TIP3    H148717   4.917   6.109   2.399  2.0501 -1.7505  2.1080
 8174TIP3    H248718   5.014   6.214   2.350  1.9392 -2.2295  0.8157
 8175TIP3   OH248719   2.977   5.438   2.536  0.0289  0.2471 -0.0321
 8175TIP3    H148720   2.891   5.480   2.524 -1.2876 -2.3221 -0.3696
 8175TIP3    H248721   3.016   5.483   2.611 -0.6399  2.8878 -1.1469
 8176TIP3   OH248722   3.357   6.958   1.116  0.1046 -0.5613  0.1118
 8176TIP3    H148723   3.321   7.029   1.063  0.7039 -1.1321 -1.0987
 8176TIP3    H248724   3.294   6.887   1.107 -0.6250 -0.1260  1.5291
 8177TIP3   OH248725   6.505   1.232   2.820 -0.8186  0.1540 -0.2734
 8177TIP3    H148726   6.549   1.200   2.741 -2.1102 -1.0965 -0.5143
 8177TIP3    H248727   6.544   1.318   2.835 -0.0142  0.1049 -1.8430
 8178TIP3   OH248728   5.180   7.569   2.833  0.7598  0.1046  0.0918
 8178TIP3    H148729   5.239   7.494   2.845  0.4981 -0.0320  0.5384
 8178TIP3    H248730   5.092   7.531   2.839  0.6225  0.3321 -0.4264
 8179TIP3   OH248731   1.686   3.473   2.268 -0.4019 -0.1659 -0.6542
 8179TIP3    H148732   1.690   3.408   2.338 -0.7480  0.8483  0.3384
 8179TIP3    H248733   1.659   3.554   2.312 -1.7858  0.2232 -2.1597
 8180TIP3   OH248734   3.771   4.690   0.855 -0.2441 -0.0118 -0.0804
 8180TIP3    H148735   3.813   4.767   0.893  1.3393 -0.4254 -0.8919
 8180TIP3    H248736   3.715   4.656   0.925 -0.3346  1.3858  0.5655
 8181TIP3   OH248737   1.157   4.673   1.023 -0.1015 -0.1132 -0.3286
 8181TIP3    H148738   1.073   4.660   0.979  0.5563  0.1655 -1.7368
 8181TIP3    H248739   1.177   4.766   1.009  0.9262 -0.4064 -0.9586
 8182TIP3   OH248740   6.102   0.513   2.474 -0.2036  0.2147  0.3629
 8182TIP3    H148741   6.082   0.484   2.385  1.5707 -0.0823  0.0168
 8182TIP3    H248742   6.197   0.511   2.478 -0.2555 -0.0401  2.3668
 8183TIP3   OH248743   1.783   4.769   0.848 -0.0875 -0.0363 -0.2951
 8183TIP3    H148744   1.814   4.808   0.766  0.4689  0.5275  0.1708
 8183TIP3    H248745   1.851   4.705   0.871 -0.3944 -0.4139 -0.4247
 8184TIP3   OH248746   1.288   0.441   2.569 -0.3615 -0.5002  0.1448
 8184TIP3    H148747   1.332   0.485   2.642  0.4052 -0.0187 -0.5826
 8184TIP3    H248748   1.199   0.426   2.600 -0.4784  1.0404  0.6370
 8185TIP3   OH248749   6.298   6.318   2.382 -0.1364  0.6129  0.8059
 8185TIP3    H148750   6.370   6.368   2.421  0.4229 -0.7524  1.5858
 8185TIP3    H248751   6.331   6.228   2.377 -0.9702  0.3705 -0.9566
 8186TIP3   OH248752   0.482   6.256   2.507  0.1345 -0.1637  0.0533
 8186TIP3    H148753   0.469   6.313   2.582 -0.9248  0.5609 -0.6446
 8186TIP3    H248754   0.432   6.177   2.528  0.6048 -0.3497  0.4970
 8187TIP3   OH248755   4.287   3.797   2.324 -0.1734  0.5325  0.0676
 8187TIP3    H148756   4.225   3.735   2.286 -0.6442  1.5265 -0.8345
 8187TIP3    H248757   4.251   3.883   2.304  0.9530  1.1231  0.4580
 8188TIP3   OH248758   5.715   6.973   0.779  0.0992  0.2305  0.0257
 8188TIP3    H148759   5.659   7.020   0.841 -1.8682 -0.9152 -0.7875
 8188TIP3    H248760   5.686   7.003   0.693  1.8698  0.7907 -0.4148
 8189TIP3   OH248761   0.667   1.868   2.683 -0.3498 -0.0857  0.4058
 8189TIP3    H148762   0.706   1.890   2.768 -1.6388 -0.3757  1.0864
 8189TIP3    H248763   0.654   1.953   2.640  0.3129  0.0625  0.4785
 8190TIP3   OH248764   5.488   0.614   2.341 -0.6567 -0.1766  0.1147
 8190TIP3    H148765   5.469   0.646   2.254  0.4442  2.8733  0.8643
 8190TIP3    H248766   5.565   0.558   2.330  1.4057  2.6099 -0.6207
 8191TIP3   OH248767   0.840   6.707   1.648  0.2669 -0.5198 -0.4532
 8191TIP3    H148768   0.897   6.783   1.653 -0.3533 -0.1321  1.7135
 8191TIP3    H248769   0.898   6.633   1.629  0.9796  0.3477 -1.7335
 8192TIP3   OH248770   5.679   7.406   0.610 -0.1556  0.3020 -0.0235
 8192TIP3    H148771   5.760   7.413   0.661 -0.7289  1.6597  0.7636
 8192TIP3    H248772   5.624   7.477   0.644 -0.9117  0.6743 -1.9196
 8193TIP3   OH248773   6.692   5.096   1.554  0.0680  0.2070  0.0523
 8193TIP3    H148774   6.661   5.138   1.633  0.4132  0.7633 -0.1002
 8193TIP3    H248775   6.638   5.132   1.484  1.6666  2.0006 -0.3690
 8194TIP3   OH248776   0.110   4.650   1.971  0.2799 -0.3233  0.1193
 8194TIP3    H148777   0.166   4.703   2.027  0.4926 -1.3250  0.8870
 8194TIP3    H248778   0.031   4.634   2.023  0.1298 -0.5795 -0.1798
 8195TIP3   OH248779   0.514   2.638   0.370 -0.3720  0.5309 -0.3333
 8195TIP3    H148780   0.552   2.619   0.285  0.8382 -0.8900  0.4710
 8195TIP3    H248781   0.546   2.726   0.392  2.3936 -0.5279  0.2191
 8196TIP3   OH248782   0.845   5.131   1.328 -0.5374  0.2610  0.0641
 8196TIP3    H148783   0.780   5.195   1.299 -1.7746 -1.7242 -1.8691
 8196TIP3    H248784   0.799   5.080   1.395  0.3169  1.1314  1.3385
 8197TIP3   OH248785   3.227   1.585   1.149  0.0390 -0.0066  0.1021
 8197TIP3    H148786   3.241   1.678   1.166  0.2524 -0.3033  1.7649
 8197TIP3    H248787   3.247   1.573   1.056  2.1986  1.2097  0.3496
 8198TIP3   OH248788   5.773   3.433   1.679 -0.1426 -0.3591 -0.0519
 8198TIP3    H148789   5.692   3.387   1.656 -0.7677  0.6891  0.0260
 8198TIP3    H248790   5.787   3.412   1.771  0.2539 -1.3772 -0.3213
 8199TIP3   OH248791   2.139   5.830   2.488 -0.7011 -0.5483 -0.5562
 8199TIP3    H148792   2.230   5.833   2.516 -0.6905  0.8976 -0.6759
 8199TIP3    H248793   2.090   5.871   2.559 -0.7832  2.2478 -2.0678
 8200TIP3   OH248794   6.733   3.435   2.980 -0.1461 -0.5732  0.6928
 8200TIP3    H148795   6.745   3.518   3.026  1.3334 -0.8947  0.9251
 8200TIP3    H248796   6.661   3.392   3.027 -1.9475  1.1534 -0.3196
 8201TIP3   OH248797   4.181   0.999   1.591  0.6174 -0.2060  0.0166
 8201TIP3    H148798   4.171   1.069   1.654 -0.2209 -0.6264  0.3643
 8201TIP3    H248799   4.174   0.919   1.643 -0.1614 -0.5569 -0.6070
 8202TIP3   OH248800   4.951   1.914   1.246  0.7934  0.6609 -0.3253
 8202TIP3    H148801   4.924   1.869   1.325  2.0038  1.4408  0.5664
 8202TIP3    H248802   5.025   1.863   1.212 -0.0601  0.0217 -1.2769
 8203TIP3   OH248803   5.945   3.551   2.480 -0.1315  1.2910  0.1796
 8203TIP3    H148804   5.849   3.553   2.478 -0.2366  2.2873  2.6987
 8203TIP3    H248805   5.966   3.465   2.518  0.0793  0.5718 -1.4595
 8204TIP3   OH248806   4.933   5.589   2.454  0.0003  0.1982  0.4938
 8204TIP3    H148807   5.015   5.598   2.406 -0.8906 -0.2606 -1.1844
 8204TIP3    H248808   4.915   5.495   2.456  0.0570  0.1916  1.8523
 8205TIP3   OH248809   2.510   5.787   3.109 -0.7430  0.0305 -0.2670
 8205TIP3    H148810   2.517   5.879   3.082 -2.1968  0.7530  1.5820
 8205TIP3    H248811   2.490   5.740   3.028 -0.3505  1.3712 -1.1962
 8206TIP3   OH248812   4.894   1.816   3.098 -0.4410 -0.1624 -0.0174
 8206TIP3    H148813   4.975   1.775   3.066 -0.2772 -0.1407  0.3727
 8206TIP3    H248814   4.850   1.846   3.018 -0.0722 -0.1883 -0.2331
 8207TIP3   OH248815   5.034   6.335   2.205 -1.0955  0.2756 -0.1913
 8207TIP3    H148816   5.110   6.392   2.214  0.7474 -2.0565  0.0256
 8207TIP3    H248817   5.035   6.309   2.113 -2.2618  0.9972 -0.4235
 8208TIP3   OH248818   1.132   5.854   1.455  0.3168  0.8989 -0.4719
 8208TIP3    H148819   1.154   5.786   1.518  1.2075  2.0757  0.5503
 8208TIP3    H248820   1.064   5.815   1.400  1.9021 -1.3336 -0.9462
 8209TIP3   OH248821   3.801   1.697   1.550  0.3411  0.1696  0.3487
 8209TIP3    H148822   3.839   1.609   1.551  3.1633  1.2796  0.5458
 8209TIP3    H248823   3.773   1.710   1.459  1.9136 -0.1921 -0.2175
 8210TIP3   OH248824   2.970   6.776   1.614  0.1920 -0.1269 -0.0999
 8210TIP3    H148825   2.900   6.769   1.549 -0.7942  1.5247  0.7223
 8210TIP3    H248826   3.032   6.707   1.590 -0.0047  0.5532 -2.9128
 8211TIP3   OH248827   0.744   4.620   1.451  0.0818 -0.5981  0.2376
 8211TIP3    H148828   0.814   4.602   1.387 -0.4321  1.1813 -0.9083
 8211TIP3    H248829   0.786   4.607   1.536  1.3970 -0.9891 -0.4352
 8212TIP3   OH248830   0.735   6.651   1.239  0.2319 -0.0347  0.0082
 8212TIP3    H148831   0.699   6.727   1.284 -0.9834 -0.1036 -0.7905
 8212TIP3    H248832   0.827   6.649   1.265  0.4766  2.1138 -0.4817
 8213TIP3   OH248833   0.416   6.001   2.359  0.7942  0.1639 -0.3373
 8213TIP3    H148834   0.378   5.991   2.446 -0.8307 -1.1116 -1.1409
 8213TIP3    H248835   0.421   6.096   2.346 -0.8889  0.3883  0.3702
 8214TIP3   OH248836   6.598   6.672   2.922  0.0700 -0.1632 -0.0871
 8214TIP3    H148837   6.559   6.595   2.882 -0.0222 -0.6257  0.8727
 8214TIP3    H248838   6.612   6.648   3.013  0.9242  0.6219  0.0136
 8215TIP3   OH248839   6.212   6.321   1.930 -0.5373  0.2772  0.1750
 8215TIP3    H148840   6.177   6.399   1.971 -0.9574  0.0383  0.2778
 8215TIP3    H248841   6.295   6.349   1.891 -1.1382  0.9979 -0.6117
 8216TIP3   OH248842   2.357   0.082   1.454  0.0922  0.1007 -0.2722
 8216TIP3    H148843   2.315   0.015   1.508  1.0749 -0.3445 -0.0486
 8216TIP3    H248844   2.323   0.165   1.488  2.5500  0.0219  2.8108
 8217TIP3   OH248845   2.922   3.540   2.394  0.0825 -0.3710 -0.4010
 8217TIP3    H148846   2.881   3.608   2.448 -0.5140 -0.8616 -0.2214
 8217TIP3    H248847   3.012   3.570   2.381 -0.8135  1.6923 -2.3939
 8218TIP3   OH248848   1.354   0.151   1.585 -0.0558 -0.1804 -0.1162
 8218TIP3    H148849   1.371   0.236   1.545 -0.2123 -0.5167 -0.9067
 8218TIP3    H248850   1.431   0.098   1.563 -0.1886 -0.3992 -0.0568
 8219TIP3   OH248851   3.599   0.569   1.776 -0.0043  0.0033  0.3837
 8219TIP3    H148852   3.668   0.630   1.748  0.6201 -0.4016  1.0268
 8219TIP3    H248853   3.619   0.551   1.868 -1.8110  1.0210  1.0330
 8220TIP3   OH248854   1.518   4.671   2.794 -0.5137  0.0615  0.3172
 8220TIP3    H148855   1.549   4.621   2.718  0.2622  1.9766 -0.7154
 8220TIP3    H248856   1.586   4.659   2.860 -0.0223  0.2219 -0.1486
 8221TIP3   OH248857   2.323   3.499   0.889  0.4412 -0.3244  0.2259
 8221TIP3    H148858   2.270   3.442   0.833 -0.2104 -0.2772  0.7801
 8221TIP3    H248859   2.413   3.478   0.865  0.1838 -0.2484 -0.8927
 8222TIP3   OH248860   4.256   5.056   1.842 -0.3413 -0.5401  0.0281
 8222TIP3    H148861   4.208   5.105   1.775 -0.2712  0.1712  0.4851
 8222TIP3    H248862   4.329   5.017   1.795 -0.6091 -0.5157 -0.4180
 8223TIP3   OH248863   5.477   0.479   1.615  0.0287 -0.6318  0.1408
 8223TIP3    H148864   5.538   0.413   1.645  0.4650 -0.0293  0.6040
 8223TIP3    H248865   5.396   0.431   1.596  0.2150 -1.2356  0.8463
 8224TIP3   OH248866   3.285   1.095   1.601 -0.1486  0.2019 -0.2088
 8224TIP3    H148867   3.210   1.143   1.565  1.4039  2.7491 -0.2862
 8224TIP3    H248868   3.269   1.093   1.695 -0.9683 -0.5235 -0.3519
 8225TIP3   OH248869   7.537   4.213   2.548  0.8242  0.2867 -0.5299
 8225TIP3    H148870   7.585   4.271   2.606  2.2394 -0.7042 -0.6396
 8225TIP3    H248871   7.482   4.270   2.495  0.5548  1.3135  0.8290
 8226TIP3   OH248872   3.519   0.334   0.979  0.4239 -0.3923  0.3268
 8226TIP3    H148873   3.434   0.305   0.946  1.0789 -0.2876 -1.6160
 8226TIP3    H248874   3.499   0.387   1.056 -1.2821 -0.2377 -0.1938
 8227TIP3   OH248875   1.882   0.205   2.440 -0.3147 -0.4754 -0.4248
 8227TIP3    H148876   1.924   0.288   2.463  0.2834 -0.4388 -1.5677
 8227TIP3    H248877   1.899   0.196   2.346 -2.1970 -0.8602 -0.7498
 8228TIP3   OH248878   5.095   1.907   0.494  0.2041 -0.3333 -0.1142
 8228TIP3    H148879   5.081   1.963   0.570  2.2233 -0.5264  0.4531
 8228TIP3    H248880   5.032   1.835   0.505 -0.1004  0.0810  0.9123
 8229TIP3   OH248881   5.519   0.300   1.821  0.4347 -0.1667  0.1426
 8229TIP3    H148882   5.597   0.311   1.876 -0.6623 -0.4764  1.8490
 8229TIP3    H248883   5.451   0.352   1.865 -1.0681 -2.2032  0.3995
 8230TIP3   OH248884   7.026   1.946   0.777 -0.0787  0.4335 -0.1726
 8230TIP3    H148885   7.007   2.010   0.847  1.5860 -1.1138  1.8105
 8230TIP3    H248886   6.987   1.864   0.809  0.3603 -0.2235 -1.2827
 8231TIP3   OH248887   2.470   1.598   1.219  0.0233 -0.2402  0.0044
 8231TIP3    H148888   2.543   1.558   1.172  1.0637 -0.4182  1.7052
 8231TIP3    H248889   2.471   1.556   1.305 -1.1898  0.8028  0.5541
 8232TIP3   OH248890   2.117   4.679   2.230 -0.3382 -0.4387  0.2716
 8232TIP3    H148891   2.169   4.618   2.282 -0.2130  0.0356  0.7270
 8232TIP3    H248892   2.058   4.720   2.294 -1.4328 -1.1321 -0.2771
 8233TIP3   OH248893   7.329   5.188   2.497 -0.0545  0.3945 -0.4429
 8233TIP3    H148894   7.298   5.115   2.550 -0.6327  1.9780  1.5023
 8233TIP3    H248895   7.250   5.224   2.456  0.0431  0.7394 -0.3315
 8234TIP3   OH248896   5.300   2.729   1.857 -0.8599 -0.3397  0.3504
 8234TIP3    H148897   5.332   2.767   1.939  0.4968 -0.0088 -0.2949
 8234TIP3    H248898   5.294   2.803   1.797 -1.2860 -0.6636 -0.0065
 8235TIP3   OH248899   5.706   4.643   0.726 -0.3644  0.6412 -0.2541
 8235TIP3    H148900   5.654   4.584   0.672 -0.0189  0.4600 -0.3910
 8235TIP3    H248901   5.679   4.623   0.816 -0.4139  0.4358 -0.3149
 8236TIP3   OH248902   6.439   4.688   2.788 -0.2123 -0.1887 -0.7769
 8236TIP3    H148903   6.430   4.783   2.780 -1.6919 -0.3262 -0.8860
 8236TIP3    H248904   6.353   4.653   2.767  0.0297 -1.5071  0.2561
 8237TIP3   OH248905   2.583   1.696   2.937 -0.1066 -0.1281 -0.2100
 8237TIP3    H148906   2.575   1.711   2.842 -0.5456  2.0218  0.1220
 8237TIP3    H248907   2.496   1.715   2.971  0.0743 -0.8099  0.6479
 8238TIP3   OH248908   4.963   1.528   1.268 -0.0506  0.6112  0.0644
 8238TIP3    H148909   4.998   1.581   1.196  3.0484  0.4426  1.3086
 8238TIP3    H248910   4.927   1.591   1.330 -1.4880  0.8365 -0.9548
 8239TIP3   OH248911   7.291   6.132   3.132  0.3138 -0.3114 -0.2842
 8239TIP3    H148912   7.234   6.181   3.190 -0.1571 -1.1995  0.0292
 8239TIP3    H248913   7.375   6.177   3.136  1.0829 -1.7141  3.0848
 8240TIP3   OH248914   6.972   5.617   0.585  0.2226 -0.2392  0.0793
 8240TIP3    H148915   6.940   5.695   0.629 -0.4236  0.0784 -0.9365
 8240TIP3    H248916   7.053   5.644   0.542  0.5851 -0.4211  0.6347
 8241TIP3   OH248917   6.528   7.099   1.176 -0.1522  0.2718  0.3316
 8241TIP3    H148918   6.570   7.049   1.106 -0.9345  1.3131 -0.9441
 8241TIP3    H248919   6.442   7.058   1.186 -0.8605  1.3743 -0.8334
 8242TIP3   OH248920   0.530   4.939   2.367  0.4385 -0.1905  0.5909
 8242TIP3    H148921   0.551   5.014   2.423  0.3877  0.5428 -0.3497
 8242TIP3    H248922   0.608   4.884   2.370  1.4893  1.1570 -0.7073
 8243TIP3   OH248923   6.965   4.815   1.928 -0.3810 -0.2149  0.2675
 8243TIP3    H148924   6.947   4.828   2.021  0.0493 -0.2077  0.3531
 8243TIP3    H248925   6.929   4.728   1.909  0.5361 -0.7203  0.7250
 8244TIP3   OH248926   0.591   4.726   2.618 -0.3591 -0.2391  0.1791
 8244TIP3    H148927   0.682   4.750   2.632  0.2150 -3.3162  3.2065
 8244TIP3    H248928   0.594   4.648   2.564 -1.0571 -1.0005  1.1928
 8245TIP3   OH248929   2.082   4.507   1.740  0.5696 -0.3006  0.0847
 8245TIP3    H148930   2.078   4.553   1.824  1.6273 -0.0734  0.0310
 8245TIP3    H248931   2.065   4.416   1.762 -1.3799  0.0602  0.2184
 8246TIP3   OH248932   5.972   1.000   1.995 -0.1829  0.3892 -0.4787
 8246TIP3    H148933   6.065   1.022   1.997  0.1537 -0.9551  0.9135
 8246TIP3    H248934   5.970   0.905   1.986 -1.4001  0.3191  0.2233
 8247TIP3   OH248935   3.514   4.657   2.073 -0.2929  0.2553 -0.0194
 8247TIP3    H148936   3.455   4.584   2.089  0.8330 -0.5752  0.4534
 8247TIP3    H248937   3.567   4.630   1.998  0.8700  0.0849  0.8274
 8248TIP3   OH248938   1.571   2.034   1.544  0.3546 -0.9675  0.2714
 8248TIP3    H148939   1.592   1.968   1.609 -0.2441 -0.6143  0.8401
 8248TIP3    H248940   1.648   2.091   1.542  0.5181 -1.1808  0.4169
 8249TIP3   OH248941   4.609   5.281   1.922 -0.1172 -0.3844 -0.0076
 8249TIP3    H148942   4.610   5.254   1.831  1.5939 -1.2729  0.2380
 8249TIP3    H248943   4.527   5.331   1.932  0.2969  0.8744 -2.3371
 8250TIP3   OH248944   1.704   2.924   0.574 -0.1331 -0.2749 -0.2659
 8250TIP3    H148945   1.742   3.007   0.604  1.0368 -0.1384 -1.9572
 8250TIP3    H248946   1.626   2.949   0.525  1.1740  0.0801 -2.3232
 8251TIP3   OH248947   3.650   2.074   2.339  0.2781 -0.1269 -0.4041
 8251TIP3    H148948   3.563   2.112   2.345  0.3487 -0.1227  0.7158
 8251TIP3    H248949   3.636   1.980   2.351  0.2669 -0.3226 -1.7672
 8252TIP3   OH248950   5.214   4.627   2.780  0.1512 -0.2359  0.4598
 8252TIP3    H148951   5.136   4.621   2.835 -2.2992 -0.8977 -2.7966
 8252TIP3    H248952   5.210   4.714   2.741 -0.0452 -0.9310 -1.1427
 8253TIP3   OH248953   3.931   1.246   2.181 -0.3830 -0.1164 -0.2556
 8253TIP3    H148954   3.868   1.312   2.208  1.5849  0.9452  2.1095
 8253TIP3    H248955   3.894   1.163   2.212 -1.5385  0.1982 -0.7444
 8254TIP3   OH248956   6.737   2.883   1.860  0.2148 -0.3094  0.0478
 8254TIP3    H148957   6.690   2.811   1.818  0.4586 -1.7798  2.1331
 8254TIP3    H248958   6.812   2.841   1.902 -0.2996  0.9298  2.3652
 8255TIP3   OH248959   5.620   6.375   2.359  0.4771  0.2960 -0.5509
 8255TIP3    H148960   5.565   6.353   2.284 -3.4113  2.1425  1.4732
 8255TIP3    H248961   5.612   6.300   2.418 -0.2396  0.7510 -0.0665
 8256TIP3   OH248962   2.860   1.791   2.444  0.4532 -0.4868  0.3618
 8256TIP3    H148963   2.881   1.820   2.355  0.4542 -1.5966 -0.0132
 8256TIP3    H248964   2.830   1.871   2.489  3.0416  0.6852  0.1993
 8257TIP3   OH248965   0.107   0.747   1.587  0.6072  0.0619  0.0171
 8257TIP3    H148966   0.161   0.730   1.510  1.2374 -0.2459  0.5154
 8257TIP3    H248967   0.066   0.663   1.607  1.7397 -0.2833  0.9810
 8258TIP3   OH248968   7.143   5.588   1.276 -0.2275  0.1415 -0.4498
 8258TIP3    H148969   7.143   5.621   1.186 -1.7984 -0.9811 -0.8976
 8258TIP3    H248970   7.189   5.505   1.272 -0.1075  0.1941 -0.1786
 8259TIP3   OH248971   5.497   5.021   1.373 -0.1089 -0.0895  0.0975
 8259TIP3    H148972   5.537   5.106   1.359 -0.4083 -0.0373 -0.4592
 8259TIP3    H248973   5.473   5.021   1.466  1.8018 -0.3999  0.6277
 8260TIP3   OH248974   3.953   4.941   1.017 -0.1914  0.4615 -0.2382
 8260TIP3    H148975   3.859   4.956   1.023 -0.4721 -0.5945 -1.5876
 8260TIP3    H248976   3.991   4.999   1.084 -1.6523  2.1623 -0.8031
 8261TIP3   OH248977   1.816   7.560   0.961 -0.1474 -0.0818 -0.3403
 8261TIP3    H148978   1.739   7.517   0.924  0.1838  0.3725 -1.6360
 8261TIP3    H248979   1.885   7.494   0.954 -0.2444 -0.2258  0.0912
 8262TIP3   OH248980   5.055   3.107   2.357  0.4001 -0.4197 -0.4928
 8262TIP3    H148981   5.094   3.049   2.423  0.3896 -0.4275 -0.4934
 8262TIP3    H248982   5.114   3.101   2.282  2.0889  1.9057  0.5336
 8263TIP3   OH248983   4.133   6.010   2.703 -0.5743  0.2725 -0.5747
 8263TIP3    H148984   4.118   6.007   2.608 -3.4896  1.5271 -0.2700
 8263TIP3    H248985   4.116   6.101   2.727 -1.8128 -0.4102  1.3727
 8264TIP3   OH248986   5.242   3.653   3.033 -0.3137  0.1959 -0.7392
 8264TIP3    H148987   5.267   3.561   3.039 -0.3460  0.0558 -2.3252
 8264TIP3    H248988   5.286   3.685   2.954  0.3028  1.7519  0.2032
 8265TIP3   OH248989   6.097   4.048   2.440  0.7021  0.2788 -0.2997
 8265TIP3    H148990   6.004   4.029   2.423 -0.2239  2.7456  1.4522
 8265TIP3    H248991   6.115   4.127   2.389  2.6637 -1.4791 -2.5921
 8266TIP3   OH248992   5.406   6.647   1.726 -0.2966 -0.0096  0.3896
 8266TIP3    H148993   5.498   6.622   1.739 -0.0642 -0.6817 -2.0361
 8266TIP3    H248994   5.406   6.700   1.647 -1.9597  0.4223  0.6373
 8267TIP3   OH248995   3.720   6.700   0.974  0.1965 -0.0586 -0.1425
 8267TIP3    H148996   3.771   6.702   0.893  2.6375 -1.7189  1.2284
 8267TIP3    H248997   3.743   6.617   1.015 -2.1788  0.0234  1.5447
 8268TIP3   OH248998   1.062   5.692   2.403  0.0780 -0.3868  0.5896
 8268TIP3    H148999   1.039   5.705   2.495 -0.0054  1.9473  0.3123
 8268TIP3    H249000   0.980   5.668   2.360  0.0732 -1.2624  1.0794
 8269TIP3   OH249001   0.078   6.741   2.196 -0.2577  0.2578 -0.1314
 8269TIP3    H149002   0.016   6.726   2.267  0.1745  2.5876  0.8381
 8269TIP3    H249003   0.164   6.726   2.235 -0.0998 -2.1321 -1.2419
 8270TIP3   OH249004   4.789   4.255   1.992 -0.7965  0.1445  0.4197
 8270TIP3    H149005   4.871   4.257   1.942 -0.4782 -0.0806  0.9189
 8270TIP3    H249006   4.721   4.241   1.927 -0.4950  0.9190 -0.0706
 8271TIP3   OH249007   1.516   1.176   1.497  0.1014 -0.3425  0.3027
 8271TIP3    H149008   1.498   1.167   1.591 -1.0118 -3.4251 -0.1118
 8271TIP3    H249009   1.495   1.091   1.460  0.8988  0.6629 -2.7344
 8272TIP3   OH249010   5.257   2.481   2.806 -0.2723  0.2550 -0.6965
 8272TIP3    H149011   5.222   2.407   2.855  1.4978  0.2823  0.7219
 8272TIP3    H249012   5.345   2.493   2.840  1.8150 -0.7280 -5.0109
 8273TIP3   OH249013   3.385   2.107   2.393  0.2667  0.3077 -0.5206
 8273TIP3    H149014   3.319   2.154   2.342 -0.6120 -0.1939  0.1408
 8273TIP3    H249015   3.336   2.043   2.444  1.2732 -0.1334 -0.0714
 8274TIP3   OH249016   4.873   4.813   2.589 -0.2624  0.2450 -0.1616
 8274TIP3    H149017   4.798   4.863   2.557  0.5842  0.4875 -1.8409
 8274TIP3    H249018   4.834   4.740   2.637 -1.5606  0.7258 -0.4471
 8275TIP3   OH249019   5.710   0.424   2.309 -0.3842 -0.0641  0.1823
 8275TIP3    H149020   5.726   0.364   2.236 -0.0892  0.2229  0.0072
 8275TIP3    H249021   5.785   0.484   2.308 -1.0838  0.8306 -0.1729
 8276TIP3   OH249022   7.296   1.077   1.337  0.4206  0.2190 -0.4383
 8276TIP3    H149023   7.277   1.167   1.364  0.0681  0.4339 -1.3468
 8276TIP3    H249024   7.307   1.029   1.419  0.5735  1.0789  0.0582
 8277TIP3   OH249025   3.625   3.500   0.831  0.1599  0.1511 -0.0931
 8277TIP3    H149026   3.654   3.452   0.908 -1.7526 -1.0086 -0.0165
 8277TIP3    H249027   3.543   3.542   0.859  0.9041  2.0901 -0.6821
 8278TIP3   OH249028   6.684   2.040   2.124 -0.3445 -0.0348 -0.3543
 8278TIP3    H149029   6.756   2.098   2.096  0.6323 -0.3545  1.3559
 8278TIP3    H249030   6.605   2.089   2.103  0.4414  1.7451  0.5862
 8279TIP3   OH249031   0.130   2.942   1.228 -0.1216 -0.4343 -0.2911
 8279TIP3    H149032   0.050   2.955   1.279  0.5066  0.8585  0.4151
 8279TIP3    H249033   0.153   2.850   1.242 -0.7769 -0.4866  0.5520
 8280TIP3   OH249034   7.087   0.206   1.929 -0.6698 -0.1195  0.3024
 8280TIP3    H149035   7.031   0.283   1.943 -2.1597 -1.2224  0.6517
 8280TIP3    H249036   7.090   0.196   1.833  1.9862  2.0525  0.0505
 8281TIP3   OH249037   5.271   6.627   2.726  0.3489 -0.0388 -0.6451
 8281TIP3    H149038   5.246   6.592   2.812  0.4823  1.6465  0.1370
 8281TIP3    H249039   5.190   6.622   2.674 -0.5740  1.4957  0.5245
 8282TIP3   OH249040   3.787   3.113   1.871 -0.3613 -0.4526  0.2204
 8282TIP3    H149041   3.810   3.089   1.782 -0.3712  2.4200 -0.6668
 8282TIP3    H249042   3.766   3.206   1.866 -3.4172 -0.8378  2.6535
 8283TIP3   OH249043   6.920   3.146   1.642  0.3985  0.0081  0.4552
 8283TIP3    H149044   6.901   3.066   1.593  3.1919 -1.1263  1.0445
 8283TIP3    H249045   6.959   3.206   1.578  0.7379 -0.1064  0.5544
 8284TIP3   OH249046   2.094   5.893   3.073  0.0294  0.0167 -0.1261
 8284TIP3    H149047   2.141   5.837   3.134 -0.7322 -0.4902  0.0141
 8284TIP3    H249048   2.155   5.907   3.001  0.7790  0.2587  0.5383
 8285TIP3   OH249049   1.915   3.980   2.235  0.1421  0.0776 -0.1221
 8285TIP3    H149050   1.837   3.985   2.290  0.2775 -0.4035  0.1221
 8285TIP3    H249051   1.981   4.030   2.284  0.7016 -1.6072  0.9367
 8286TIP3   OH249052   1.926   0.543   0.638  0.4293  0.1177 -0.1278
 8286TIP3    H149053   1.910   0.601   0.564  1.8522  1.4562  0.5344
 8286TIP3    H249054   2.014   0.509   0.622 -0.0020 -1.0865  0.0093
 8287TIP3   OH249055   3.325   5.491   1.369  0.0888 -0.0209 -0.1235
 8287TIP3    H149056   3.323   5.551   1.294  0.4958  0.1780  0.0220
 8287TIP3    H249057   3.264   5.528   1.432  0.7353  0.5378  0.1854
 8288TIP3   OH249058   2.601   4.528   1.592 -0.6128  0.3403  0.1998
 8288TIP3    H149059   2.535   4.593   1.567 -1.7907  0.2831  2.8297
 8288TIP3    H249060   2.550   4.448   1.609  0.7121 -1.0988 -2.0805
 8289TIP3   OH249061   6.043   2.748   1.218 -0.3689 -0.6082  1.4430
 8289TIP3    H149062   5.985   2.824   1.213  0.3042 -0.1278  0.5672
 8289TIP3    H249063   6.046   2.714   1.128  1.9328  0.3480  1.1000
 8290TIP3   OH249064   2.267   0.068   1.186  0.0963  0.4326  0.2175
 8290TIP3    H149065   2.250  -0.024   1.165  0.6275  0.1382  1.0182
 8290TIP3    H249066   2.299   0.066   1.277 -0.9352  1.5217  0.6263
 8291TIP3   OH249067   5.870   2.475   1.365 -0.5427  0.0675 -0.1170
 8291TIP3    H149068   5.936   2.524   1.316 -0.1224 -0.4300 -0.0632
 8291TIP3    H249069   5.921   2.426   1.429 -1.0880  0.7358  0.8470
 8292TIP3   OH249070   1.031   3.874   3.577 -0.1736 -0.4613 -0.6016
 8292TIP3    H149071   0.980   3.852   3.499  0.5423 -2.0860 -0.6542
 8292TIP3    H249072   1.121   3.876   3.547  0.0335 -0.1973  0.0190
 8293TIP3   OH249073   2.342   6.175   3.257  0.0672  0.1550  0.4164
 8293TIP3    H149074   2.365   6.100   3.312  0.7022  0.7752  1.0192
 8293TIP3    H249075   2.382   6.157   3.173  0.2543 -0.1647  0.5734
 8294TIP3   OH249076   3.516   4.108   0.752  0.4361 -0.1435  0.1938
 8294TIP3    H149077   3.451   4.048   0.716  1.3495 -1.4149  0.5851
 8294TIP3    H249078   3.600   4.069   0.729  1.0570  0.6567  1.0072
 8295TIP3   OH249079   7.298   6.038   2.200  0.4263  0.5305 -0.1283
 8295TIP3    H149080   7.208   6.067   2.219  0.5314  0.8855 -0.1774
 8295TIP3    H249081   7.291   5.943   2.197  0.2069  0.5149  0.6706
 8296TIP3   OH249082   0.898   5.462   1.870 -0.3678 -0.2275 -0.5939
 8296TIP3    H149083   0.948   5.423   1.942 -0.6532  1.4902  0.6178
 8296TIP3    H249084   0.896   5.556   1.891 -0.4250  0.3388 -2.8952
 8297TIP3   OH249085   1.077   6.213   2.799 -0.0220  0.0524 -0.5052
 8297TIP3    H149086   1.153   6.234   2.746  1.1009 -2.3620  0.0129
 8297TIP3    H249087   1.028   6.149   2.747  0.2988 -1.1934  0.6619
 8298TIP3   OH249088   3.106   2.446   0.872 -0.4225 -0.5087 -0.4642
 8298TIP3    H149089   3.076   2.476   0.957 -2.3717 -1.3292 -0.8040
 8298TIP3    H249090   3.195   2.480   0.864 -1.3402  2.3651  0.4913
 8299TIP3   OH249091   3.291   4.840   3.346 -0.0049 -0.7274 -0.4975
 8299TIP3    H149092   3.372   4.810   3.305 -0.6258 -1.6169 -1.1041
 8299TIP3    H249093   3.222   4.817   3.284 -0.9314 -1.7235  0.8201
 8300TIP3   OH249094   5.150   7.323   1.571  0.0883  0.0368 -0.0764
 8300TIP3    H149095   5.245   7.308   1.570  0.0601 -0.1488  0.0534
 8300TIP3    H249096   5.113   7.241   1.604 -0.0396  0.5256  1.0089
 8301TIP3   OH249097   4.425   0.786   2.239  0.8557 -0.0080 -0.1285
 8301TIP3    H149098   4.474   0.723   2.292 -0.5881 -1.2756 -0.2235
 8301TIP3    H249099   4.472   0.869   2.250 -0.5155  0.4059  4.9185
 8302TIP3   OH249100   0.939   0.710   3.481 -0.4594 -0.1584 -0.2358
 8302TIP3    H149101   0.861   0.757   3.451 -0.2109  0.2338 -0.2589
 8302TIP3    H249102   0.904   0.628   3.516 -0.8896  0.0431 -0.1829
 8303TIP3   OH249103   0.503   5.852   2.164  0.1050 -0.2859 -0.1015
 8303TIP3    H149104   0.469   5.922   2.220  3.3535  0.2587  1.3958
 8303TIP3    H249105   0.477   5.772   2.210  0.1470  0.0746  0.5642
 8304TIP3   OH249106   4.538   3.612   2.574  0.4712  0.2814 -0.0931
 8304TIP3    H149107   4.540   3.522   2.544  0.8326  0.4107 -0.4626
 8304TIP3    H249108   4.445   3.632   2.583  0.3720 -1.1199  3.0551
 8305TIP3   OH249109   7.118   1.274   1.130 -0.1079 -0.8041 -0.0689
 8305TIP3    H149110   7.211   1.289   1.115  0.0596 -1.5327  0.1733
 8305TIP3    H249111   7.100   1.314   1.215 -0.6869  1.8810 -1.3765
 8306TIP3   OH249112   6.433   5.852   1.750 -0.0712 -0.0160 -0.3416
 8306TIP3    H149113   6.472   5.930   1.710  2.4808 -0.5167  0.9376
 8306TIP3    H249114   6.487   5.836   1.827 -0.6569 -2.9177 -0.4341
 8307TIP3   OH249115   5.599   5.732   1.562 -0.4611  0.4935 -0.3290
 8307TIP3    H149116   5.689   5.745   1.594 -1.1583  0.7351  1.7018
 8307TIP3    H249117   5.565   5.821   1.551 -1.4373  0.5070  2.0946
 8308TIP3   OH249118   4.201   3.931   1.972  0.0672 -0.5166 -0.3298
 8308TIP3    H149119   4.170   3.957   1.885  0.6934 -1.5090 -0.8772
 8308TIP3    H249120   4.263   3.999   1.996 -0.4958  0.0372 -0.4335
 8309TIP3   OH249121   1.102   4.404   3.454 -0.0966  0.3030 -0.3442
 8309TIP3    H149122   1.024   4.411   3.509 -0.0405  0.2962 -0.2647
 8309TIP3    H249123   1.132   4.313   3.466 -0.0536  0.3174 -0.3435
 8310TIP3   OH249124   5.270   6.525   2.239 -0.2585  0.0306  0.0842
 8310TIP3    H149125   5.280   6.585   2.165 -0.0375 -0.4783 -0.3054
 8310TIP3    H249126   5.338   6.458   2.225 -1.3650 -1.0529 -0.2188
 8311TIP3   OH249127   5.056   4.251   1.883 -0.1541  0.0304  0.0545
 8311TIP3    H149128   5.135   4.257   1.938 -0.4911  0.4047  0.4988
 8311TIP3    H249129   5.051   4.336   1.839 -1.0249  0.4979  1.0168
 8312TIP3   OH249130   1.471   0.682   2.262  0.5962 -0.3415  0.1011
 8312TIP3    H149131   1.396   0.625   2.282  0.5572 -0.6187 -0.8274
 8312TIP3    H249132   1.476   0.683   2.167  0.3685  1.5089  0.0684
 8313TIP3   OH249133   6.032   3.526   1.999 -0.1941  0.4802  0.2497
 8313TIP3    H149134   6.051   3.608   1.953  0.0590 -0.0851 -0.6677
 8313TIP3    H249135   6.077   3.459   1.948  1.2752 -0.0164  2.1207
 8314TIP3   OH249136   1.879   6.311   2.813  0.4406  0.2139  0.2604
 8314TIP3    H149137   1.912   6.266   2.890  0.3242 -0.0608  0.1549
 8314TIP3    H249138   1.956   6.350   2.772  0.3803  1.1405  1.0079
 8315TIP3   OH249139   6.232   1.191   2.793  0.2997 -0.3966  0.3669
 8315TIP3    H149140   6.174   1.218   2.722 -0.3760 -1.3086  0.5427
 8315TIP3    H249141   6.303   1.254   2.792  0.6073 -0.7200 -1.4974
 8316TIP3   OH249142   0.090   4.945   2.441 -0.2301  0.0124 -0.2359
 8316TIP3    H149143   0.005   4.911   2.471  0.5643 -1.1466  0.8047
 8316TIP3    H249144   0.111   5.014   2.504  0.2814 -0.7300  0.4259
 8317TIP3   OH249145   2.864   6.899   1.852  0.2316 -0.2465  0.3004
 8317TIP3    H149146   2.912   6.867   1.776 -0.3211  0.3550 -0.3105
 8317TIP3    H249147   2.840   6.820   1.900  0.8983 -0.6118  0.0495
 8318TIP3   OH249148   0.010   6.162   1.742  0.4299  0.3684  0.1153
 8318TIP3    H149149  -0.058   6.166   1.675  0.0225 -0.9613  0.4057
 8318TIP3    H249150   0.077   6.224   1.713  0.5187 -0.5510 -1.8014
 8319TIP3   OH249151   1.048   4.199   0.710  0.5326  0.1838  0.4815
 8319TIP3    H149152   1.092   4.248   0.641  0.1473  1.7335  1.2839
 8319TIP3    H249153   1.104   4.209   0.787 -0.2481  0.5562  1.0173
 8320TIP3   OH249154   7.167   1.133   2.909 -0.4017 -0.0794  0.2016
 8320TIP3    H149155   7.212   1.080   2.974  0.2842  0.3274  0.0686
 8320TIP3    H249156   7.174   1.222   2.942 -1.2626 -0.0243  0.2605
 8321TIP3   OH249157   2.917   4.242   0.719 -0.0619 -0.4170 -0.3632
 8321TIP3    H149158   2.841   4.247   0.776 -0.7755 -2.3347 -1.0513
 8321TIP3    H249159   2.895   4.298   0.644  0.0182  0.5069  0.2973
 8322TIP3   OH249160   5.474   2.006   1.697  0.2627 -0.2228  0.0315
 8322TIP3    H149161   5.432   2.001   1.782  0.2853 -2.3465 -0.0390
 8322TIP3    H249162   5.510   1.919   1.682 -1.0680 -0.4223 -2.8156
 8323TIP3   OH249163   6.379   2.342   1.621  0.7482 -0.3448 -0.5562
 8323TIP3    H149164   6.373   2.268   1.561 -2.1363 -0.1651 -0.6443
 8323TIP3    H249165   6.394   2.418   1.564  0.7215 -0.5080 -0.7829
 8324TIP3   OH249166   0.612   5.923   0.682  0.0696  1.1199  0.1841
 8324TIP3    H149167   0.611   5.844   0.735 -0.6813  0.5516 -0.6566
 8324TIP3    H249168   0.521   5.935   0.655  0.5547  0.9096 -1.6546
 8325TIP3   OH249169   7.011   3.101   0.785  0.0098  0.1260  0.8621
 8325TIP3    H149170   6.915   3.106   0.779  0.1496  1.1484 -1.8918
 8325TIP3    H249171   7.036   3.040   0.715  1.4040 -0.0296  1.4622
 8326TIP3   OH249172   0.772   1.897   2.948  0.0962  0.1828  0.4574
 8326TIP3    H149173   0.839   1.965   2.950 -0.3740  0.6668 -0.0039
 8326TIP3    H249174   0.710   1.922   3.017  1.1331 -1.0587  1.8978
 8327TIP3   OH249175   3.720   6.540   1.734  0.0068 -0.3798  0.0364
 8327TIP3    H149176   3.800   6.489   1.731  0.1704 -0.2132  1.1004
 8327TIP3    H249177   3.747   6.629   1.715  0.4594  0.0586  2.4296
 8328TIP3   OH249178   1.395   7.589   1.365 -0.0941  0.1174 -0.1735
 8328TIP3    H149179   1.474   7.619   1.411 -0.2841 -0.1591  0.3317
 8328TIP3    H249180   1.412   7.497   1.346 -1.2381 -0.5952  1.9997
 8329TIP3   OH249181   6.283   1.472   2.121  0.3450 -0.2599  0.3658
 8329TIP3    H149182   6.366   1.505   2.086 -0.7611  1.6417 -0.6094
 8329TIP3    H249183   6.267   1.525   2.200 -0.9432  0.9081 -0.6349
 8330TIP3   OH249184   2.100   4.896   1.270 -0.2280  0.4009  0.6954
 8330TIP3    H149185   2.025   4.835   1.266 -0.3454  0.4341  1.9607
 8330TIP3    H249186   2.068   4.969   1.322  0.5162  0.6822  0.7657
 8331TIP3   OH249187   0.404   2.055   3.558  0.2015  0.6685 -0.1315
 8331TIP3    H149188   0.324   2.006   3.544  0.2737 -0.0605  1.7256
 8331TIP3    H249189   0.475   1.995   3.535  0.2523  0.3637  0.7660
 8332TIP3   OH249190   2.970   2.379   2.230  0.2196 -0.3270 -0.2342
 8332TIP3    H149191   3.018   2.460   2.213  0.4152 -0.4425 -0.2397
 8332TIP3    H249192   2.933   2.355   2.145 -0.8066  0.3679 -0.0001
 8333TIP3   OH249193   3.979   6.842   2.871 -0.7339  0.2660 -0.4824
 8333TIP3    H149194   3.956   6.754   2.901  0.3017 -0.5222 -1.8955
 8333TIP3    H249195   3.915   6.899   2.914 -2.0402 -1.2649 -0.3037
 8334TIP3   OH249196   0.755   1.527   0.621 -0.3137 -0.5675 -0.0219
 8334TIP3    H149197   0.772   1.612   0.581 -0.4107  0.1348  1.3839
 8334TIP3    H249198   0.841   1.491   0.640 -0.2602  0.4169  1.7912
 8335TIP3   OH249199   7.374   2.945   0.785  0.8531  0.2063 -0.0236
 8335TIP3    H149200   7.460   2.935   0.744  0.0529 -0.2803 -1.6625
 8335TIP3    H249201   7.338   2.856   0.788 -0.2502  0.5990 -0.9040
 8336TIP3   OH249202   2.644   4.696   8.070 -0.4226 -0.3620 -0.0396
 8336TIP3    H149203   2.656   4.791   8.077  0.2424 -0.5063  0.9525
 8336TIP3    H249204   2.549   4.684   8.065 -0.4817  0.3949 -0.9897
 8337TIP3   OH249205   6.973   3.672   3.352 -0.3615  0.0899 -0.3455
 8337TIP3    H149206   6.879   3.665   3.337 -0.1299 -0.8958 -1.5091
 8337TIP3    H249207   7.002   3.744   3.296 -0.2202 -0.5413 -1.1044
 8338TIP3   OH249208   3.822   3.631   3.222  0.2349 -0.1808 -0.1484
 8338TIP3    H149209   3.901   3.581   3.204  0.7824  0.7591 -0.4317
 8338TIP3    H249210   3.751   3.568   3.214  1.0045 -1.2086  0.8180
 8339TIP3   OH249211   5.680   2.980   1.763 -1.0203 -0.0020  0.6694
 8339TIP3    H149212   5.737   2.908   1.738 -0.2147  0.8518 -0.0263
 8339TIP3    H249213   5.727   3.026   1.832 -1.5552 -0.1642  1.1505
 8340TIP3   OH249214   0.969   6.083   1.278 -0.2794  0.2244 -0.1409
 8340TIP3    H149215   0.941   6.174   1.288 -1.8096  0.0467 -2.0041
 8340TIP3    H249216   0.971   6.048   1.367 -2.2293  1.3956  0.4351
 8341TIP3   OH249217   2.477   3.335   1.499  0.2361 -0.2689 -0.4725
 8341TIP3    H149218   2.550   3.312   1.441  0.6537  1.3402 -0.6126
 8341TIP3    H249219   2.508   3.411   1.548 -1.5402  0.7995 -0.9279
 8342TIP3   OH249220   0.544   4.255   1.556 -0.2142  0.7464  0.4678
 8342TIP3    H149221   0.460   4.290   1.528 -0.6620 -0.1230  0.6977
 8342TIP3    H249222   0.522   4.177   1.606  0.7966 -1.0027 -1.6324
 8343TIP3   OH249223   1.412   4.896   3.080 -0.0450 -0.0625 -0.5831
 8343TIP3    H149224   1.444   4.957   3.014  1.0966  0.4044  0.3642
 8343TIP3    H249225   1.327   4.867   3.047  0.3751  0.3534 -2.1173
 8344TIP3   OH249226   6.333   4.921   2.211 -0.3876 -0.1070  0.1206
 8344TIP3    H149227   6.314   4.832   2.181 -0.6278  0.0322 -0.1360
 8344TIP3    H249228   6.248   4.955   2.239 -0.1959 -0.1794  0.8143
 8345TIP3   OH249229   1.843   0.483   2.866  0.1866 -0.2034 -0.3957
 8345TIP3    H149230   1.904   0.556   2.871 -1.2266  0.9737  0.5853
 8345TIP3    H249231   1.893   0.407   2.894  1.0530  0.8319  0.9543
 8346TIP3   OH249232   1.547   5.470   1.960 -0.1008  0.1592  0.0653
 8346TIP3    H149233   1.518   5.534   2.025  0.3930 -1.0734  1.5528
 8346TIP3    H249234   1.635   5.499   1.936  0.0543  0.1438  0.6011
 8347TIP3   OH249235   7.363   5.776   2.166 -0.3695  0.0412  0.1138
 8347TIP3    H149236   7.447   5.787   2.121 -0.0851 -1.8915  0.0968
 8347TIP3    H249237   7.372   5.693   2.213 -2.2659 -0.1764  0.1463
 8348TIP3   OH249238   0.110   6.111   7.366  0.5196  0.1930  0.2628
 8348TIP3    H149239   0.200   6.129   7.338  0.4076  1.5064  0.6806
 8348TIP3    H249240   0.082   6.191   7.409 -1.2365  0.2145 -0.8321
 8349TIP3   OH249241   1.259   7.056   2.862  0.5189  0.0071 -0.7141
 8349TIP3    H149242   1.283   6.966   2.884 -2.3382 -0.8227 -0.6197
 8349TIP3    H249243   1.238   7.054   2.769  0.0001  0.4597 -0.6155
 8350TIP3   OH249244   2.415   0.410   0.939  0.1524  0.3520 -0.5960
 8350TIP3    H149245   2.425   0.494   0.984  2.0220  0.0899 -0.4317
 8350TIP3    H249246   2.488   0.408   0.877  1.4322 -1.9876  0.8277
 8351TIP3   OH249247   3.923   7.025   2.486  0.8614  0.2984 -0.1108
 8351TIP3    H149248   3.943   7.118   2.481  0.9544  0.4288  1.9772
 8351TIP3    H249249   4.008   6.983   2.499  0.5012  0.3676  3.2871
 8352TIP3   OH249250   5.629   6.071   1.852  0.1719 -0.1857 -0.7843
 8352TIP3    H149251   5.573   6.140   1.816 -0.0689  0.1218  0.1506
 8352TIP3    H249252   5.693   6.054   1.783 -0.6923 -0.1038 -1.6212
 8353TIP3   OH249253   5.379   1.112   1.520 -0.1225  0.1429 -0.4419
 8353TIP3    H149254   5.395   1.199   1.485  0.9205  0.8032  1.5350
 8353TIP3    H249255   5.382   1.055   1.443 -1.8260  1.9138 -1.9185
 8354TIP3   OH249256   7.036   2.318   1.608  0.6843  0.1969 -0.0701
 8354TIP3    H149257   6.951   2.341   1.570  1.4085  0.3563 -1.6553
 8354TIP3    H249258   7.014   2.265   1.685 -0.8679  1.2418  0.2608
 8355TIP3   OH249259   7.576   6.738   1.186  0.3794  0.1074 -0.2643
 8355TIP3    H149260   7.667   6.715   1.203  0.7160  1.2818 -0.3873
 8355TIP3    H249261   7.549   6.789   1.263  0.4587  1.4484 -1.0912
 8356TIP3   OH249262   1.880   0.489   2.508  0.1894  0.0740  0.0002
 8356TIP3    H149263   1.786   0.506   2.514  0.4090  1.6194 -0.5193
 8356TIP3    H249264   1.907   0.528   2.425  1.3012 -0.3284  0.1479
 8357TIP3   OH249265   0.431   3.834   1.905  0.1650 -0.5688 -0.5029
 8357TIP3    H149266   0.339   3.815   1.889 -0.2518  1.1009 -0.2122
 8357TIP3    H249267   0.449   3.797   1.992 -0.0170 -1.5206 -0.8573
 8358TIP3   OH249268   6.517   2.910   1.593  0.2843 -0.1345 -0.0035
 8358TIP3    H149269   6.533   2.914   1.499 -0.3346  0.1819 -0.1046
 8358TIP3    H249270   6.577   2.974   1.631  0.2129  0.0747 -0.2368
 8359TIP3   OH249271   6.548   0.462   0.756  0.3056 -0.1523 -0.1839
 8359TIP3    H149272   6.594   0.546   0.751  1.7032 -0.9363 -1.5166
 8359TIP3    H249273   6.617   0.398   0.775 -0.5406 -1.1491 -0.3695
 8360TIP3   OH249274   0.840   3.785   2.954  0.1404 -0.2168  0.2299
 8360TIP3    H149275   0.759   3.751   2.993 -0.0978 -0.6370 -0.6122
 8360TIP3    H249276   0.813   3.867   2.912  0.4492  0.3665  1.1502
 8361TIP3   OH249277   0.775   3.239   2.803 -0.5374  0.3969 -0.1193
 8361TIP3    H149278   0.815   3.153   2.795 -0.2682  0.4501  0.5918
 8361TIP3    H249279   0.816   3.291   2.733  2.3272  1.0757  1.8798
 8362TIP3   OH249280   2.454   3.968   2.825 -0.3448  0.0568 -0.1413
 8362TIP3    H149281   2.485   3.919   2.902 -0.1746 -2.6088 -1.7811
 8362TIP3    H249282   2.360   3.977   2.840 -0.6737 -2.2263 -0.4542
 8363TIP3   OH249283   5.970   2.794   0.620  0.7173  0.3767 -0.0565
 8363TIP3    H149284   5.916   2.734   0.569 -0.6268  0.2161  1.4590
 8363TIP3    H249285   6.041   2.819   0.561 -1.4074  1.2166 -2.4661
 8364TIP3   OH249286   7.231   5.986   2.864 -0.2370 -0.7562  0.1726
 8364TIP3    H149287   7.195   6.073   2.850 -0.2555 -1.1192 -2.7766
 8364TIP3    H249288   7.247   5.980   2.958 -1.4642  1.9112  0.6180
 8365TIP3   OH249289   1.642   1.603   1.394 -0.4603  0.9394 -0.0257
 8365TIP3    H149290   1.635   1.531   1.331  2.0967  1.0308 -0.5131
 8365TIP3    H249291   1.638   1.682   1.340 -1.0137  1.1066  0.2550
 8366TIP3   OH249292   3.181   5.950   2.416 -0.0029 -0.3870 -0.2755
 8366TIP3    H149293   3.211   5.866   2.381 -0.5578 -0.8372  0.2941
 8366TIP3    H249294   3.085   5.947   2.407 -0.0738 -0.0855  0.3245
 8367TIP3   OH249295   6.084   3.991   3.123  0.0209 -0.2685 -0.3286
 8367TIP3    H149296   6.002   4.010   3.078 -0.2294 -0.7256 -0.0805
 8367TIP3    H249297   6.077   3.898   3.147  1.0757 -0.6166 -1.2759
 8368TIP3   OH249298   3.734   2.878   0.590  0.4527  0.0346 -0.0732
 8368TIP3    H149299   3.738   2.791   0.550  1.5783  0.9002 -2.0220
 8368TIP3    H249300   3.826   2.900   0.607  0.1755  0.8228  0.4313
 8369TIP3   OH249301   4.164   4.465   1.291 -0.2668  0.4268  0.1174
 8369TIP3    H149302   4.234   4.490   1.231 -0.9486 -0.5491 -1.1233
 8369TIP3    H249303   4.087   4.456   1.236 -1.3093  1.1232  1.4086
 8370TIP3   OH249304   6.867   6.444   0.971 -0.2389  0.3246 -0.3895
 8370TIP3    H149305   6.828   6.417   0.888 -2.9556 -0.5116  1.0318
 8370TIP3    H249306   6.911   6.527   0.951 -0.9475  0.2261 -2.6137
 8371TIP3   OH249307   6.343   0.388   1.756  0.5190 -0.0995 -0.0938
 8371TIP3    H149308   6.385   0.412   1.839 -0.6458  0.0024  0.4799
 8371TIP3    H249309   6.362   0.295   1.746  0.2733 -0.2167  0.5203
 8372TIP3   OH249310   1.627   5.312   2.933 -0.3965  0.7832 -0.0710
 8372TIP3    H149311   1.583   5.362   3.002 -0.7372 -0.2970  0.5273
 8372TIP3    H249312   1.605   5.358   2.852  1.8382  3.4006  0.6642
 8373TIP3   OH249313   3.638   4.530   1.058 -0.1775 -0.3385  0.2003
 8373TIP3    H149314   3.693   4.599   1.096 -2.1547  0.1603  2.4433
 8373TIP3    H249315   3.649   4.455   1.118 -0.7474 -0.7417 -0.1848
 8374TIP3   OH249316   0.743   3.312   1.849 -0.2275  0.3888  0.3824
 8374TIP3    H149317   0.785   3.398   1.850 -0.8552  0.6966  0.5161
 8374TIP3    H249318   0.778   3.267   1.925 -0.5160  0.8258  0.7765
 8375TIP3   OH249319   3.482   3.144   1.598 -0.2064 -0.2074 -0.3743
 8375TIP3    H149320   3.544   3.214   1.621 -0.0933  0.3509 -2.2466
 8375TIP3    H249321   3.521   3.065   1.635  0.1851  0.5401  0.8907
 8376TIP3   OH249322   3.965   4.993   2.890 -0.5866 -0.0920 -0.2144
 8376TIP3    H149323   4.032   4.925   2.898 -0.2168  0.0817 -1.4973
 8376TIP3    H249324   3.991   5.061   2.952 -1.2096 -1.2743  1.4266
 8377TIP3   OH249325   7.578   4.589   2.474 -0.0081 -0.1724 -0.5026
 8377TIP3    H149326   7.533   4.529   2.534 -0.7907 -0.3021 -1.2017
 8377TIP3    H249327   7.573   4.546   2.389 -1.3262  1.2419 -1.1911
 8378TIP3   OH249328   4.574   5.764   0.788  0.3281  0.0755 -0.0249
 8378TIP3    H149329   4.517   5.825   0.740 -1.6074 -0.0676  1.9243
 8378TIP3    H249330   4.569   5.683   0.739  0.6215  0.6746 -1.0744
 8379TIP3   OH249331   2.430   5.448   1.159 -0.4601  0.1693  0.2956
 8379TIP3    H149332   2.417   5.512   1.089 -0.9408 -0.2874 -0.0413
 8379TIP3    H249333   2.506   5.397   1.130 -1.3985 -0.8173 -0.5175
 8380TIP3   OH249334   2.610   2.976   2.167 -0.2796 -0.1812  0.1442
 8380TIP3    H149335   2.555   2.960   2.090 -0.5106 -0.6589  0.4005
 8380TIP3    H249336   2.564   3.046   2.215 -2.4474 -2.6135  1.9744
 8381TIP3   OH249337   5.498   5.113   1.009  0.5964  0.7122  0.2112
 8381TIP3    H149338   5.490   5.160   0.926  2.5644  2.4007  0.8757
 8381TIP3    H249339   5.456   5.170   1.073 -1.5828 -0.9261  0.3477
 8382TIP3   OH249340   3.914   1.049   1.161  0.5399  0.4973  0.6215
 8382TIP3    H149341   3.943   1.089   1.079  1.4397  0.1058  0.7336
 8382TIP3    H249342   3.983   1.070   1.224 -0.4129  1.2576  1.4271
 8383TIP3   OH249343   2.365   6.987   1.558 -0.1928 -0.2521 -0.0293
 8383TIP3    H149344   2.294   6.956   1.502  0.5377 -1.8134 -0.1279
 8383TIP3    H249345   2.321   7.022   1.635 -1.0678 -3.6937  1.1794
 8384TIP3   OH249346   1.708   2.490   1.835 -0.1309 -0.4704 -1.0251
 8384TIP3    H149347   1.787   2.440   1.858  0.2216  0.4789 -0.1107
 8384TIP3    H249348   1.644   2.464   1.900 -0.4902 -0.9986 -1.5779
 8385TIP3   OH249349   3.659   0.299   2.500  0.1633 -0.2578 -0.1835
 8385TIP3    H149350   3.682   0.363   2.433 -1.0549 -0.1420 -0.5235
 8385TIP3    H249351   3.716   0.320   2.574  2.1631 -0.9271 -1.4424
 8386TIP3   OH249352   0.224   0.707   0.453 -0.6999 -0.4312  0.3119
 8386TIP3    H149353   0.286   0.762   0.404 -0.9274 -1.1843 -0.8591
 8386TIP3    H249354   0.264   0.620   0.452 -1.4531 -0.7784  0.1154
 8387TIP3   OH249355   4.469   5.962   2.365 -0.0815 -0.2662 -0.0185
 8387TIP3    H149356   4.445   5.947   2.456 -1.2300  0.6839 -0.1378
 8387TIP3    H249357   4.387   5.958   2.317 -0.3716  3.9994 -0.3252
 8388TIP3   OH249358   5.373   4.983   2.506 -0.2143  0.0101 -0.4926
 8388TIP3    H149359   5.386   5.009   2.597  1.8851 -2.9079  0.1882
 8388TIP3    H249360   5.279   4.966   2.499 -0.4252  0.3643  1.0969
 8389TIP3   OH249361   3.100   0.192   1.168 -0.1901  0.4503  0.7187
 8389TIP3    H149362   3.149   0.160   1.243 -1.8009  0.5295  1.8632
 8389TIP3    H249363   3.070   0.279   1.194  1.8661  1.8658 -1.2966
 8390TIP3   OH249364   2.516   1.114   1.866  0.6254  0.3089 -0.2172
 8390TIP3    H149365   2.564   1.133   1.947 -0.4461  0.2019  0.4533
 8390TIP3    H249366   2.564   1.041   1.826  1.7750  1.0429 -0.2246
 8391TIP3   OH249367   0.183   7.178   2.765  0.5496  0.0171 -0.2919
 8391TIP3    H149368   0.105   7.233   2.773  1.2381  1.0833 -0.6789
 8391TIP3    H249369   0.253   7.239   2.740  0.8769 -1.3640 -3.1386
 8392TIP3   OH249370   0.448   5.148   1.974 -0.2252  0.0081 -0.0581
 8392TIP3    H149371   0.382   5.090   2.012 -1.1732  1.4692  0.6410
 8392TIP3    H249372   0.510   5.090   1.931 -0.9273 -1.5266  0.9291
 8393TIP3   OH249373   5.018   2.228   2.312  0.7443 -0.5149  0.7497
 8393TIP3    H149374   5.044   2.167   2.243 -0.5000 -0.4251  0.1705
 8393TIP3    H249375   5.038   2.315   2.276  2.2647 -0.5496  1.4648
 8394TIP3   OH249376   5.811   0.654   3.242  0.4185 -0.3982 -0.3011
 8394TIP3    H149377   5.906   0.645   3.241  0.4165 -0.6936  1.0008
 8394TIP3    H249378   5.779   0.577   3.195  0.8077 -0.1461 -1.0063
 8395TIP3   OH249379   3.543   2.863   1.634 -0.8257  0.8130  0.1154
 8395TIP3    H149380   3.628   2.851   1.677 -1.5497  1.0410  1.6649
 8395TIP3    H249381   3.549   2.808   1.555  0.0703 -0.7033  1.1733
 8396TIP3   OH249382   1.252   1.392   2.703 -0.0583 -0.1751  0.5122
 8396TIP3    H149383   1.288   1.473   2.739  0.3782 -0.2126  0.1651
 8396TIP3    H249384   1.162   1.416   2.677  0.4499  0.5453 -0.6993
 8397TIP3   OH249385   2.596   2.424   1.526 -0.6221 -0.1347  0.2250
 8397TIP3    H149386   2.503   2.446   1.529 -0.2929  1.2421  0.8811
 8397TIP3    H249387   2.627   2.436   1.615  0.2383 -0.4037 -0.0260
 8398TIP3   OH249388   0.384   0.010   2.942  0.4583 -0.2660  0.0807
 8398TIP3    H149389   0.367   0.101   2.916 -0.5606 -1.0665 -2.2999
 8398TIP3    H249390   0.471  -0.009   2.908  0.4642 -0.3357  0.1343
 8399TIP3   OH249391   0.432   3.684   1.438  0.3162 -0.0810 -0.2848
 8399TIP3    H149392   0.505   3.669   1.497  0.6581 -0.1758 -0.7299
 8399TIP3    H249393   0.398   3.770   1.463  0.7665  0.0951 -0.2688
 8400TIP3   OH249394   4.588   0.692   1.982  0.1673  0.3623 -0.0779
 8400TIP3    H149395   4.622   0.773   1.944  1.7260 -0.3937 -0.4103
 8400TIP3    H249396   4.559   0.716   2.070  1.3591  1.1382  0.1262
 8401TIP3   OH249397   1.596   0.493   1.126 -0.0605 -1.1122  0.5611
 8401TIP3    H149398   1.632   0.469   1.041  1.1894 -1.7383  1.2424
 8401TIP3    H249399   1.579   0.409   1.169  0.1946 -0.8023  1.2774
 8402TIP3   OH249400   0.343   6.962   2.232  0.4188 -0.0575  0.1700
 8402TIP3    H149401   0.371   6.871   2.245 -0.6489 -0.0838  3.1363
 8402TIP3    H249402   0.291   6.982   2.310 -1.2053  2.4384 -1.4052
 8403TIP3   OH249403   3.793   4.721   3.324  0.5412 -0.1792  0.3497
 8403TIP3    H149404   3.855   4.792   3.309  0.9080 -0.6135 -0.2292
 8403TIP3    H249405   3.847   4.642   3.330 -0.0385 -0.8734 -2.2724
 8404TIP3   OH249406   2.775   2.177   2.929  0.1545  0.1469  0.1658
 8404TIP3    H149407   2.739   2.234   2.861  0.6244  0.6574  0.3406
 8404TIP3    H249408   2.722   2.097   2.923  1.6681 -0.7875 -2.4061
 8405TIP3   OH249409   4.533   2.831   1.237 -0.2704  0.5302  0.4645
 8405TIP3    H149410   4.565   2.895   1.174  0.0436 -0.3947 -0.3357
 8405TIP3    H249411   4.596   2.834   1.309 -0.9092  1.9618  1.0210
 8406TIP3   OH249412   2.751   1.977   0.674  0.4392 -0.2124  0.2418
 8406TIP3    H149413   2.731   1.884   0.684  0.5349 -0.0130  2.9619
 8406TIP3    H249414   2.666   2.021   0.676  0.3901 -0.2042 -1.0844
 8407TIP3   OH249415   2.711   7.126   2.298 -0.3798  0.3466 -0.0680
 8407TIP3    H149416   2.805   7.104   2.298 -0.6267 -0.7938  0.4874
 8407TIP3    H249417   2.668   7.044   2.274 -1.1530  1.3737 -2.4971
 8408TIP3   OH249418   1.940   6.818   2.282  0.3297  0.4489  0.6548
 8408TIP3    H149419   1.970   6.755   2.347  0.3201 -0.0426  0.1939
 8408TIP3    H249420   2.014   6.829   2.223 -0.2447 -0.5032 -0.2859
 8409TIP3   OH249421   1.392   5.342   0.705 -0.1169 -0.3490  0.3865
 8409TIP3    H149422   1.483   5.324   0.683 -0.5988 -1.4983 -0.8169
 8409TIP3    H249423   1.375   5.428   0.667  0.2514 -0.4712 -0.0622
 8410TIP3   OH249424   1.639   1.843   1.817  0.6584  0.0816 -0.3949
 8410TIP3    H149425   1.675   1.909   1.877  0.8931  0.5822 -1.0690
 8410TIP3    H249426   1.575   1.795   1.870  2.2640 -0.8058  0.8340
 8411TIP3   OH249427   3.450   6.070   1.706 -0.2719  0.2484  0.1685
 8411TIP3    H149428   3.474   6.015   1.631  0.7844 -1.0585  1.4041
 8411TIP3    H249429   3.501   6.034   1.779 -2.9054  0.0486  2.0403
 8412TIP3   OH249430   1.479   2.304   3.321  0.1199  0.6290  0.8376
 8412TIP3    H149431   1.495   2.210   3.320 -0.9839  0.4019  1.9036
 8412TIP3    H249432   1.567   2.343   3.326  0.5672 -0.3525  0.9162
 8413TIP3   OH249433   4.166   1.347   0.528 -0.2025 -0.6737  0.3019
 8413TIP3    H149434   4.207   1.265   0.503 -1.6749 -1.3666  0.0313
 8413TIP3    H249435   4.235   1.412   0.521  0.3623 -1.4169 -2.1686
 8414TIP3   OH249436   1.287   4.379   2.246  0.1381 -0.1248 -0.0888
 8414TIP3    H149437   1.357   4.422   2.297  0.5658 -0.3766 -0.4593
 8414TIP3    H249438   1.326   4.365   2.160 -0.4316 -0.1184 -0.3504
 8415TIP3   OH249439   5.595   1.324   2.789  0.2488  0.1921 -0.1325
 8415TIP3    H149440   5.614   1.396   2.730 -0.3192 -0.4249 -1.0903
 8415TIP3    H249441   5.505   1.297   2.767  0.3679 -0.6683  0.3486
 8416TIP3   OH249442   4.639   5.116   0.481  0.4077 -0.1147  0.2335
 8416TIP3    H149443   4.711   5.129   0.420 -0.2797 -1.4730 -0.9364
 8416TIP3    H249444   4.657   5.031   0.521 -0.2574 -0.2312  0.3032
 8417TIP3   OH249445   7.091   1.689   2.009  0.0697 -0.3468  0.3565
 8417TIP3    H149446   7.067   1.779   2.032 -0.2418 -0.6677  1.3341
 8417TIP3    H249447   7.167   1.669   2.064  0.2303 -0.6295  0.0356
 8418TIP3   OH249448   3.406   0.495   1.159 -0.4159  0.0220  0.5036
 8418TIP3    H149449   3.469   0.566   1.167  0.4383 -0.8156  1.4967
 8418TIP3    H249450   3.333   0.533   1.110  1.2845  0.7398 -1.6484
 8419TIP3   OH249451   3.056   4.856   1.444 -0.2697 -0.3742 -0.2757
 8419TIP3    H149452   3.090   4.769   1.466 -0.8416 -0.6916 -0.6276
 8419TIP3    H249453   3.130   4.915   1.456  0.4910 -1.0893 -1.3335
 8420TIP3   OH249454   5.174   3.019   1.873  0.2221 -0.1607 -0.0514
 8420TIP3    H149455   5.198   3.076   1.945 -0.1980  0.4225 -0.3658
 8420TIP3    H249456   5.244   3.031   1.808 -1.3799  2.3928 -1.4509
 8421TIP3   OH249457   0.504   0.144   3.256 -0.8933  0.2242  0.7217
 8421TIP3    H149458   0.507   0.240   3.258  0.1455  0.2386 -0.8201
 8421TIP3    H249459   0.441   0.123   3.187  2.0084 -0.1491 -1.9924
 8422TIP3   OH249460   4.148   4.473   2.538  0.1929 -0.2174 -0.0364
 8422TIP3    H149461   4.082   4.411   2.508  0.5288 -0.7115  0.2497
 8422TIP3    H249462   4.142   4.546   2.476  0.7312 -1.1270 -1.1810
 8423TIP3   OH249463   5.004   4.525   1.008  0.2269  0.1819  0.1779
 8423TIP3    H149464   5.050   4.447   1.039 -0.0751 -0.5589 -1.1601
 8423TIP3    H249465   5.015   4.589   1.078  1.5735 -0.6369  0.7489
 8424TIP3   OH249466   7.304   0.498   0.792 -0.1393 -0.2224 -0.1380
 8424TIP3    H149467   7.374   0.561   0.774  0.6729 -0.9224  0.4500
 8424TIP3    H249468   7.349   0.413   0.794 -0.5549 -0.4690  2.5970
 8425TIP3   OH249469   3.728   0.416   0.871 -0.0063 -0.1660  0.2832
 8425TIP3    H149470   3.687   0.495   0.836 -0.0081 -0.3591 -0.1583
 8425TIP3    H249471   3.655   0.359   0.893 -0.0118 -1.2744 -2.2547
 8426TIP3   OH249472   0.875   7.591   1.470 -0.7568 -0.2318  0.0687
 8426TIP3    H149473   0.944   7.657   1.487 -0.2609 -0.9182  0.8167
 8426TIP3    H249474   0.856   7.600   1.377  0.7727 -0.4117 -0.2930
 8427TIP3   OH249475   5.347   3.235   0.854 -0.2359  0.2835  0.0759
 8427TIP3    H149476   5.383   3.305   0.908 -0.7430  2.2265 -1.9623
 8427TIP3    H249477   5.417   3.170   0.850  1.0457  1.5796  0.4078
 8428TIP3   OH249478   2.244   2.354   2.363 -0.1924 -0.5022 -0.1234
 8428TIP3    H149479   2.181   2.347   2.292 -0.7400 -1.1685  0.4059
 8428TIP3    H249480   2.329   2.364   2.319 -0.6968  0.8263 -0.8362
 8429TIP3   OH249481   2.247   2.749   2.272  0.2122 -0.5220 -0.1091
 8429TIP3    H149482   2.168   2.694   2.267  0.5459 -0.8894 -1.8825
 8429TIP3    H249483   2.270   2.766   2.181  2.2160 -0.4682  0.3646
 8430TIP3   OH249484   7.336   2.030   1.831 -0.2176  0.1747  0.4954
 8430TIP3    H149485   7.293   2.038   1.916 -2.4312  0.3186 -0.5650
 8430TIP3    H249486   7.333   2.119   1.795  0.5672  0.0841  0.1783
 8431TIP3   OH249487   0.392   7.042   0.778 -0.0647 -0.2737  0.2748
 8431TIP3    H149488   0.356   6.953   0.783  0.6573 -0.6337 -0.5504
 8431TIP3    H249489   0.356   7.087   0.854 -0.1564 -1.3831  0.9212
 8432TIP3   OH249490   7.137   2.878   1.769  0.1064 -0.6876  0.3822
 8432TIP3    H149491   7.131   2.957   1.822  0.4189 -0.9026  0.7507
 8432TIP3    H249492   7.177   2.906   1.687  1.6759 -0.7241  1.1002
 8433TIP3   OH249493   4.487   4.394   3.005 -0.4490  0.0066  0.1626
 8433TIP3    H149494   4.466   4.322   3.065  3.3683  0.4997  2.4296
 8433TIP3    H249495   4.469   4.359   2.918  0.1485 -3.3508  1.2325
 8434TIP3   OH249496   6.942   7.504   2.644 -0.3228 -0.0607 -0.2760
 8434TIP3    H149497   7.015   7.564   2.627 -0.5174 -0.1444 -1.4867
 8434TIP3    H249498   6.982   7.418   2.654  0.1068  0.3760  2.7914
 8435TIP3   OH249499   6.005   1.544   1.994 -0.7992 -0.2987  0.2267
 8435TIP3    H149500   6.081   1.537   2.052  0.5542  1.3209 -1.2413
 8435TIP3    H249501   6.035   1.507   1.911 -1.6205  0.3035 -0.3584
 8436TIP3   OH249502   6.971   2.302   3.185 -0.2793  0.1783  0.1180
 8436TIP3    H149503   7.012   2.229   3.232  0.4143 -0.1168 -0.9133
 8436TIP3    H249504   6.877   2.292   3.203 -0.3278 -1.6365 -0.8812
 8437TIP3   OH249505   4.527   1.901   0.587  0.4714 -0.4378 -0.2825
 8437TIP3    H149506   4.518   1.869   0.677 -2.5500 -1.2429 -0.7546
 8437TIP3    H249507   4.591   1.972   0.593  0.0868 -0.2201  2.5994
 8438TIP3   OH249508   3.820   6.188   1.847 -0.1484 -0.6253 -0.2228
 8438TIP3    H149509   3.812   6.273   1.890 -1.0546  0.0403 -1.6263
 8438TIP3    H249510   3.735   6.147   1.857 -0.2163 -0.6716 -0.9235
 8439TIP3   OH249511   7.209   0.681   0.409  0.6769 -0.2301  0.3279
 8439TIP3    H149512   7.264   0.757   0.394  1.1978 -0.9483 -1.7401
 8439TIP3    H249513   7.262   0.607   0.379 -1.3196 -0.9520 -1.6653
 8440TIP3   OH249514   3.460   4.910   1.315  0.4246 -0.1627  0.3635
 8440TIP3    H149515   3.483   4.961   1.393  1.2339  0.0359  0.0018
 8440TIP3    H249516   3.440   4.823   1.349  2.3229 -0.5179  0.6388
 8441TIP3   OH249517   3.465   3.731   2.488 -0.1119 -0.3861 -0.1622
 8441TIP3    H149518   3.399   3.724   2.558  0.2148  0.9146  0.3068
 8441TIP3    H249519   3.511   3.647   2.490 -0.8950 -0.8159  0.3810
 8442TIP3   OH249520   1.586   7.446   0.867 -0.3840  0.0944  0.3296
 8442TIP3    H149521   1.525   7.519   0.864 -0.7804 -0.1688  1.5305
 8442TIP3    H249522   1.579   7.404   0.781 -0.2099  1.4038 -0.3368
 8443TIP3   OH249523   3.748   0.606   2.034 -0.3645  0.4975  0.0866
 8443TIP3    H149524   3.761   0.687   1.984  2.4386  0.6309  0.8881
 8443TIP3    H249525   3.822   0.602   2.094 -0.1910 -2.8367 -0.1454
 8444TIP3   OH249526   7.138   4.036   1.630  0.3992  0.5670  0.1942
 8444TIP3    H149527   7.131   3.968   1.698 -1.3214  2.4121  2.0081
 8444TIP3    H249528   7.230   4.062   1.631  1.3095 -2.2108 -1.1461
 8445TIP3   OH249529   7.533   4.886   2.234  0.1261 -0.0943  0.0320
 8445TIP3    H149530   7.489   4.805   2.260  0.9013 -1.0365 -1.4279
 8445TIP3    H249531   7.462   4.943   2.205 -0.3184 -0.8515 -0.4192
 8446TIP3   OH249532   5.059   3.416   2.453  0.3349 -0.0909  0.4204
 8446TIP3    H149533   5.076   3.327   2.421  1.9290  0.4379 -0.3517
 8446TIP3    H249534   4.965   3.429   2.440  0.3314 -1.1512 -0.8391
 8447TIP3   OH249535   4.802   4.688   1.887  0.1260  0.1093  0.0224
 8447TIP3    H149536   4.800   4.784   1.887  0.1756  0.1091  0.3872
 8447TIP3    H249537   4.801   4.663   1.979 -1.2069 -0.2741 -0.0796
 8448TIP3   OH249538   0.267   5.081   2.882  0.5639 -0.1062  0.1458
 8448TIP3    H149539   0.356   5.051   2.865  1.6549  1.7699  2.1016
 8448TIP3    H249540   0.246   5.046   2.969 -0.8960 -0.9979 -0.5111
 8449TIP3   OH249541   3.830   0.718   0.738 -0.3549  0.2637  0.1836
 8449TIP3    H149542   3.888   0.665   0.793 -0.0660  0.2131 -0.1625
 8449TIP3    H249543   3.762   0.749   0.798  0.0946  0.4212  0.6257
 8450TIP3   OH249544   5.617   0.758   1.853  0.2214 -0.5133  0.2703
 8450TIP3    H149545   5.693   0.726   1.805  0.7376 -0.9914  1.3767
 8450TIP3    H249546   5.638   0.848   1.875 -1.2086  0.7188 -2.7993
 8451TIP3   OH249547   7.331   4.821   1.937 -0.3062 -0.2435  0.0278
 8451TIP3    H149548   7.415   4.853   1.903  0.3437 -1.8116  0.0756
 8451TIP3    H249549   7.287   4.786   1.859 -0.3603 -0.5572  0.1970
 8452TIP3   OH249550   1.461   0.204   0.893  0.0952 -0.5229 -0.4140
 8452TIP3    H149551   1.508   0.180   0.973 -0.5028 -0.3399 -0.0062
 8452TIP3    H249552   1.392   0.263   0.923 -0.6407 -1.0989 -0.9618
 8453TIP3   OH249553   1.706   4.223   0.794  0.2601 -0.0470 -0.2092
 8453TIP3    H149554   1.691   4.191   0.883  1.4924  0.4639  0.1920
 8453TIP3    H249555   1.769   4.162   0.756  0.2557  0.1284 -0.5071
 8454TIP3   OH249556   3.993   3.852   2.752 -0.0514 -0.5410 -0.0366
 8454TIP3    H149557   4.023   3.828   2.839  3.3660  1.4918 -0.4549
 8454TIP3    H249558   4.062   3.818   2.693 -0.5104  1.0257 -1.5620
 8455TIP3   OH249559   2.937   1.763   3.174  0.1217 -0.0571  0.2849
 8455TIP3    H149560   2.975   1.692   3.225  1.7477  0.4270 -0.1907
 8455TIP3    H249561   2.989   1.840   3.197 -2.1072  1.2119  1.4075
 8456TIP3   OH249562   6.745   4.564   1.200 -0.4992 -0.3879 -0.3027
 8456TIP3    H149563   6.749   4.639   1.260 -0.0952 -0.0037 -0.8139
 8456TIP3    H249564   6.747   4.602   1.113  2.4288 -1.1070 -0.6233
 8457TIP3   OH249565   0.608   7.607   2.455  0.1099  0.3048  0.0478
 8457TIP3    H149566   0.622   7.571   2.543 -1.4477 -1.0718 -0.2083
 8457TIP3    H249567   0.515   7.594   2.439  0.0626  1.9546 -1.2283
 8458TIP3   OH249568   4.243   5.786   1.312  0.3836  0.0335 -0.0023
 8458TIP3    H149569   4.259   5.741   1.229  1.5760 -0.2745  0.3677
 8458TIP3    H249570   4.163   5.835   1.298 -0.7747 -1.9007 -0.5473
 8459TIP3   OH249571   4.212   0.736   1.152  0.0948 -0.7082  0.4825
 8459TIP3    H149572   4.238   0.793   1.080 -0.5253 -1.4332 -0.3477
 8459TIP3    H249573   4.250   0.776   1.230  0.0572  0.5702 -0.1304
 8460TIP3   OH249574   1.328   7.320   0.997  0.2982  0.1511 -0.0022
 8460TIP3    H149575   1.266   7.258   0.958 -0.3173  0.8578 -0.1603
 8460TIP3    H249576   1.404   7.317   0.939 -0.8066  1.5795 -1.5880
 8461TIP3   OH249577   5.254   5.656   1.790  0.0550 -0.0765 -0.8250
 8461TIP3    H149578   5.279   5.744   1.817  2.3229 -0.6884 -0.6650
 8461TIP3    H249579   5.228   5.665   1.699 -2.5909  1.1739 -0.0367
 8462TIP3   OH249580   6.587   6.242   1.922 -0.0262  0.0830 -0.4626
 8462TIP3    H149581   6.509   6.195   1.952  0.1642  0.4144  0.5898
 8462TIP3    H249582   6.561   6.334   1.920 -0.4544 -0.0411 -2.7027
 8463TIP3   OH249583   2.567   2.155   0.920  0.2053  0.1373  0.0024
 8463TIP3    H149584   2.533   2.099   0.849 -2.1643  2.1593 -0.5888
 8463TIP3    H249585   2.607   2.229   0.874 -3.0063  2.4350  0.5645
 8464TIP3   OH249586   6.511   5.819   2.431  0.2902 -0.2867  0.1509
 8464TIP3    H149587   6.454   5.742   2.427  0.3758 -0.3477  0.1033
 8464TIP3    H249588   6.541   5.823   2.521 -1.0108  0.6299  0.5783
 8465TIP3   OH249589   3.866   7.581   1.673  0.3092  0.2890  0.2081
 8465TIP3    H149590   3.845   7.663   1.628  0.9615 -0.4431 -1.4933
 8465TIP3    H249591   3.808   7.516   1.633  1.4048 -0.5228 -0.1123
 8466TIP3   OH249592   3.057   0.883   0.665  0.2118 -0.5232 -0.4077
 8466TIP3    H149593   3.018   0.834   0.592 -1.1043  1.2187 -0.9480
 8466TIP3    H249594   3.071   0.971   0.631  2.2695 -0.3963  0.6124
 8467TIP3   OH249595   6.301   0.086   2.261 -0.0429 -0.2079 -0.1302
 8467TIP3    H149596   6.296   0.100   2.167 -2.1024  3.2312  0.3077
 8467TIP3    H249597   6.222   0.037   2.283  0.1041 -0.4346 -0.1007
 8468TIP3   OH249598   7.430   3.589   0.978 -0.5633 -0.5364  0.4012
 8468TIP3    H149599   7.402   3.639   1.054  0.1426 -1.4103  1.2682
 8468TIP3    H249600   7.437   3.499   1.010  2.7126 -0.4835  0.1973
 8469TIP3   OH249601   2.204   4.928   1.831  0.3941  0.4956  0.2347
 8469TIP3    H149602   2.137   4.995   1.845  0.2555  0.5318 -0.5664
 8469TIP3    H249603   2.259   4.933   1.909  0.5741  1.7638  0.0485
 8470TIP3   OH249604   7.244   5.125   1.537 -0.2119  0.5990 -0.1944
 8470TIP3    H149605   7.199   5.176   1.604 -0.9249 -0.7027  0.3543
 8470TIP3    H249606   7.175   5.096   1.477 -0.3178 -1.9559  1.0077
 8471TIP3   OH249607   7.618   0.788   0.408  0.0792 -0.7425  0.3955
 8471TIP3    H149608   7.690   0.728   0.390  0.2604 -0.3794 -0.1303
 8471TIP3    H249609   7.659   0.859   0.457  0.2273 -0.2225 -0.4489
 8472TIP3   OH249610   5.073   6.665   0.862  0.0299  0.2167  0.2976
 8472TIP3    H149611   5.161   6.690   0.889  0.2179  0.1897 -0.2629
 8472TIP3    H249612   5.087   6.595   0.798 -0.3698  0.5338 -0.1473
 8473TIP3   OH249613   3.999   7.177   1.370  0.1448 -0.1409  0.3821
 8473TIP3    H149614   4.036   7.098   1.331 -0.9974 -1.0500  1.0731
 8473TIP3    H249615   4.013   7.166   1.464 -0.4728  0.2409  0.5217
 8474TIP3   OH249616   5.572   3.051   2.135  0.3800  0.3220  0.6339
 8474TIP3    H149617   5.649   3.025   2.085  1.2427  0.7241  1.7160
 8474TIP3    H249618   5.548   3.137   2.100 -1.2699 -0.9349 -1.5703
 8475TIP3   OH249619   6.074   1.189   3.315 -0.5586 -0.0796  0.4804
 8475TIP3    H149620   6.076   1.233   3.400 -0.5645 -0.4072  0.6500
 8475TIP3    H249621   5.994   1.222   3.274 -2.1837 -2.1281  1.8053
 8476TIP3   OH249622   5.578   1.837   2.002  0.0708  0.0411 -0.6468
 8476TIP3    H149623   5.589   1.845   2.097 -0.0305  0.0462 -0.6362
 8476TIP3    H249624   5.662   1.800   1.972 -0.4343 -1.3986 -0.3706
 8477TIP3   OH249625   2.345   5.852   1.650  1.0023  0.2522 -0.0434
 8477TIP3    H149626   2.409   5.899   1.598  0.4954 -0.2465 -1.1408
 8477TIP3    H249627   2.260   5.874   1.611  0.6354 -0.3874  0.3660
 8478TIP3   OH249628   4.218   2.472   1.527  0.1535 -0.0690 -0.8101
 8478TIP3    H149629   4.243   2.389   1.567  0.9946  1.2604  1.5924
 8478TIP3    H249630   4.130   2.490   1.561  1.1141  1.3657  1.1080
 8479TIP3   OH249631   0.446   4.671   0.868  0.0922  0.1619  0.4353
 8479TIP3    H149632   0.474   4.580   0.879  1.3598  0.1565 -2.0356
 8479TIP3    H249633   0.371   4.667   0.808  1.0683  0.7783 -0.8849
 8480TIP3   OH249634   1.406   7.624   0.783 -0.3067 -0.3767  0.3457
 8480TIP3    H149635   1.430   7.703   0.832  0.2870 -0.2521 -0.1346
 8480TIP3    H249636   1.371   7.656   0.700 -2.1654 -0.5569  1.0073
 8481TIP3   OH249637   3.547   7.047   1.769  0.0679  0.2116  0.3535
 8481TIP3    H149638   3.468   7.029   1.818 -1.6046 -0.0735 -2.2453
 8481TIP3    H249639   3.529   7.129   1.722  1.3011  0.1554 -0.2776
 8482TIP3   OH249640   5.364   2.278   1.125 -0.0280 -0.8542 -0.2198
 8482TIP3    H149641   5.439   2.271   1.066  0.2942 -1.6806  0.2676
 8482TIP3    H249642   5.367   2.198   1.177 -1.0402 -0.7306  0.0563
 8483TIP3   OH249643   1.141   0.831   2.553 -0.1383  0.3890 -0.0448
 8483TIP3    H149644   1.048   0.847   2.543 -0.2614 -0.3270 -0.0988
 8483TIP3    H249645   1.152   0.807   2.645 -0.1837 -0.5695 -0.2704
 8484TIP3   OH249646   2.446   5.673   1.344 -0.5438 -0.0531  0.1520
 8484TIP3    H149647   2.427   5.589   1.303 -1.4663 -0.0087  0.4604
 8484TIP3    H249648   2.370   5.727   1.325  0.2060  0.8504 -0.3671
 8485TIP3   OH249649   5.660   3.496   0.938 -0.1926 -0.5722 -0.1758
 8485TIP3    H149650   5.638   3.585   0.911  0.1022 -0.0303  1.2602
 8485TIP3    H249651   5.742   3.476   0.892 -0.0739  0.0279 -0.2256
 8486TIP3   OH249652   0.897   6.836   2.756  0.0477  0.0958  0.2237
 8486TIP3    H149653   0.806   6.831   2.725 -0.8225 -2.9756  2.7315
 8486TIP3    H249654   0.950   6.833   2.676 -2.0567 -2.8095 -1.2752
 8487TIP3   OH249655   3.953   3.349   1.596 -0.0806  0.1669 -0.3600
 8487TIP3    H149656   3.931   3.406   1.522  1.2207  4.0282  1.8737
 8487TIP3    H249657   4.042   3.376   1.621 -0.0971 -1.6206  2.0018
 8488TIP3   OH249658   1.314   3.284   1.760 -0.4054  0.1541  0.1434
 8488TIP3    H149659   1.352   3.198   1.744 -0.8941 -0.2653  1.1551
 8488TIP3    H249660   1.256   3.271   1.836  0.5678  1.6596  1.1990
 8489TIP3   OH249661   2.904   1.800   0.401  0.0295 -0.6594  0.2732
 8489TIP3    H149662   2.941   1.828   0.317 -0.4853  2.0496  0.8546
 8489TIP3    H249663   2.957   1.846   0.467 -1.2536 -0.5901  1.2975
 8490TIP3   OH249664   6.522   1.293   2.090  0.4876  0.5289 -0.1973
 8490TIP3    H149665   6.614   1.286   2.118  0.6846  0.2415 -0.8723
 8490TIP3    H249666   6.515   1.382   2.055  0.2299  0.9010  0.7805
 8491TIP3   OH249667   1.058   0.069   1.123  0.8544  0.0254  0.4980
 8491TIP3    H149668   1.000   0.143   1.142 -0.0515 -1.0172  1.9489
 8491TIP3    H249669   1.137   0.087   1.174  0.9355  0.3586  0.2568
 8492TIP3   OH249670   2.360   5.598   0.562 -0.0419  0.1308 -0.0484
 8492TIP3    H149671   2.386   5.667   0.622  0.3251  0.3987 -0.5084
 8492TIP3    H249672   2.443   5.566   0.525 -0.2403 -0.2480 -0.1690
 8493TIP3   OH249673   2.479   6.587   0.365 -0.6080 -0.0008 -0.2712
 8493TIP3    H149674   2.388   6.590   0.393 -0.2851  1.5920  0.7116
 8493TIP3    H249675   2.491   6.666   0.313 -0.1713 -1.0034 -1.7938
 8494TIP3   OH249676   3.869   6.976   0.960 -0.1927 -0.3863 -0.6667
 8494TIP3    H149677   3.844   6.886   0.984 -0.0841 -0.7691 -1.9162
 8494TIP3    H249678   3.791   7.028   0.978  0.0599 -0.5444  1.0098
 8495TIP3   OH249679   2.565   5.876   1.470 -0.3226  0.3899 -0.3246
 8495TIP3    H149680   2.602   5.937   1.406  1.1246 -0.6669 -0.5156
 8495TIP3    H249681   2.522   5.809   1.417 -3.6331  2.1285 -0.1297
 8496TIP3   OH249682   4.307   6.999   2.518 -0.5473 -0.0641 -0.6053
 8496TIP3    H149683   4.368   6.931   2.547  0.7423  0.5231 -1.8369
 8496TIP3    H249684   4.295   7.055   2.594 -1.4305 -1.4870  0.3526
 8497TIP3   OH249685   1.424   6.162   1.386  0.5480  0.7012 -0.3236
 8497TIP3    H149686   1.445   6.098   1.453 -0.3419  2.1469  1.4150
 8497TIP3    H249687   1.364   6.115   1.327  1.0722 -0.4825  0.0486
 8498TIP3   OH249688   5.429   0.944   1.322 -1.1632 -0.1360  0.3621
 8498TIP3    H149689   5.468   0.890   1.390 -0.7750 -1.1174 -0.6239
 8498TIP3    H249690   5.419   0.886   1.247 -4.4177  0.0568  0.4924
 8499TIP3   OH249691   3.524   0.969   1.489  0.1298 -0.2710  0.0385
 8499TIP3    H149692   3.474   1.048   1.510  0.6379  0.0298  0.1221
 8499TIP3    H249693   3.556   0.938   1.574 -1.2006 -1.3401  0.1768
 8500TIP3   OH249694   2.834   3.785   2.489  0.3337  0.0184  0.0041
 8500TIP3    H149695   2.758   3.799   2.546  0.7950  2.6807  0.0774
 8500TIP3    H249696   2.811   3.829   2.407  0.4118 -2.2219 -1.2948
 8501TIP3   OH249697   2.631   6.881   2.305  0.0950  0.1582  0.2385
 8501TIP3    H149698   2.604   6.835   2.225 -2.0315 -0.8623  1.4265
 8501TIP3    H249699   2.632   6.813   2.372 -1.7751  1.5416  1.7878
 8502TIP3   OH249700   6.810   2.533   2.207 -0.0756 -0.0363 -0.0899
 8502TIP3    H149701   6.821   2.593   2.133 -0.7401 -0.0627 -0.2207
 8502TIP3    H249702   6.726   2.489   2.189 -0.2421 -0.0410  0.6761
 8503TIP3   OH249703   7.323   4.414   1.636 -0.5277  0.2654  0.3375
 8503TIP3    H149704   7.347   4.321   1.646 -0.7500  0.2047  0.3127
 8503TIP3    H249705   7.406   4.461   1.643  0.0496 -0.1190 -2.5917
 8504TIP3   OH249706   2.489   6.353   3.454  0.1161 -0.0917  0.2735
 8504TIP3    H149707   2.430   6.293   3.409 -0.0512 -0.5489  1.0879
 8504TIP3    H249708   2.468   6.439   3.416  0.8335 -0.6064 -1.3906
 8505TIP3   OH249709   0.355   2.983   2.702 -0.1293 -0.0972  0.0621
 8505TIP3    H149710   0.331   3.047   2.769 -0.3837 -1.0257  0.8892
 8505TIP3    H249711   0.447   2.964   2.718  0.7078  1.9016 -1.7930
 8506TIP3   OH249712   0.722   3.683   2.678 -0.1170 -0.3927 -0.2949
 8506TIP3    H149713   0.702   3.629   2.601 -1.2053 -0.1087 -0.2271
 8506TIP3    H249714   0.637   3.699   2.719  0.4084 -0.2065  0.7526
 8507TIP3   OH249715   3.946   3.555   2.916  0.0019  0.3899 -0.6861
 8507TIP3    H149716   3.988   3.637   2.944 -0.3900 -0.0532  1.3483
 8507TIP3    H249717   3.948   3.499   2.993 -0.0685 -1.4210 -1.9274
 8508TIP3   OH249718   5.726   3.932   3.447  1.0414 -0.2836 -0.1465
 8508TIP3    H149719   5.802   3.875   3.456  1.1997  0.1729  1.9464
 8508TIP3    H249720   5.760   4.009   3.400  1.2700 -1.1049 -1.3436
 8509TIP3   OH249721   4.542   1.877   3.338 -0.3422 -0.7701 -0.4092
 8509TIP3    H149722   4.568   1.787   3.316 -1.2888 -0.8373 -1.3357
 8509TIP3    H249723   4.448   1.872   3.353 -0.8268  0.3977 -2.5910
 8510TIP3   OH249724   7.398   1.224   2.259  0.2728  0.0518  0.3010
 8510TIP3    H149725   7.450   1.165   2.313 -1.0597  0.0887  1.6819
 8510TIP3    H249726   7.319   1.241   2.311  0.3035  2.4949 -0.3366
 8511TIP3   OH249727   4.314   3.684   1.878  0.5004  0.0841 -0.6350
 8511TIP3    H149728   4.256   3.742   1.928 -1.7508 -0.6086 -2.2774
 8511TIP3    H249729   4.376   3.650   1.943 -2.8158 -1.5204  2.0122
 8512TIP3   OH249730   0.453   1.967   2.039  0.5184  0.1045 -0.3971
 8512TIP3    H149731   0.453   2.061   2.020  1.7779  0.1354 -0.2999
 8512TIP3    H249732   0.364   1.939   2.017  0.2252  1.2454 -0.7668
 8513TIP3   OH249733   5.470   2.243   1.569 -0.3059  0.3132  0.0465
 8513TIP3    H149734   5.552   2.248   1.520 -0.6234 -0.8969 -0.6748
 8513TIP3    H249735   5.483   2.170   1.630 -0.0345  1.6037  1.5695
 8514TIP3   OH249736   6.387   0.526   2.426  0.7069  0.4268 -0.3142
 8514TIP3    H149737   6.481   0.543   2.421  0.6840  0.6130 -0.1065
 8514TIP3    H249738   6.349   0.583   2.359  0.7017  0.6600 -0.1140
 8515TIP3   OH249739   1.002   1.444   1.178  0.1057  0.4921  0.0941
 8515TIP3    H149740   1.054   1.449   1.098  0.9971  0.8943  0.6860
 8515TIP3    H249741   0.979   1.535   1.196  0.6395  0.4994  0.7625
 8516TIP3   OH249742   5.727   1.331   1.007 -0.3830  0.6041  0.0966
 8516TIP3    H149743   5.660   1.289   1.062  0.2073 -1.9211 -0.9803
 8516TIP3    H249744   5.679   1.358   0.928 -0.6285  1.3687  0.4947
 8517TIP3   OH249745   7.094   6.875   0.673 -0.1585 -0.1791 -0.0893
 8517TIP3    H149746   7.094   6.970   0.669  0.3326 -0.2168 -1.4474
 8517TIP3    H249747   7.025   6.854   0.736 -0.9875  1.0555 -0.5365
 8518TIP3   OH249748   5.884   4.808   1.593  0.0028  0.2506  0.4619
 8518TIP3    H149749   5.831   4.868   1.646  0.2650  1.6233 -0.7665
 8518TIP3    H249750   5.894   4.730   1.648 -2.4096  0.3334  1.1480
 8519TIP3   OH249751   4.622   1.987   1.809  0.0515  0.1928  0.1528
 8519TIP3    H149752   4.536   1.975   1.768 -0.0826 -1.4261  0.8184
 8519TIP3    H249753   4.630   1.913   1.869  1.5534  0.8025  0.7477
 8520TIP3   OH249754   5.505   3.473   2.688  0.4399 -0.0134 -0.3027
 8520TIP3    H149755   5.412   3.476   2.666  0.2539  0.6609  0.5302
 8520TIP3    H249756   5.523   3.379   2.701 -0.3574 -0.0776  0.4545
 8521TIP3   OH249757   0.260   4.978   0.544 -0.3963 -0.2700 -0.5078
 8521TIP3    H149758   0.226   5.060   0.510  0.2284  0.1510 -0.1360
 8521TIP3    H249759   0.184   4.921   0.550 -1.0620  0.6730  0.3742
 8522TIP3   OH249760   2.839   3.303   2.279  0.1961  0.0219 -0.2304
 8522TIP3    H149761   2.847   3.388   2.322 -1.6962 -0.1802  0.6266
 8522TIP3    H249762   2.855   3.240   2.349 -0.3524 -0.3208 -0.4183
 8523TIP3   OH249763   3.788   0.870   1.944 -0.0830 -0.1488 -0.1411
 8523TIP3    H149764   3.776   0.866   1.849  1.1685 -4.0844 -0.3200
 8523TIP3    H249765   3.870   0.918   1.955 -1.6022  2.8844 -0.6784
 8524TIP3   OH249766   3.669   0.893   3.124  0.3135 -0.4876  0.1080
 8524TIP3    H149767   3.638   0.966   3.070  0.4963 -0.4448  0.0594
 8524TIP3    H249768   3.590   0.843   3.144  0.4955 -1.9457 -2.3191
 8525TIP3   OH249769   4.432   7.567   1.835 -0.1372 -0.1804 -0.6231
 8525TIP3    H149770   4.370   7.629   1.875  1.6142  0.6798  0.8900
 8525TIP3    H249771   4.424   7.584   1.741 -2.2321 -0.1784 -0.5035
 8526TIP3   OH249772   4.212   2.828   2.731  0.2576 -0.1086  0.2942
 8526TIP3    H149773   4.232   2.916   2.762  1.8633 -0.0555 -0.8012
 8526TIP3    H249774   4.181   2.840   2.641 -3.3742 -0.3556  1.3562
 8527TIP3   OH249775   2.342   6.685   1.589 -0.3791 -0.2429  0.1852
 8527TIP3    H149776   2.353   6.754   1.523  1.3696 -0.2157  0.4513
 8527TIP3    H249777   2.274   6.717   1.647 -0.5188  0.6514 -0.4535
 8528TIP3   OH249778   4.254   5.221   3.608 -0.1783  0.8061 -0.5373
 8528TIP3    H149779   4.197   5.146   3.588  1.8498 -1.2346  0.7718
 8528TIP3    H249780   4.331   5.208   3.554  0.5797  1.4419  0.3572
 8529TIP3   OH249781   4.557   7.237   1.070 -0.1403 -0.2643 -0.3575
 8529TIP3    H149782   4.504   7.223   1.149  0.0786  0.5704 -0.0490
 8529TIP3    H249783   4.501   7.289   1.013 -0.4468 -1.2007 -0.9320
 8530TIP3   OH249784   6.307   1.706   3.321 -0.6528  0.0566 -0.1503
 8530TIP3    H149785   6.227   1.672   3.281 -0.2093  0.9163 -1.9163
 8530TIP3    H249786   6.373   1.639   3.302 -0.1926  0.9583 -1.9671
 8531TIP3   OH249787   1.079   6.826   1.361  0.2965 -0.5579 -0.4563
 8531TIP3    H149788   1.103   6.827   1.268  0.7500 -0.9935 -0.3480
 8531TIP3    H249789   0.995   6.871   1.364 -1.7024 -3.8462 -1.6489
 8532TIP3   OH249790   4.403   4.112   1.580 -0.1114  0.2485  0.1915
 8532TIP3    H149791   4.321   4.135   1.536 -0.1245 -0.7589 -0.3468
 8532TIP3    H249792   4.398   4.018   1.592  0.7827  0.2383  0.5588
 8533TIP3   OH249793   1.503   7.166   2.802  0.4178  0.5691  0.1654
 8533TIP3    H149794   1.429   7.137   2.855  0.4492 -1.2308 -0.7141
 8533TIP3    H249795   1.571   7.189   2.866  0.9114 -2.7498  0.9973
 8534TIP3   OH249796   4.433   4.695   3.201 -0.0320  0.1439  0.3277
 8534TIP3    H149797   4.415   4.774   3.252 -2.0966  1.7660 -2.6343
 8534TIP3    H249798   4.367   4.632   3.232  1.6919 -0.6500  2.7757
 8535TIP3   OH249799   3.431   1.204   2.625  0.1545 -0.3135  0.1124
 8535TIP3    H149800   3.427   1.108   2.619 -1.9742 -0.1909 -1.4116
 8535TIP3    H249801   3.361   1.228   2.685  0.8811  0.2891  0.7324
 8536TIP3   OH249802   2.318   2.377   0.851  0.1201 -0.4798  0.1379
 8536TIP3    H149803   2.268   2.446   0.808 -0.7277 -0.8408  0.5305
 8536TIP3    H249804   2.385   2.424   0.902 -1.0732  0.1220  1.2047
 8537TIP3   OH249805   6.621   4.692   0.526 -0.2471  0.0829  0.4557
 8537TIP3    H149806   6.637   4.786   0.521 -0.7980  0.1627  0.1462
 8537TIP3    H249807   6.709   4.653   0.522 -0.0354  0.5693  0.2387
 8538TIP3   OH249808   1.337   4.299   2.957 -0.6562  0.0373 -0.0698
 8538TIP3    H149809   1.382   4.217   2.940 -0.5727  0.1195 -0.2422
 8538TIP3    H249810   1.401   4.367   2.936 -1.0142  0.1675 -0.7634
 8539TIP3   OH249811   4.053   6.936   0.766  0.2552 -0.3835 -0.2369
 8539TIP3    H149812   3.986   6.965   0.827 -2.4864  0.5789 -3.3722
 8539TIP3    H249813   4.128   6.992   0.784 -0.8017  0.5435  1.5390
 8540TIP3   OH249814   1.359   7.097   1.692  0.0071 -0.4162  0.2205
 8540TIP3    H149815   1.374   7.004   1.710 -1.9389 -0.8568 -0.1649
 8540TIP3    H249816   1.293   7.097   1.623  1.6028  1.2635 -1.4279
 8541TIP3   OH249817   1.452   3.278   2.431 -0.1870  0.6190 -0.5737
 8541TIP3    H149818   1.547   3.287   2.437  0.3676  1.7713 -5.8691
 8541TIP3    H249819   1.418   3.354   2.477  1.0997 -0.9751  3.4340
 8542TIP3   OH249820   6.384   7.677   1.293  0.6544  0.0868 -0.3714
 8542TIP3    H149821   6.361   7.597   1.341  1.6414 -1.0299 -1.6778
 8542TIP3    H249822   6.479   7.671   1.282  0.5969  0.8915 -1.4415
 8543TIP3   OH249823   3.485   5.531   0.737 -0.4421  0.1092  0.2692
 8543TIP3    H149824   3.415   5.588   0.769 -0.3542  0.1663  0.3607
 8543TIP3    H249825   3.504   5.473   0.811  0.8935  1.3156  0.9051
 8544TIP3   OH249826   7.324   5.412   1.067 -0.2544 -0.9269  0.5741
 8544TIP3    H149827   7.384   5.338   1.075 -0.8620 -1.3720  1.0557
 8544TIP3    H249828   7.238   5.373   1.052 -0.4905 -0.3054  0.2653
 8545TIP3   OH249829   5.300   5.060   1.627  0.9575 -0.2658 -0.0306
 8545TIP3    H149830   5.321   5.153   1.639 -0.5778 -0.1544  2.2852
 8545TIP3    H249831   5.222   5.060   1.573 -0.0459 -0.0740  1.3661
 8546TIP3   OH249832   4.680   2.641   1.888  0.2306  0.0023  0.6676
 8546TIP3    H149833   4.684   2.559   1.840  0.6298  0.8087 -0.7218
 8546TIP3    H249834   4.588   2.667   1.885  0.4522  0.7216 -0.8854
 8547TIP3   OH249835   6.994   2.571   3.134 -0.3181 -0.1003 -0.1778
 8547TIP3    H149836   7.010   2.485   3.174 -0.0597  0.7574  1.6409
 8547TIP3    H249837   6.918   2.556   3.076  0.1983 -1.7013 -0.4975
 8548TIP3   OH249838   0.422   3.576   1.192 -0.1026 -0.0864  0.0374
 8548TIP3    H149839   0.334   3.555   1.160  0.1834 -1.1727 -0.0708
 8548TIP3    H249840   0.406   3.627   1.271 -0.8624 -1.1442  0.6003
 8549TIP3   OH249841   1.618   0.181   1.126  0.4150 -0.0692  0.2509
 8549TIP3    H149842   1.633   0.089   1.149  1.6789  0.2867  0.9705
 8549TIP3    H249843   1.705   0.220   1.122  0.0454  0.6846 -2.0104
 8550TIP3   OH249844   6.354   6.603   6.521 -0.4213  0.0417  0.5629
 8550TIP3    H149845   6.413   6.533   6.494 -1.1612 -0.6378  0.6445
 8550TIP3    H249846   6.275   6.557   6.550 -1.1051  0.9316  0.1616
 8551TIP3   OH249847   0.144   7.125   1.356 -0.6478 -0.3880 -0.1553
 8551TIP3    H149848   0.051   7.133   1.375 -0.6345 -1.1725  0.3227
 8551TIP3    H249849   0.168   7.039   1.390  0.8562  0.8793  2.2911
 8552TIP3   OH249850   6.709   0.307   1.823 -0.5863  0.3895 -0.1954
 8552TIP3    H149851   6.649   0.255   1.770  1.3539  0.2086 -2.3710
 8552TIP3    H249852   6.783   0.326   1.765  0.9531  1.5718  1.9865
 8553TIP3   OH249853   0.376   2.361   0.685 -0.3413  0.6499 -0.4107
 8553TIP3    H149854   0.396   2.450   0.712 -1.2343  0.9218 -0.6163
 8553TIP3    H249855   0.332   2.321   0.760 -2.6474  1.3462 -1.2853
 8554TIP3   OH249856   1.396   4.541   3.120 -0.1157  0.5748  0.1655
 8554TIP3    H149857   1.435   4.468   3.169 -0.7091  0.3693  0.3324
 8554TIP3    H249858   1.317   4.564   3.169  0.7741  2.2470  0.8934
 8555TIP3   OH249859   0.006   3.936   3.374 -0.1746 -0.4331  0.3874
 8555TIP3    H149860  -0.062   3.996   3.404 -0.1403  0.2286 -0.7853
 8555TIP3    H249861  -0.041   3.867   3.328 -0.0104  1.0565 -2.1723
 8556TIP3   OH249862   7.109   0.140   0.348 -0.2750  0.0587  0.3907
 8556TIP3    H149863   7.035   0.093   0.310 -0.4124  0.7528 -0.2165
 8556TIP3    H249864   7.070   0.214   0.394 -0.0463 -0.3178  1.2086
 8557TIP3   OH249865   2.953   3.573   2.842  0.5983  0.6058 -0.0434
 8557TIP3    H149866   2.993   3.505   2.787 -1.7649 -1.0471  0.1352
 8557TIP3    H249867   2.920   3.525   2.918 -0.9255  1.9768  0.2085
 8558TIP3   OH249868   6.142   0.338   1.075 -0.4572 -0.1173  0.2242
 8558TIP3    H149869   6.102   0.381   1.152  0.5404  0.9616  0.1682
 8558TIP3    H249870   6.192   0.408   1.032  0.3403 -1.0991 -0.4876
 8559TIP3   OH249871   6.325   5.596   2.476  0.0330 -0.5379 -0.4713
 8559TIP3    H149872   6.369   5.525   2.523 -0.7079 -0.1273  0.9002
 8559TIP3    H249873   6.256   5.553   2.426 -1.3509 -0.6688  1.4875
 8560TIP3   OH249874   2.716   3.112   0.692  0.3028  0.0480 -0.0616
 8560TIP3    H149875   2.737   3.155   0.775  1.3375  0.0853 -0.3171
 8560TIP3    H249876   2.727   3.019   0.711  1.5810  0.1080 -0.4015
 8561TIP3   OH249877   4.331   2.105   1.909 -0.5287  0.0072 -0.7313
 8561TIP3    H149878   4.244   2.141   1.891 -0.1332  3.2068  2.5048
 8561TIP3    H249879   4.314   2.018   1.944 -2.3922  0.3934 -0.5566
 8562TIP3   OH249880   2.294   0.880   9.176 -0.0708  0.4219  0.0187
 8562TIP3    H149881   2.223   0.912   9.231 -1.4012 -0.8778 -0.8803
 8562TIP3    H249882   2.253   0.815   9.119  1.7724 -0.0969 -0.7820
 8563TIP3   OH249883   6.511   0.996   2.037  0.5238  0.9905 -0.3937
 8563TIP3    H149884   6.583   0.933   2.040 -0.9664 -0.7975 -0.0271
 8563TIP3    H249885   6.491   1.013   2.129  0.2908  1.2609 -0.4936
 8564TIP3   OH249886   5.250   3.816   2.455 -0.0931 -0.1928  0.3344
 8564TIP3    H149887   5.251   3.883   2.524 -0.2758  0.7607 -0.5572
 8564TIP3    H249888   5.343   3.800   2.437 -0.0034  1.4445 -0.9278
 8565TIP3   OH249889   6.044   0.230   2.629 -0.0599  0.5910  0.1642
 8565TIP3    H149890   6.081   0.254   2.714  0.6905  1.6390 -0.4379
 8565TIP3    H249891   6.100   0.275   2.565 -0.2589 -0.6362 -0.9118
 8566TIP3   OH249892   0.472   3.234   2.540 -0.2199  0.0935 -0.1043
 8566TIP3    H149893   0.443   3.244   2.631 -0.3823  0.0646 -0.1521
 8566TIP3    H249894   0.550   3.179   2.545 -0.5712 -0.4037 -0.0337
 8567TIP3   OH249895   5.911   3.485   1.367 -0.6754 -0.0400  0.4617
 8567TIP3    H149896   5.854   3.562   1.374  0.6477  1.0043  0.1143
 8567TIP3    H249897   5.893   3.449   1.281 -0.5811  0.4727  0.2255
 8568TIP3   OH249898   2.649   3.089   1.862  0.4846  0.0264 -0.3503
 8568TIP3    H149899   2.578   3.096   1.925 -0.5183 -0.2450 -1.4224
 8568TIP3    H249900   2.606   3.074   1.778  1.7925  0.2367 -1.0892
 8569TIP3   OH249901   0.680   2.208   1.236 -0.1692  0.2952 -0.2087
 8569TIP3    H149902   0.772   2.210   1.263  0.2951  0.5189 -1.7136
 8569TIP3    H249903   0.636   2.267   1.296  1.1869  2.3880 -1.1499
 8570TIP3   OH249904   5.236   4.918   1.333 -0.0121  0.4628  0.1610
 8570TIP3    H149905   5.330   4.937   1.334 -0.1709  1.2959 -0.2706
 8570TIP3    H249906   5.200   4.978   1.268 -0.4899 -1.5230 -1.5574
 8571TIP3   OH249907   6.013   1.861   1.734 -0.3792  0.1493  0.4384
 8571TIP3    H149908   6.052   1.809   1.664  0.5920  1.4117  0.0126
 8571TIP3    H249909   6.088   1.892   1.785 -0.8359  2.0106  0.0392
 8572TIP3   OH249910   4.153   1.150   1.358 -0.1213  0.3839  0.1072
 8572TIP3    H149911   4.170   1.105   1.441  1.4706  0.0545 -0.3678
 8572TIP3    H249912   4.101   1.227   1.382 -0.9302 -0.4851  1.2158
 8573TIP3   OH249913   1.256   6.018   1.235 -0.2630 -0.0682 -0.6872
 8573TIP3    H149914   1.176   6.033   1.286 -1.8597  0.8854 -3.2999
 8573TIP3    H249915   1.242   5.934   1.192  0.3414 -0.0985 -0.8292
 8574TIP3   OH249916   0.564   6.005   2.809  0.0537  0.0013 -0.1769
 8574TIP3    H149917   0.633   6.071   2.811 -1.1371  1.2726  1.0328
 8574TIP3    H249918   0.503   6.032   2.877 -0.9098 -1.9018 -0.2207
 8575TIP3   OH249919   1.622   6.859   0.623 -0.6375 -0.9294 -0.4813
 8575TIP3    H149920   1.706   6.902   0.609  0.0077 -1.8505  0.4345
 8575TIP3    H249921   1.639   6.793   0.690 -1.6452 -2.4297 -1.6157
 8576TIP3   OH249922   4.065   0.866   2.030  0.2459  0.0970  0.5792
 8576TIP3    H149923   4.017   0.889   2.109  0.3134 -1.0934  0.9882
 8576TIP3    H249924   4.103   0.780   2.049  0.3531 -0.1611 -0.7055
 8577TIP3   OH249925   4.514   3.147   0.724 -0.3309  0.8147  0.3390
 8577TIP3    H149926   4.434   3.102   0.750  1.0733 -2.5590 -0.6986
 8577TIP3    H249927   4.490   3.196   0.645 -1.2806 -0.5879 -0.2734
 8578TIP3   OH249928   0.594   5.183   0.639  0.0083 -0.2997 -0.3978
 8578TIP3    H149929   0.565   5.097   0.608  0.2451 -0.2736 -0.7016
 8578TIP3    H249930   0.689   5.173   0.649 -0.2615 -0.9185  2.2638
 8579TIP3   OH249931   5.231   0.370   1.635 -0.1437 -0.2539 -0.5976
 8579TIP3    H149932   5.154   0.419   1.606 -0.5127  0.0352  0.7882
 8579TIP3    H249933   5.196   0.287   1.668  0.2247 -0.4248 -0.6279
 8580TIP3   OH249934   5.218   1.726   2.961  0.0157 -0.9988 -0.0688
 8580TIP3    H149935   5.188   1.665   3.028 -0.1297 -1.7339 -0.7843
 8580TIP3    H249936   5.153   1.718   2.891 -0.0275  0.0128 -0.1618
 8581TIP3   OH249937   5.380   1.366   1.426  0.0560  0.6535  0.3770
 8581TIP3    H149938   5.293   1.348   1.391  0.6421  1.6230 -1.7658
 8581TIP3    H249939   5.365   1.419   1.504 -1.2693  1.4017 -0.3567
 8582TIP3   OH249940   7.242   3.815   3.368  0.0006  0.3440 -0.3621
 8582TIP3    H149941   7.191   3.830   3.447 -1.2938  0.0527 -1.1085
 8582TIP3    H249942   7.209   3.880   3.306 -1.3846 -1.5450 -1.6990
 8583TIP3   OH249943   5.455   6.755   1.464 -0.1642  0.0301  0.4245
 8583TIP3    H149944   5.485   6.670   1.432  0.0746 -0.0175  0.7761
 8583TIP3    H249945   5.487   6.818   1.399  1.5182  0.0947  1.2766
 8584TIP3   OH249946   4.898   1.715   1.436  0.1953 -0.4045  0.2711
 8584TIP3    H149947   4.934   1.650   1.497 -0.5539 -2.8672 -1.7309
 8584TIP3    H249948   4.831   1.760   1.486  1.4687 -0.3845  2.0561
 8585TIP3   OH249949   3.020   3.153   1.354 -0.4716 -0.4471  0.0800
 8585TIP3    H149950   3.073   3.154   1.434  1.7471 -5.0114 -1.0376
 8585TIP3    H249951   3.065   3.214   1.296 -0.9896  1.4486  1.5572
 8586TIP3   OH249952   0.900   3.027   1.614  0.5535  0.4790  0.1027
 8586TIP3    H149953   0.862   2.998   1.697 -1.0281  1.6396 -0.1710
 8586TIP3    H249954   0.828   3.074   1.570  1.9026  1.5011 -1.0909
 8587TIP3   OH249955   0.171   4.686   2.804  0.0698  0.3102  0.5879
 8587TIP3    H149956   0.120   4.767   2.810 -0.6341 -0.1870  1.7182
 8587TIP3    H249957   0.127   4.636   2.736  0.8788  1.1105 -0.5557
 8588TIP3   OH249958   3.263   1.084   1.927  0.8250  0.8789  0.1935
 8588TIP3    H149959   3.235   1.048   2.011 -0.2961  0.1455 -0.4663
 8588TIP3    H249960   3.359   1.077   1.929  0.7127 -2.0331  0.2189
 8589TIP3   OH249961   1.192   3.895   0.787 -0.1574 -0.1679 -0.3452
 8589TIP3    H149962   1.239   3.831   0.841 -2.8581 -0.5444  1.7286
 8589TIP3    H249963   1.254   3.968   0.779  0.5872 -0.2777  2.9462
 8590TIP3   OH249964   4.185   6.619   2.052 -0.2348  0.3804 -0.0350
 8590TIP3    H149965   4.194   6.525   2.037  0.4013  0.5776 -0.9811
 8590TIP3    H249966   4.091   6.632   2.063 -0.4567 -0.2194 -1.0401
 8591TIP3   OH249967   4.415   7.259   1.313 -0.2286  0.2314  0.6575
 8591TIP3    H149968   4.499   7.284   1.352 -0.0196  0.6027 -0.0191
 8591TIP3    H249969   4.362   7.338   1.317  0.6227  1.0284 -1.9914
 8592TIP3   OH249970   0.736   6.944   2.959  0.1936  0.0486 -0.3206
 8592TIP3    H149971   0.796   6.901   2.898  0.9130  0.2607  0.2297
 8592TIP3    H249972   0.675   6.875   2.985  0.4207 -0.2586 -0.6012
 8593TIP3   OH249973   7.481   0.711   0.761 -0.6680  0.7171 -0.0225
 8593TIP3    H149974   7.455   0.799   0.734  0.9743  0.5957 -2.3057
 8593TIP3    H249975   7.576   0.708   0.746 -0.8239 -1.7199 -0.9622
 8594TIP3   OH249976   3.838   0.069   0.938 -0.9887 -0.7707  0.0536
 8594TIP3    H149977   3.867   0.107   0.856 -0.5203  5.0431  2.4723
 8594TIP3    H249978   3.890  -0.011   0.947  1.5304  0.2273 -3.6113
 8595TIP3   OH249979   3.005   7.040   2.053  0.1895  0.3384  0.1367
 8595TIP3    H149980   3.041   7.112   2.001  0.3208  0.6719  0.6814
 8595TIP3    H249981   2.934   7.005   2.000  0.9113  0.0697 -0.6791
 8596TIP3   OH249982   7.201   6.412   0.841 -0.0051 -0.1038 -0.0241
 8596TIP3    H149983   7.263   6.470   0.795  0.9390 -1.5414 -0.6342
 8596TIP3    H249984   7.191   6.337   0.783  0.1394 -1.3495  1.5053
 8597TIP3   OH249985   0.350   3.854   2.484  0.2912  0.1090 -0.0984
 8597TIP3    H149986   0.274   3.894   2.443 -0.9738 -0.9104  1.1458
 8597TIP3    H249987   0.347   3.763   2.456  0.6294 -0.1029  0.5356
 8598TIP3   OH249988   5.202   2.601   1.493  0.0166 -0.1194  0.3470
 8598TIP3    H149989   5.245   2.525   1.454  1.0601  0.1097  1.0388
 8598TIP3    H249990   5.177   2.654   1.418  2.4855  0.5791 -0.0647
 8599TIP3   OH249991   0.671   1.738   2.407  0.4928 -0.6435 -0.0193
 8599TIP3    H149992   0.683   1.802   2.337  1.3876 -0.2432  0.4863
 8599TIP3    H249993   0.635   1.790   2.480  0.2089 -0.9255  0.0434
 8600TIP3   OH249994   3.506   7.290   0.839  0.5385  0.6387  0.8101
 8600TIP3    H149995   3.478   7.361   0.782  0.9647  0.8991  0.9254
 8600TIP3    H249996   3.438   7.284   0.906 -1.5106 -1.5149 -1.2450
 8601TIP3   OH249997   1.994   0.975   2.242  0.0027  0.8018 -0.1796
 8601TIP3    H149998   1.957   0.892   2.274  1.3330  0.4819  0.6089
 8601TIP3    H249999   1.936   1.042   2.276  1.2463  0.4648  2.8923
 8602TIP3   OH250000   0.697   1.368   2.154 -0.5894 -0.5369  0.4856
 8602TIP3    H150001   0.711   1.411   2.238  1.6262 -0.3019  0.0607
 8602TIP3    H250002   0.651   1.433   2.101  1.1928  0.7323  0.4045
 8603TIP3   OH250003   6.710   6.258   1.090  0.2363  0.3863  0.2826
 8603TIP3    H150004   6.636   6.316   1.106 -1.0280 -1.1936  0.4411
 8603TIP3    H250005   6.781   6.316   1.064 -1.0063  1.9712  0.2782
 8604TIP3   OH250006   0.820   0.199   1.667  0.1295 -0.6504 -0.0842
 8604TIP3    H150007   0.776   0.162   1.743 -0.3569 -1.1071 -0.5760
 8604TIP3    H250008   0.911   0.209   1.694  0.0316 -1.1395  0.4344
 8605TIP3   OH250009   7.584   6.012   1.381 -0.0547 -0.0019 -0.3198
 8605TIP3    H150010   7.527   6.086   1.359 -1.0627 -0.3933  0.8271
 8605TIP3    H250011   7.523   5.944   1.413  0.9444 -0.9338 -0.3483
 8606TIP3   OH250012   6.809   1.279   2.156 -0.0998  0.0478  0.0421
 8606TIP3    H150013   6.899   1.268   2.123 -0.3147  1.2326 -1.0017
 8606TIP3    H250014   6.794   1.201   2.210  0.9695 -1.0218 -1.1219
 8607TIP3   OH250015   4.250   5.416   1.406  0.4573 -0.1201 -0.2091
 8607TIP3    H150016   4.209   5.438   1.322 -0.7941  0.1421  0.4573
 8607TIP3    H250017   4.344   5.431   1.391  0.4437 -1.4430 -1.9861
 8608TIP3   OH250018   1.137   4.266   1.621 -0.6719  0.5113 -0.2619
 8608TIP3    H150019   1.059   4.298   1.576 -0.7871 -1.0784 -1.2335
 8608TIP3    H250020   1.102   4.214   1.694 -0.4798  2.1262  1.0627
 8609TIP3   OH250021   0.160   6.854   0.972 -0.4051  0.3932  0.1721
 8609TIP3    H150022   0.101   6.824   1.040 -0.3170  2.5942  1.2961
 8609TIP3    H250023   0.220   6.780   0.958 -1.4927 -0.7287  1.2202
 8610TIP3   OH250024   7.550   5.279   0.543 -0.0513  0.8436 -0.0419
 8610TIP3    H150025   7.581   5.367   0.523 -0.3850  0.8638 -0.4895
 8610TIP3    H250026   7.487   5.291   0.614  0.3274  0.8972  0.2887
 8611TIP3   OH250027   5.905   6.141   1.306 -0.3100  0.4688 -0.5025
 8611TIP3    H150028   5.884   6.201   1.234  1.2861  1.1444 -0.4334
 8611TIP3    H250029   5.895   6.193   1.385 -2.3610 -0.3570 -0.1633
 8612TIP3   OH250030   5.038   1.633   1.022  0.0739  0.3935  0.4871
 8612TIP3    H150031   5.003   1.683   0.948 -0.3915 -2.1768 -1.1442
 8612TIP3    H250032   5.086   1.561   0.982 -0.1299 -1.0709  2.6892
 8613TIP3   OH250033   6.471   6.428   2.543  0.1081  0.0558  0.4662
 8613TIP3    H150034   6.484   6.522   2.530  1.0141 -0.0027  0.8545
 8613TIP3    H250035   6.521   6.408   2.621 -0.2207 -0.7260  0.4800
 8614TIP3   OH250036   2.538   7.263   1.963 -0.1422 -0.3252 -0.0100
 8614TIP3    H150037   2.608   7.320   1.995 -0.1729  1.6307 -2.9418
 8614TIP3    H250038   2.584   7.189   1.924  0.0997 -0.5911  0.7624
 8615TIP3   OH250039   3.222   0.993   2.191 -0.0995  0.1609 -0.6946
 8615TIP3    H150040   3.289   0.925   2.199 -0.3248 -0.1520 -1.3596
 8615TIP3    H250041   3.172   0.987   2.272  0.4282  0.1315 -0.3668
 8616TIP3   OH250042   2.726   2.008   2.567 -0.1390  0.7743 -0.5125
 8616TIP3    H150043   2.749   2.092   2.607  0.8550  0.4099 -0.2871
 8616TIP3    H250044   2.644   2.025   2.521 -0.3048  1.6910  0.0960
 8617TIP3   OH250045   0.379   1.882   2.771  0.1457  0.2205  0.4722
 8617TIP3    H150046   0.466   1.842   2.765 -0.5777 -1.3770 -0.0924
 8617TIP3    H250047   0.319   1.807   2.779 -1.1461  1.2991  1.3108
 8618TIP3   OH250048   3.094   1.276   3.254 -0.1414 -0.2763  0.5581
 8618TIP3    H150049   3.077   1.184   3.273  0.1807 -0.5375 -0.3558
 8618TIP3    H250050   3.113   1.278   3.160  0.2313  0.6632  0.6405
 8619TIP3   OH250051   6.220   6.072   0.562  0.1687  0.3348  0.5318
 8619TIP3    H150052   6.198   5.991   0.608  0.0154  0.9215  1.5180
 8619TIP3    H250053   6.140   6.124   0.564  0.0114  0.1865 -0.8425
 8620TIP3   OH250054   4.362   7.550   3.362 -0.1078  0.2799 -0.2181
 8620TIP3    H150055   4.419   7.494   3.309 -0.2278  0.3737 -0.4473
 8620TIP3    H250056   4.286   7.568   3.306  0.1786  1.1217 -0.3572
 8621TIP3   OH250057   0.482   4.844   3.417 -0.7079 -0.1934 -0.7663
 8621TIP3    H150058   0.526   4.759   3.409 -0.6518 -0.3778  1.0846
 8621TIP3    H250059   0.492   4.884   3.331  2.4755 -0.5015 -0.6476
 8622TIP3   OH250060   5.007   0.170   2.744 -0.1182 -0.0527 -0.2956
 8622TIP3    H150061   5.029   0.100   2.682 -1.6757 -0.5017 -0.3959
 8622TIP3    H250062   4.979   0.123   2.823 -2.6827  0.3387 -0.8824
 8623TIP3   OH250063   3.273   4.296   1.568 -0.3237 -0.2095 -0.4084
 8623TIP3    H150064   3.270   4.262   1.479 -0.7826 -1.0248 -0.0954
 8623TIP3    H250065   3.249   4.388   1.561  0.4090 -0.0674 -1.2148
 8624TIP3   OH250066   5.455   2.682   2.313 -0.1323 -0.2193  0.0700
 8624TIP3    H150067   5.424   2.637   2.392 -0.5524 -0.9344 -0.4874
 8624TIP3    H250068   5.535   2.726   2.341 -0.1603 -0.6317  0.8435
 8625TIP3   OH250069   0.859   1.889   1.070  0.1521 -0.3534  0.4779
 8625TIP3    H150070   0.790   1.826   1.054 -1.4347  1.4115  0.0550
 8625TIP3    H250071   0.814   1.973   1.078  2.2865  0.9660 -0.4300
 8626TIP3   OH250072   4.388   3.789   1.054  0.0487  0.3513 -0.1025
 8626TIP3    H150073   4.362   3.881   1.055  1.6377  0.8308  1.0050
 8626TIP3    H250074   4.406   3.769   1.146  0.6629 -0.7892 -0.4636
 8627TIP3   OH250075   4.695   7.452   2.297  0.4165  0.3343 -0.1729
 8627TIP3    H150076   4.645   7.371   2.298 -0.0152  0.5953 -0.3048
 8627TIP3    H250077   4.693   7.480   2.205  1.1188  0.1566 -0.2486
 8628TIP3   OH250078   0.449   1.294   0.924  0.2564 -0.3210 -0.1194
 8628TIP3    H150079   0.375   1.266   0.871  1.4313 -0.2672 -1.8933
 8628TIP3    H250080   0.524   1.245   0.888  1.2934  0.5500  0.7676
 8629TIP3   OH250081   6.353   4.888   1.089 -0.1988  0.2699 -0.0989
 8629TIP3    H150082   6.385   4.821   1.028  2.7490 -0.3010  1.8579
 8629TIP3    H250083   6.378   4.971   1.049 -0.5869  0.0480 -0.8201
 8630TIP3   OH250084   2.297   4.818   1.443 -0.1719  0.2127  0.0344
 8630TIP3    H150085   2.322   4.733   1.407 -1.2138 -0.5210  0.9538
 8630TIP3    H250086   2.231   4.852   1.382  0.4800  0.5320 -0.5081
 8631TIP3   OH250087   0.949   4.397   2.963 -0.6961 -0.4737  0.1441
 8631TIP3    H150088   0.855   4.384   2.954 -0.7512  0.3691 -0.6057
 8631TIP3    H250089   0.958   4.486   2.999 -0.2400 -1.2721  2.1966
 8632TIP3   OH250090   3.802   6.605   2.608 -0.2695  0.0907  0.8711
 8632TIP3    H150091   3.873   6.564   2.656 -1.0903 -0.8363  1.3324
 8632TIP3    H250092   3.754   6.655   2.674 -0.6177 -0.0940  0.7606
 8633TIP3   OH250093   5.892   6.363   1.492 -0.1955  0.2003 -0.1880
 8633TIP3    H150094   5.871   6.446   1.449 -1.4333  0.8584  1.5471
 8633TIP3    H250095   5.854   6.372   1.580  0.5976 -1.7880  0.4068
 8634TIP3   OH250096   4.287   5.466   2.650 -0.0277  0.4496  0.8537
 8634TIP3    H150097   4.213   5.520   2.621  0.4707  0.6901 -0.0072
 8634TIP3    H250098   4.284   5.471   2.745 -0.8706  0.8014  0.8173
 8635TIP3   OH250099   0.263   0.402   1.595 -0.0050 -0.7203  0.4627
 8635TIP3    H150100   0.351   0.393   1.558  0.1255  0.3766  0.4807
 8635TIP3    H250101   0.212   0.335   1.551  1.1485 -2.3552  1.4721
 8636TIP3   OH250102   0.161   6.186   1.085 -0.1209 -1.1744  0.3237
 8636TIP3    H150103   0.222   6.132   1.036 -0.9340 -1.5350 -0.3163
 8636TIP3    H250104   0.118   6.125   1.146 -0.8358 -1.2055 -0.2015
 8637TIP3   OH250105   7.423   6.576   2.125  0.0321  0.5882  0.1014
 8637TIP3    H150106   7.510   6.575   2.085  0.7700  1.9794  1.5338
 8637TIP3    H250107   7.411   6.488   2.160  2.1198  1.0835  2.3156
 8638TIP3   OH250108   5.756   1.257   1.436 -0.0109  0.0335  0.2304
 8638TIP3    H150109   5.778   1.167   1.459  0.7514  0.0553 -0.3587
 8638TIP3    H250110   5.715   1.293   1.515 -0.6135 -0.9135  0.3668
 8639TIP3   OH250111   2.202   4.755   0.491  0.7470  0.2992  0.6478
 8639TIP3    H150112   2.275   4.815   0.476 -0.4769  1.7845  0.3118
 8639TIP3    H250113   2.156   4.751   0.407  0.2705 -0.3574  0.9279
 8640TIP3   OH250114   4.106   5.709   0.852  0.3367 -0.1070  0.1355
 8640TIP3    H150115   4.064   5.784   0.809 -1.2839  0.1554  2.0597
 8640TIP3    H250116   4.139   5.656   0.779  0.1857  1.6955 -1.3233
 8641TIP3   OH250117   3.775   5.975   1.395  0.3158 -0.4598  0.1681
 8641TIP3    H150118   3.814   5.897   1.435 -0.4145 -1.2568 -0.6481
 8641TIP3    H250119   3.681   5.956   1.392  0.3486 -0.5149 -2.0709
 8642TIP3   OH250120   3.508   2.218   2.638  0.2028  0.8268  0.0050
 8642TIP3    H150121   3.499   2.143   2.696  0.1398  0.9472  0.1531
 8642TIP3    H250122   3.453   2.197   2.562  0.2091  0.7110  0.0326
 8643TIP3   OH250123   5.970   2.468   1.988  0.6489 -0.0467  0.3250
 8643TIP3    H150124   6.026   2.436   1.917  0.1009 -2.1040  0.7526
 8643TIP3    H250125   5.904   2.399   2.000 -0.5468  1.2224  1.4235
 8644TIP3   OH250126   2.463   4.614   1.937  0.0977  0.6370  0.4961
 8644TIP3    H150127   2.548   4.637   1.899 -0.2652  0.7524 -0.2568
 8644TIP3    H250128   2.413   4.696   1.935 -0.3520  0.3560  0.0694
 8645TIP3   OH250129   3.922   0.998   2.379  0.1718 -0.4038  0.7933
 8645TIP3    H150130   3.855   0.937   2.410 -0.7969  0.0504 -0.3219
 8645TIP3    H250131   4.005   0.953   2.396 -0.3212 -0.5568  3.1327
 8646TIP3   OH250132   3.283   3.028   0.945 -0.5070  0.7099  0.1798
 8646TIP3    H150133   3.370   3.039   0.906 -0.0469  1.9822  1.4934
 8646TIP3    H250134   3.232   3.101   0.910 -0.2470  1.5405  1.4854
 8647TIP3   OH250135   3.493   4.914   2.969  0.1426 -0.4525  0.1706
 8647TIP3    H150136   3.556   4.895   2.900  0.2625 -1.2525  0.4970
 8647TIP3    H250137   3.547   4.939   3.044 -0.0121  2.1953 -0.5007
 8648TIP3   OH250138   6.159   3.442   2.229  0.1174 -0.1282  0.3866
 8648TIP3    H150139   6.095   3.458   2.160  0.5219 -2.1929 -0.5207
 8648TIP3    H250140   6.227   3.508   2.215 -0.8657  0.8792  0.2160
 8649TIP3   OH250141   7.051   2.054   1.277 -0.1300  0.4198 -0.5029
 8649TIP3    H150142   7.125   2.024   1.224  0.3716  1.2386 -0.2956
 8649TIP3    H250143   7.082   2.048   1.368 -0.4835  0.3401 -0.3850
 8650TIP3   OH250144   7.546   5.584   1.741  0.1168  0.6628  0.4112
 8650TIP3    H150145   7.638   5.560   1.730 -0.4562 -2.0607  0.7586
 8650TIP3    H250146   7.508   5.570   1.654 -0.2227  0.4823  0.5877
 8651TIP3   OH250147   4.607   2.409   1.019  0.4272 -0.8881  0.6406
 8651TIP3    H150148   4.571   2.351   0.952 -1.7692 -0.0444  0.9955
 8651TIP3    H250149   4.668   2.465   0.972 -1.0040 -0.3669 -0.6799
 8652TIP3   OH250150   1.029   0.770   1.026  0.3334  0.3874 -0.7364
 8652TIP3    H150151   0.996   0.839   1.085 -2.4981 -1.4296  0.0327
 8652TIP3    H250152   1.018   0.806   0.938  1.1138  1.7578 -0.3010
 8653TIP3   OH250153   0.320   3.199   2.019  0.4786  0.2979  0.3162
 8653TIP3    H150154   0.386   3.268   2.011  1.2796 -0.4848  0.0326
 8653TIP3    H250155   0.365   3.126   2.061  0.4135 -1.0199 -1.7751
 8654TIP3   OH250156   0.588   0.373   0.500 -0.2768  0.3249  0.0545
 8654TIP3    H150157   0.661   0.429   0.474 -0.3095  0.7666  0.8714
 8654TIP3    H250158   0.604   0.290   0.455 -0.8663  1.3339 -2.1406
 8655TIP3   OH250159   4.321   6.701   1.337  0.6645  0.0751 -0.2155
 8655TIP3    H150160   4.391   6.729   1.278  1.1601 -0.5556  0.0556
 8655TIP3    H250161   4.299   6.779   1.388  0.4792  0.5325 -0.9729
 8656TIP3   OH250162   7.424   2.259   2.677 -0.1276 -0.5011 -0.5280
 8656TIP3    H150163   7.403   2.174   2.715  0.6342 -0.3275  0.3126
 8656TIP3    H250164   7.514   2.277   2.705 -1.0065  1.5901  1.2596
 8657TIP3   OH250165   5.368   3.715   0.725  0.4576 -0.0736 -0.2912
 8657TIP3    H150166   5.323   3.687   0.645  0.0861  1.8987 -0.8490
 8657TIP3    H250167   5.338   3.655   0.792 -2.2760  0.5037 -0.8542
 8658TIP3   OH250168   4.558   6.626   1.756 -0.1544 -0.3760 -0.3744
 8658TIP3    H150169   4.609   6.669   1.824  0.0811 -1.1793 -0.0360
 8658TIP3    H250170   4.558   6.533   1.780 -2.9367 -0.2654  0.4148
 8659TIP3   OH250171   0.718   4.000   0.458  0.6491 -0.1267  0.0763
 8659TIP3    H150172   0.774   3.923   0.451  1.8872  0.4411  2.3941
 8659TIP3    H250173   0.692   4.002   0.550 -1.0978  1.0779 -0.3981
 8660TIP3   OH250174   2.887   6.684   1.113 -0.1204  0.2104  0.4962
 8660TIP3    H150175   2.802   6.716   1.142 -0.7724 -0.7819 -0.2930
 8660TIP3    H250176   2.915   6.624   1.183 -0.6142 -0.3669  0.2062
 8661TIP3   OH250177   0.584   0.838   0.972 -0.1468 -0.5625  0.0412
 8661TIP3    H150178   0.510   0.859   1.030 -0.2050 -0.0233 -0.2302
 8661TIP3    H250179   0.559   0.754   0.932 -0.5112 -0.4959  0.1213
 8662TIP3   OH250180   2.765   0.061   2.881  0.0925  0.2580 -0.5312
 8662TIP3    H150181   2.728   0.005   2.950 -0.6942 -2.4603 -2.9355
 8662TIP3    H250182   2.859   0.042   2.883  0.2463  1.0335  0.4345
 8663TIP3   OH250183   0.867   0.946   2.542  0.0402  0.2710 -0.3731
 8663TIP3    H150184   0.857   0.993   2.625 -3.0432  0.0963 -0.5047
 8663TIP3    H250185   0.839   1.009   2.476 -0.6800 -0.5986 -0.9119
 8664TIP3   OH250186   5.658   2.926   2.725 -0.3434 -0.5658  0.4710
 8664TIP3    H150187   5.739   2.975   2.711  0.6991 -2.5439 -0.8343
 8664TIP3    H250188   5.594   2.968   2.668  1.0452 -1.7983 -2.1958
 8665TIP3   OH250189   7.311   2.995   1.062 -0.2194 -0.5149 -0.8672
 8665TIP3    H150190   7.314   3.070   1.122 -0.9253 -0.8645 -0.3772
 8665TIP3    H250191   7.387   3.007   1.005  0.5097 -0.2063  0.1389
 8666TIP3   OH250192   1.156   4.138   3.110  0.0982 -0.0952  0.3970
 8666TIP3    H150193   1.226   4.114   3.049 -0.1841  1.8480 -0.7829
 8666TIP3    H250194   1.144   4.232   3.097 -2.8191 -0.3692  0.4752
 8667TIP3   OH250195   3.020   2.877   2.473 -0.1176  0.6164 -0.0748
 8667TIP3    H150196   3.046   2.869   2.381 -0.0448  0.3807 -0.0363
 8667TIP3    H250197   2.953   2.945   2.474  1.3958  2.1692  0.0016
 8668TIP3   OH250198   2.047   1.213   2.734 -0.7044 -0.0755  0.3240
 8668TIP3    H150199   2.128   1.249   2.769 -0.0868 -0.2854 -0.8517
 8668TIP3    H250200   2.024   1.143   2.795 -1.4362  1.6303  2.1411
 8669TIP3   OH250201   0.215   5.983   1.668 -0.6168  0.0307  0.1680
 8669TIP3    H150202   0.174   5.901   1.641 -1.9668  0.2451  1.4455
 8669TIP3    H250203   0.148   6.028   1.719  0.9125  0.8164  1.5957
 8670TIP3   OH250204   7.178   3.896   1.891  0.2115  0.5321  0.0438
 8670TIP3    H150205   7.247   3.898   1.956  1.5420 -0.2060 -1.2785
 8670TIP3    H250206   7.112   3.837   1.928  1.1291 -0.2101  0.5590
 8671TIP3   OH250207   2.735   3.292   1.420 -0.1400 -0.6961  0.1293
 8671TIP3    H150208   2.821   3.260   1.393  0.1490 -0.1858  0.4406
 8671TIP3    H250209   2.748   3.324   1.509 -1.0302 -2.1269  0.8100
 8672TIP3   OH250210   0.669   3.877   3.756 -0.7394  0.1817  0.4964
 8672TIP3    H150211   0.705   3.789   3.743 -0.3923  0.0527  2.1025
 8672TIP3    H250212   0.575   3.865   3.758 -0.6730 -0.3236  1.5892
 8673TIP3   OH250213   0.773   6.564   2.223  0.3323  0.0360 -0.5771
 8673TIP3    H150214   0.815   6.488   2.262 -0.5938 -0.7848 -1.1541
 8673TIP3    H250215   0.799   6.637   2.280  0.3311 -0.8720  0.6216
 8674TIP3   OH250216   6.351   0.253   0.693  0.3324  0.5281  0.6208
 8674TIP3    H150217   6.258   0.258   0.715  0.1961  0.8171  0.0124
 8674TIP3    H250218   6.387   0.338   0.720  0.7522 -0.1394  2.2666
 8675TIP3   OH250219   7.152   6.575   1.993 -0.3130 -0.5864  0.2302
 8675TIP3    H150220   7.245   6.577   2.016 -0.0517  1.6425 -0.7167
 8675TIP3    H250221   7.151   6.568   1.897 -1.0906 -0.2872  0.2089
 8676TIP3   OH250222   5.047   6.227   0.740  0.6100  0.2035 -0.1052
 8676TIP3    H150223   5.041   6.140   0.701 -0.5658  0.8642 -1.4654
 8676TIP3    H250224   4.966   6.238   0.789  1.6449 -0.2272  1.8152
 8677TIP3   OH250225   4.648   2.065   2.076 -0.0717 -0.3894 -0.0059
 8677TIP3    H150226   4.610   2.014   2.004 -1.4652 -0.1244  0.4986
 8677TIP3    H250227   4.633   2.156   2.050 -0.8691 -0.2955  0.7420
 8678TIP3   OH250228   5.166   7.400   2.453 -0.2606 -0.7082 -0.6854
 8678TIP3    H150229   5.086   7.413   2.504  1.1203 -1.0343  1.7045
 8678TIP3    H250230   5.135   7.387   2.364 -2.8430 -0.5045  0.0909
 8679TIP3   OH250231   0.902   6.580   1.977 -0.3054  0.3236 -0.3101
 8679TIP3    H150232   0.973   6.645   1.973  1.3593 -1.3442  0.6956
 8679TIP3    H250233   0.853   6.603   2.056  0.3346  0.3060  0.0985
 8680TIP3   OH250234   1.100   6.808   1.079  0.4314  0.7006  0.5894
 8680TIP3    H150235   1.109   6.736   1.017  1.9041  2.2219 -1.0944
 8680TIP3    H250236   1.015   6.847   1.059  0.3465  0.4119  0.3840
 8681TIP3   OH250237   7.315   4.168   2.130 -0.0664  0.5361 -0.3401
 8681TIP3    H150238   7.243   4.110   2.155  0.6516 -1.0517 -1.7830
 8681TIP3    H250239   7.271   4.249   2.103 -1.3501 -0.4064 -1.2361
 8682TIP3   OH250240   7.033   4.909   1.086 -0.0224  0.0473 -0.3112
 8682TIP3    H150241   7.025   4.844   1.017  1.5163 -0.1134 -0.3830
 8682TIP3    H250242   7.115   4.886   1.131 -0.0820  1.2030  0.4381
 8683TIP3   OH250243   4.627   6.705   1.489 -0.4661 -0.1062  0.2041
 8683TIP3    H150244   4.589   6.686   1.575  0.1542  1.7319  0.9381
 8683TIP3    H250245   4.624   6.801   1.483  0.1035 -0.1772 -1.5462
 8684TIP3   OH250246   1.937   5.079   2.441 -0.1602  0.4545 -0.4059
 8684TIP3    H150247   1.943   5.131   2.361  0.3432  2.6453  0.9919
 8684TIP3    H250248   1.916   5.142   2.510 -0.0163 -1.2756  1.3114
 8685TIP3   OH250249   6.391   0.469   1.320  0.3068 -0.2341 -0.8978
 8685TIP3    H150250   6.376   0.558   1.289 -0.2742 -0.1322 -0.3270
 8685TIP3    H250251   6.458   0.479   1.389  0.1634 -0.2265 -0.7595
 8686TIP3   OH250252   2.577   1.401   2.609  0.1659 -0.5256  0.2571
 8686TIP3    H150253   2.672   1.392   2.607  0.3930  1.0569  1.7010
 8686TIP3    H250254   2.551   1.364   2.693 -0.3692  0.0098  0.3350
 8687TIP3   OH250255   0.978   1.035   1.146  0.1216  0.4376 -0.2602
 8687TIP3    H150256   1.000   1.093   1.219 -1.4601  1.2341 -0.3652
 8687TIP3    H250257   0.919   1.087   1.091 -0.8181 -1.0246 -0.7131
 8688TIP3   OH250258   1.674   0.478   0.370 -0.0565  0.0492  0.2810
 8688TIP3    H150259   1.692   0.408   0.431  3.6611 -0.0921 -0.7767
 8688TIP3    H250260   1.667   0.435   0.285  0.1959  0.7393 -0.1012
 8689TIP3   OH250261   0.372   0.690   2.040  0.1012  0.1644 -0.5186
 8689TIP3    H150262   0.325   0.630   1.982 -1.3529  1.4578 -0.7613
 8689TIP3    H250263   0.417   0.750   1.980  0.7974 -0.1190 -0.2842
 8690TIP3   OH250264   2.320   2.827   1.331  0.5717  0.2013 -0.3526
 8690TIP3    H150265   2.304   2.783   1.414  1.6694 -0.2221 -0.3553
 8690TIP3    H250266   2.381   2.898   1.353  0.4126  0.4479 -0.6947
 8691TIP3   OH250267   5.337   5.268   1.194  0.0170 -0.1795  0.4843
 8691TIP3    H150268   5.286   5.324   1.253  0.2903  1.8076 -1.0566
 8691TIP3    H250269   5.278   5.195   1.174 -1.6017  1.1857  0.0821
 8692TIP3   OH250270   6.681   4.725   2.267  0.2141 -0.5932  0.5651
 8692TIP3    H150271   6.625   4.746   2.342 -2.8670 -2.6522 -0.9286
 8692TIP3    H250272   6.702   4.632   2.279  1.8445 -0.3014  0.1348
 8693TIP3   OH250273   5.094   7.329   2.203  0.0642  0.0551 -0.2807
 8693TIP3    H150274   5.155   7.260   2.227 -1.2275 -0.4172  1.8534
 8693TIP3    H250275   5.067   7.307   2.114  2.1471 -0.2951 -0.8944
 8694TIP3   OH250276   2.204   5.778   1.267 -0.4093  0.0605  0.6968
 8694TIP3    H150277   2.148   5.851   1.293 -1.6510  0.2312 -2.0625
 8694TIP3    H250278   2.144   5.704   1.254  0.5097 -0.7875  1.1026
 8695TIP3   OH250279   0.330   4.707   2.158 -0.2426 -0.0318 -0.5153
 8695TIP3    H150280   0.404   4.653   2.186 -0.4464 -0.1323 -0.1687
 8695TIP3    H250281   0.263   4.693   2.225 -1.3876 -1.6080 -1.9083
 8696TIP3   OH250282   5.788   0.509   1.462  0.7745  0.0172  0.0886
 8696TIP3    H150283   5.820   0.420   1.477 -0.6076 -0.4676  0.3370
 8696TIP3    H250284   5.740   0.503   1.379  0.2170  0.3954  0.3780
 8697TIP3   OH250285   5.851   5.563   1.161 -0.1625  0.6751  0.3170
 8697TIP3    H150286   5.800   5.482   1.149  0.3846  0.4885 -0.8356
 8697TIP3    H250287   5.829   5.618   1.086 -0.3903  1.5329  1.0002
 8698TIP3   OH250288   7.482   1.109   0.939 -0.1477 -0.3751 -0.0630
 8698TIP3    H150289   7.401   1.097   0.988  0.0001  0.6793  0.4680
 8698TIP3    H250290   7.542   1.044   0.977 -0.2852 -0.1229  0.6115
 8699TIP3   OH250291   0.928   1.835   1.954 -0.6780 -0.1397  0.2436
 8699TIP3    H150292   0.843   1.870   1.929 -0.5938 -0.1986 -0.1190
 8699TIP3    H250293   0.990   1.903   1.931 -0.4647 -0.6923 -0.8666
 8700TIP3   OH250294   0.582   3.753   1.692 -0.3998  0.4423 -0.3309
 8700TIP3    H150295   0.526   3.773   1.767 -0.6698 -1.1293 -0.0974
 8700TIP3    H250296   0.579   3.658   1.684  0.9680  0.4549 -1.3004
 8701TIP3   OH250297   0.472   3.167   2.855  0.9361 -0.4622  0.4809
 8701TIP3    H150298   0.504   3.127   2.936 -0.6891  0.6424  1.7592
 8701TIP3    H250299   0.447   3.256   2.881  0.2378 -0.1230 -1.2100
 8702TIP3   OH250300   6.744   1.786   2.840 -0.0668 -0.2130  0.2704
 8702TIP3    H150301   6.770   1.736   2.762  3.0346 -0.9624  1.6251
 8702TIP3    H250302   6.672   1.737   2.878  0.9966 -2.0942 -0.0301
 8703TIP3   OH250303   3.382   1.390   2.433 -0.3186  0.0412  0.4201
 8703TIP3    H150304   3.391   1.341   2.515 -0.5111 -2.5608 -0.9865
 8703TIP3    H250305   3.469   1.423   2.415 -0.0466 -0.2545  1.1399
 8704TIP3   OH250306   5.766   1.461   2.984  0.2822  0.0297  0.2023
 8704TIP3    H150307   5.713   1.541   2.981  0.5251  0.1963  0.2989
 8704TIP3    H250308   5.752   1.419   2.899  1.8086  1.2467 -0.6922
 8705TIP3   OH250309   6.773   3.692   3.053  0.2294  0.4028  0.2541
 8705TIP3    H150310   6.844   3.750   3.079  0.0977  0.3313  0.7973
 8705TIP3    H250311   6.694   3.734   3.087 -0.1849  1.2454 -1.6115
 8706TIP3   OH250312   3.557   5.640   3.214  0.0864 -0.2357 -0.1343
 8706TIP3    H150313   3.640   5.610   3.179  0.5270 -0.1849  0.8295
 8706TIP3    H250314   3.556   5.734   3.198  0.0680 -0.2860 -0.4321
 8707TIP3   OH250315   1.546   5.598   1.377  0.0837  0.3863 -0.0410
 8707TIP3    H150316   1.477   5.581   1.313  0.6869  0.3785 -0.7008
 8707TIP3    H250317   1.556   5.515   1.424 -0.1572  0.3002 -0.1380
 8708TIP3   OH250318   4.935   4.872   0.378 -0.0108 -0.2123 -0.2708
 8708TIP3    H150319   4.945   4.779   0.354 -0.3717 -0.8247  1.7449
 8708TIP3    H250320   5.010   4.890   0.434  0.4301  0.9539 -1.1940
 8709TIP3   OH250321   4.252   7.316   1.019  0.3073 -0.0206 -0.4291
 8709TIP3    H150322   4.205   7.381   1.071  0.2891  1.0101 -1.6676
 8709TIP3    H250323   4.205   7.234   1.033 -1.0714  0.7205 -0.6341
 8710TIP3   OH250324   0.861   6.309   1.347 -0.2021 -0.1739 -0.2091
 8710TIP3    H150325   0.805   6.315   1.425 -0.2468  0.8690 -0.3023
 8710TIP3    H250326   0.907   6.393   1.345 -0.8727  0.1905 -1.7893
 8711TIP3   OH250327   5.708   0.986   2.588  0.3398  0.3343  0.3260
 8711TIP3    H150328   5.618   0.967   2.560  0.8938 -1.7398 -0.2578
 8711TIP3    H250329   5.745   1.035   2.514  0.5909 -1.5870 -0.8826
 8712TIP3   OH250330   2.224   6.481   1.458  0.7075  0.3701  0.2150
 8712TIP3    H150331   2.272   6.547   1.508 -0.1594  1.1014  0.1060
 8712TIP3    H250332   2.142   6.524   1.434  0.6353 -0.3395 -0.8896
 8713TIP3   OH250333   2.075   3.402   1.983  0.1168  0.4849  0.3917
 8713TIP3    H150334   2.091   3.485   1.940  0.5791  0.5607  0.7035
 8713TIP3    H250335   1.999   3.419   2.039 -1.0521  0.1389 -1.0419
 8714TIP3   OH250336   4.181   2.295   0.882 -0.0212 -0.5375  0.5109
 8714TIP3    H150337   4.253   2.324   0.826  0.6701 -1.1245  1.0759
 8714TIP3    H250338   4.154   2.374   0.929  0.6133 -0.4185  0.6810
 8715TIP3   OH250339   6.874   1.967   2.577 -0.1991  0.0593  0.0296
 8715TIP3    H150340   6.919   2.019   2.644  0.6422 -1.8198  1.0161
 8715TIP3    H250341   6.941   1.949   2.511 -0.1648 -0.6194  0.2343
 8716TIP3   OH250342   4.040   2.288   2.913 -0.0646  0.4668  0.2953
 8716TIP3    H150343   4.103   2.239   2.965  0.5325  0.8692 -0.0440
 8716TIP3    H250344   3.958   2.239   2.923  0.0080  0.5945  1.6862
 8717TIP3   OH250345   4.655   4.837   2.311 -0.2359  0.1496  0.2225
 8717TIP3    H150346   4.630   4.922   2.276  0.6233 -0.2415 -1.4600
 8717TIP3    H250347   4.607   4.774   2.258  1.1646 -0.4681 -0.3703
 8718TIP3   OH250348   1.451   2.136   1.230  0.5142  0.0844 -0.7933
 8718TIP3    H150349   1.522   2.138   1.294 -0.3467 -0.1717  0.1853
 8718TIP3    H250350   1.410   2.050   1.242  0.8506 -0.3140 -2.2676
 8719TIP3   OH250351   4.767   6.143   0.795  0.6328  0.4979  0.1020
 8719TIP3    H150352   4.778   6.228   0.838  1.2354  0.6448 -0.3232
 8719TIP3    H250353   4.673   6.130   0.790  0.5094  1.6836 -0.8898
 8720TIP3   OH250354   0.620   2.734   1.528 -0.3007  0.2741  0.3192
 8720TIP3    H150355   0.587   2.775   1.608  0.3917  1.1475  0.1843
 8720TIP3    H250356   0.599   2.798   1.459  0.2426  0.1183  0.0059
 8721TIP3   OH250357   3.727   4.148   3.155 -0.6527  0.5321  0.2355
 8721TIP3    H150358   3.668   4.072   3.160  0.0966 -0.0720 -0.0012
 8721TIP3    H250359   3.814   4.111   3.163 -0.2543  1.3279 -0.3373
 8722TIP3   OH250360   6.586   6.060   3.142  0.1338  0.1386  0.4451
 8722TIP3    H150361   6.654   6.005   3.180 -0.7568 -0.4508  1.2026
 8722TIP3    H250362   6.596   6.047   3.047  1.0387  0.0293  0.5448
 8723TIP3   OH250363   6.453   3.381   3.016 -0.1431  0.1316  0.3335
 8723TIP3    H150364   6.385   3.443   3.045 -0.5823 -0.4294  0.5306
 8723TIP3    H250365   6.432   3.300   3.063  0.3696 -0.1924  0.0074
 8724TIP3   OH250366   4.190   3.101   2.771  0.2243  0.2537 -0.1697
 8724TIP3    H150367   4.169   3.161   2.843 -0.1179 -0.1534  0.0727
 8724TIP3    H250368   4.132   3.127   2.700  0.9260  1.0012 -0.4939
 8725TIP3   OH250369   1.114   4.828   1.989  0.0697 -0.5281 -0.2628
 8725TIP3    H150370   1.122   4.733   2.002 -0.2847 -0.7157 -1.3270
 8725TIP3    H250371   1.021   4.846   2.002 -0.0052 -0.4616 -0.8867
 8726TIP3   OH250372   0.534   7.049   1.661 -0.0946 -0.7109  0.3637
 8726TIP3    H150373   0.448   7.024   1.630 -0.6249  1.0446  0.3423
 8726TIP3    H250374   0.523   7.061   1.756  0.6394 -2.4671  0.7069
 8727TIP3   OH250375   5.639   7.191   1.558  0.3132  0.6564  0.5390
 8727TIP3    H150376   5.662   7.282   1.575  1.9727  0.5189 -0.7498
 8727TIP3    H250377   5.669   7.175   1.468 -0.5962 -0.9615  0.4874
 8728TIP3   OH250378   0.142   6.887   1.944  0.3682 -0.4101  0.0314
 8728TIP3    H150379   0.235   6.900   1.926  0.4755 -2.0195 -0.7875
 8728TIP3    H250380   0.140   6.843   2.029  0.2733  0.4638  0.4997
 8729TIP3   OH250381   4.427   2.423   0.774  0.0018 -0.4802  0.4626
 8729TIP3    H150382   4.501   2.485   0.770 -0.4192 -0.0123 -0.2915
 8729TIP3    H250383   4.389   2.426   0.686 -0.1400 -1.6860  0.4772
 8730TIP3   OH250384   6.981   4.042   0.980  0.9063 -0.5299 -0.5917
 8730TIP3    H150385   6.969   4.108   1.048  2.5375  0.8446 -1.5800
 8730TIP3    H250386   7.074   4.019   0.985  0.6376 -1.8242 -1.1133
 8731TIP3   OH250387   0.189   7.292   2.338 -0.1902  0.6329  0.4242
 8731TIP3    H150388   0.245   7.364   2.367  0.2540  0.3466  0.2922
 8731TIP3    H250389   0.206   7.221   2.400  3.2329 -1.1501 -2.2178
 8732TIP3   OH250390   6.345   2.930   2.371 -0.0729  0.6071  0.4204
 8732TIP3    H150391   6.294   2.904   2.448  0.9068 -1.7392  0.3745
 8732TIP3    H250392   6.399   2.853   2.351  0.3571  1.4540 -2.0758
 8733TIP3   OH250393   1.277   6.960   0.656  0.5715 -0.6023 -0.2694
 8733TIP3    H150394   1.183   6.951   0.671  0.5285  0.7146  0.3622
 8733TIP3    H250395   1.296   6.896   0.587 -0.8891 -0.4644 -0.8371
 8734TIP3   OH250396   6.265   2.987   1.277  0.0920 -0.4806  0.4052
 8734TIP3    H150397   6.279   2.896   1.251 -2.3289 -0.5246 -1.0048
 8734TIP3    H250398   6.262   3.035   1.194 -0.8405  0.5225  1.0022
 8735TIP3   OH250399   1.325   1.292   1.031 -0.2144  0.1341 -0.4769
 8735TIP3    H150400   1.356   1.330   1.114  1.4341 -0.7664 -0.6486
 8735TIP3    H250401   1.288   1.366   0.984  1.2356  1.2046 -0.0211
 8736TIP3   OH250402   4.891   0.627   2.119  0.6353 -0.0922  0.1754
 8736TIP3    H150403   4.798   0.632   2.143  0.9800  0.9320  1.4011
 8736TIP3    H250404   4.891   0.585   2.034 -0.9568 -0.2106  0.1987
 8737TIP3   OH250405   2.222   3.359   3.540  0.4533 -0.0730 -0.3266
 8737TIP3    H150406   2.308   3.319   3.527  0.6231  0.6076 -1.4863
 8737TIP3    H250407   2.238   3.433   3.599  0.5090 -0.4483  0.1318
 8738TIP3   OH250408   6.940   2.119   1.766 -0.0721 -0.3415 -0.2099
 8738TIP3    H150409   6.858   2.083   1.732 -0.2393  0.4602 -0.6721
 8738TIP3    H250410   7.008   2.064   1.726 -0.2727  0.4380 -1.7010
 8739TIP3   OH250411   7.087   3.914   3.556 -0.3801  0.0742 -0.2540
 8739TIP3    H150412   7.060   3.869   3.636  0.5269 -0.4908 -0.2475
 8739TIP3    H250413   7.046   4.000   3.561 -0.2744  0.0698  0.8530
 8740TIP3   OH250414   6.856   6.426   0.398 -0.3154 -0.4193  0.2706
 8740TIP3    H150415   6.905   6.362   0.346 -0.9594 -0.6269 -0.0885
 8740TIP3    H250416   6.912   6.444   0.473  0.4187 -0.4724 -0.2580
 8741TIP3   OH250417   1.378   5.856   2.659 -0.2643 -0.0574 -0.3218
 8741TIP3    H150418   1.392   5.951   2.651  0.0700  0.1002  1.7784
 8741TIP3    H250419   1.290   5.849   2.696  0.4261 -0.4653  1.3200
 8742TIP3   OH250420   2.434   6.596   0.771  0.3527 -0.3280  0.5276
 8742TIP3    H150421   2.362   6.544   0.735 -0.2515  0.7336  0.1439
 8742TIP3    H250422   2.447   6.666   0.707 -1.3014  2.1353  2.6902
 8743TIP3   OH250423   4.157   1.441   2.210 -0.2186 -0.0817  0.1435
 8743TIP3    H150424   4.117   1.366   2.165  1.0278 -1.8171  1.7628
 8743TIP3    H250425   4.103   1.516   2.184 -1.1677 -1.4095 -2.0247
 8744TIP3   OH250426   2.796   3.373   0.603  0.4425  0.4271 -0.1248
 8744TIP3    H150427   2.885   3.342   0.582 -0.0892  0.1373 -2.1933
 8744TIP3    H250428   2.743   3.293   0.606  0.1226  0.6575  0.3609
 8745TIP3   OH250429   4.119   6.149   1.889  0.4042 -0.3960 -0.1967
 8745TIP3    H150430   4.067   6.188   1.819 -2.9300 -1.5176  1.4384
 8745TIP3    H250431   4.083   6.187   1.969  4.0853  0.8393  1.0478
 8746TIP3   OH250432   6.034   6.915   2.106 -0.4407 -0.1278  0.4317
 8746TIP3    H150433   6.030   6.922   2.201  0.9956 -0.3009  0.5263
 8746TIP3    H250434   6.067   6.827   2.090  0.2060  0.2234 -0.1994
 8747TIP3   OH250435   4.941   6.580   1.959 -0.2988 -0.0987 -0.3354
 8747TIP3    H150436   4.854   6.555   1.929 -0.0888  0.9568 -1.9729
 8747TIP3    H250437   5.000   6.531   1.901  0.2591 -1.4928  1.3300
 8748TIP3   OH250438   7.480   2.017   1.048  0.9623  0.0629  0.0133
 8748TIP3    H150439   7.410   1.953   1.065  0.5649  0.2373 -0.8650
 8748TIP3    H250440   7.551   1.965   1.011  1.1345 -0.0503  0.4940
 8749TIP3   OH250441   5.765   1.890   1.554 -0.1434 -0.0863  0.3512
 8749TIP3    H150442   5.823   1.896   1.630 -1.7856  0.3476  1.6418
 8749TIP3    H250443   5.822   1.864   1.482  1.8379  1.3088  1.3096
 8750TIP3   OH250444   6.440   2.010   1.186  0.3498  0.1705  0.1029
 8750TIP3    H150445   6.494   2.087   1.168 -0.4197  1.4967  2.8859
 8750TIP3    H250446   6.490   1.961   1.253  0.1111 -0.9675 -0.5222
 8751TIP3   OH250447   0.280   4.528   3.062 -0.2474  0.1673 -0.1334
 8751TIP3    H150448   0.294   4.587   2.988  0.0380  0.1163 -0.1203
 8751TIP3    H250449   0.324   4.447   3.037  0.3739  0.3486  0.3515
 8752TIP3   OH250450   5.715   2.800   2.334 -0.0820 -0.2969  0.2654
 8752TIP3    H150451   5.801   2.835   2.359 -0.2742 -0.3831  1.0755
 8752TIP3    H250452   5.728   2.767   2.245  0.6566 -0.0692  0.2801
 8753TIP3   OH250453   4.380   1.298   2.140  0.3783  0.5787 -0.2043
 8753TIP3    H150454   4.314   1.229   2.147  1.0939 -0.0364  0.6208
 8753TIP3    H250455   4.346   1.369   2.195  0.4277  0.2388  0.2723
 8754TIP3   OH250456   3.554   3.364   2.252 -0.8097 -0.2325  0.3373
 8754TIP3    H150457   3.553   3.415   2.333 -1.6124  1.0876 -0.4549
 8754TIP3    H250458   3.643   3.330   2.246 -0.8003 -0.5478  1.8708
 8755TIP3   OH250459   7.513   4.937   1.333  0.7987 -0.0697  0.1143
 8755TIP3    H150460   7.528   4.914   1.241 -0.4087  0.6250 -0.2787
 8755TIP3    H250461   7.581   5.001   1.353  1.6633 -0.9171  0.0153
 8756TIP3   OH250462   3.734   4.198   2.400  0.0347  0.2077  0.1453
 8756TIP3    H150463   3.822   4.222   2.371  0.1292 -0.6895 -0.3268
 8756TIP3    H250464   3.706   4.272   2.454  1.6698 -0.1469  1.5606
 8757TIP3   OH250465   3.882   7.147   1.636  0.7015  0.5086  0.2864
 8757TIP3    H150466   3.968   7.130   1.675  1.4999  0.3901 -1.4389
 8757TIP3    H250467   3.839   7.062   1.634  1.1720  0.2760 -0.2462
 8758TIP3   OH250468   1.890   7.442   2.285  0.4072 -0.2648  0.3820
 8758TIP3    H150469   1.944   7.487   2.350  1.9674  0.1026 -1.0825
 8758TIP3    H250470   1.882   7.353   2.318  0.5040  0.1179  1.4634
 8759TIP3   OH250471   3.216   0.992   3.020  0.6735 -0.0544  0.5518
 8759TIP3    H150472   3.287   0.947   3.065  0.4951 -0.3959  0.5014
 8759TIP3    H250473   3.150   1.008   3.088 -0.5540 -2.5151  0.0605
 8760TIP3   OH250474   1.055   7.679   1.882 -0.1437 -0.3491  0.5315
 8760TIP3    H150475   1.146   7.705   1.864 -0.8141  1.0955 -1.0235
 8760TIP3    H250476   1.057   7.583   1.877  1.3586 -0.3775  0.9713
 8761TIP3   OH250477   7.595   4.422   2.233 -0.1429 -0.0363  0.0287
 8761TIP3    H150478   7.557   4.448   2.149  0.2082  0.3670 -0.0090
 8761TIP3    H250479   7.685   4.397   2.213 -0.3671 -0.9561  0.1252
 8762TIP3   OH250480   0.567   5.465   0.507 -0.0291 -0.0349  0.3479
 8762TIP3    H150481   0.639   5.525   0.526 -0.8550  1.0659  0.0849
 8762TIP3    H250482   0.592   5.384   0.551  1.5618  0.1897 -0.0733
 8763TIP3   OH250483   6.001   7.519   0.368 -0.0193  0.4493 -0.4176
 8763TIP3    H150484   6.047   7.491   0.288 -0.8997  0.1347 -0.8209
 8763TIP3    H250485   5.912   7.538   0.339 -0.3612  0.2817  0.5091
 8764TIP3   OH250486   3.197   7.505   9.163  0.2778  0.0555  0.3630
 8764TIP3    H150487   3.275   7.552   9.135 -1.5326  3.3593  0.3506
 8764TIP3    H250488   3.227   7.451   9.237  2.6019  0.9541  0.1621
 8765TIP3   OH250489   1.075   2.859   2.325  0.0941  0.2903  0.5110
 8765TIP3    H150490   1.137   2.927   2.298 -1.3562  0.7722 -1.8818
 8765TIP3    H250491   0.991   2.905   2.335 -1.1437 -1.2012 -2.1219
 8766TIP3   OH250492   4.804   4.966   1.851  0.3631 -0.3766 -0.1089
 8766TIP3    H150493   4.785   5.017   1.772 -1.4793 -1.3771 -0.3566
 8766TIP3    H250494   4.898   4.948   1.845  1.7623  4.8742  1.1921
 8767TIP3   OH250495   6.369   4.791   3.126  0.1121 -0.2098 -0.6810
 8767TIP3    H150496   6.463   4.801   3.141  0.2897  1.5344 -2.5485
 8767TIP3    H250497   6.350   4.849   3.052 -2.6449  0.2571  0.2951
 8768TIP3   OH250498   6.723   2.750   3.167 -0.1141  0.2676 -0.2670
 8768TIP3    H150499   6.748   2.828   3.216 -1.7468  0.0144  1.0739
 8768TIP3    H250500   6.789   2.684   3.191  0.3543  0.7799 -0.1449
 8769TIP3   OH250501   0.402   0.913   0.375 -0.0700  0.5529  0.0727
 8769TIP3    H150502   0.464   0.927   0.303  0.4387 -1.4855  0.0536
 8769TIP3    H250503   0.454   0.926   0.454  0.0431  0.1730  0.0612
 8770TIP3   OH250504   2.406   4.944   1.666 -0.0860 -0.4305  0.3093
 8770TIP3    H150505   2.368   4.932   1.579  0.4809 -0.3541  0.0469
 8770TIP3    H250506   2.331   4.962   1.723 -0.4113  0.0870 -0.2663
 8771TIP3   OH250507   1.448   2.502   2.540  0.1031  0.2039  0.3089
 8771TIP3    H150508   1.475   2.557   2.613  2.7597 -1.5132  0.7706
 8771TIP3    H250509   1.357   2.526   2.524  1.0475  4.6239  0.4431
 8772TIP3   OH250510   5.046   7.208   1.933 -0.7241  0.2453 -0.3946
 8772TIP3    H150511   4.965   7.210   1.883 -1.9575 -1.5539  1.3776
 8772TIP3    H250512   5.061   7.116   1.952  1.7329  0.5252 -0.5639
 8773TIP3   OH250513   3.801   7.000   3.406  0.3865 -0.2236 -0.0411
 8773TIP3    H150514   3.742   6.963   3.340 -1.1066  2.1588 -0.1632
 8773TIP3    H250515   3.774   7.091   3.414  2.4199  0.3037  1.8163
 8774TIP3   OH250516   6.961   6.730   1.519  0.7726  0.4147  0.0009
 8774TIP3    H150517   7.005   6.757   1.438 -0.3088  1.6220 -0.2150
 8774TIP3    H250518   6.887   6.677   1.490  1.7448 -1.2076  0.3459
 8775TIP3   OH250519   3.811   4.409   1.319 -0.5724 -0.7087 -0.0248
 8775TIP3    H150520   3.799   4.496   1.282 -0.3836 -1.3761 -1.7184
 8775TIP3    H250521   3.849   4.426   1.406  1.7198  0.8523 -1.2122
 8776TIP3   OH250522   2.739   1.802   8.969  0.3385  0.2342 -0.4334
 8776TIP3    H150523   2.745   1.844   8.884  0.9076 -1.3631 -1.2257
 8776TIP3    H250524   2.669   1.849   9.015 -0.7232  0.4440 -2.1887
 8777TIP3   OH250525   4.121   0.874   0.882 -0.0242  0.1965 -0.1007
 8777TIP3    H150526   4.187   0.937   0.912  1.3742 -0.4224 -1.7171
 8777TIP3    H250527   4.066   0.925   0.822 -0.4864  0.4920  0.5628
 8778TIP3   OH250528   0.345   6.051   2.614  0.1908  0.6174  0.2915
 8778TIP3    H150529   0.381   6.036   2.701 -0.0541  0.8285  0.4314
 8778TIP3    H250530   0.258   6.012   2.617  0.3080  0.3383  0.0388
 8779TIP3   OH250531   3.554   1.820   1.742 -0.3094  0.1348 -0.2243
 8779TIP3    H150532   3.632   1.867   1.773 -1.2361  1.6552 -0.1056
 8779TIP3    H250533   3.543   1.851   1.652  0.2998 -1.5392 -0.9093
 8780TIP3   OH250534   5.786   6.380   1.178  0.0943  0.6272  0.5371
 8780TIP3    H150535   5.853   6.375   1.110 -0.6497  0.9811 -0.2297
 8780TIP3    H250536   5.792   6.469   1.212 -0.7668  1.0378 -0.3513
 8781TIP3   OH250537   0.256   3.207   2.363  0.3964  0.3038  0.4997
 8781TIP3    H150538   0.337   3.218   2.414  0.4634 -0.2565  0.5148
 8781TIP3    H250539   0.230   3.116   2.377 -0.1179  0.4154  0.3122
 8782TIP3   OH250540   7.052   4.701   0.913  0.4820 -0.1180 -0.6827
 8782TIP3    H150541   7.086   4.691   0.824 -0.1154 -1.3812 -0.7941
 8782TIP3    H250542   7.009   4.618   0.932  0.2915  0.2559  0.6657
 8783TIP3   OH250543   0.529   1.903   1.198  0.2117  0.1554 -0.2002
 8783TIP3    H150544   0.485   1.988   1.207 -1.8590 -0.8744  0.1129
 8783TIP3    H250545   0.554   1.899   1.105 -3.1867 -0.3902 -1.2468
 8784TIP3   OH250546   2.747   6.032   1.340 -0.4119  0.5510 -0.0308
 8784TIP3    H150547   2.766   6.066   1.253  0.0980 -0.3176 -0.2740
 8784TIP3    H250548   2.751   5.937   1.329 -0.9556  0.4276  0.8065
 8785TIP3   OH250549   1.710   7.326   1.707  0.0177  0.1115 -0.5772
 8785TIP3    H150550   1.743   7.345   1.795  2.4815 -1.2489 -1.1025
 8785TIP3    H250551   1.776   7.364   1.649  0.0983 -1.7452 -1.7533
 8786TIP3   OH250552   3.730   2.209   1.159  0.6614 -0.2494 -0.1161
 8786TIP3    H150553   3.699   2.127   1.196 -0.0535  0.2743  0.4684
 8786TIP3    H250554   3.781   2.183   1.082  1.2324 -1.2877  0.5938
 8787TIP3   OH250555   3.266   2.848   2.882 -0.0219  0.1319  0.2949
 8787TIP3    H150556   3.356   2.875   2.860  0.1952 -0.6991  0.1340
 8787TIP3    H250557   3.246   2.897   2.962  0.5569  0.3624  0.3093
 8788TIP3   OH250558   4.005   5.071   1.494  0.6810  0.3725  0.4144
 8788TIP3    H150559   4.057   5.007   1.447 -0.0463 -0.0756  0.2134
 8788TIP3    H250560   3.983   5.137   1.428 -2.1212 -1.3031 -0.4965
 8789TIP3   OH250561   1.006   6.331   2.005  0.3299 -0.3683 -0.0314
 8789TIP3    H150562   0.929   6.283   1.976  0.4507  0.1477 -1.2461
 8789TIP3    H250563   0.978   6.423   2.004 -0.4631 -0.3827  3.9044
 8790TIP3   OH250564   2.302   1.242   1.032 -0.2816  0.2353  0.1789
 8790TIP3    H150565   2.356   1.203   0.963 -1.9960 -1.2172 -0.4171
 8790TIP3    H250566   2.337   1.330   1.043  1.2430 -0.1516 -1.2006
 8791TIP3   OH250567   3.152   2.840   1.433 -0.7549 -0.1276 -0.2411
 8791TIP3    H150568   3.059   2.858   1.448 -1.1002 -1.2222 -0.9785
 8791TIP3    H250569   3.173   2.887   1.353 -0.1803  1.5994  0.8568
 8792TIP3   OH250570   2.541   3.802   1.612  0.1725 -0.4505  0.1898
 8792TIP3    H150571   2.489   3.859   1.555 -0.9105 -0.5110  1.0757
 8792TIP3    H250572   2.556   3.724   1.559 -0.9267 -0.5648  0.0112
 8793TIP3   OH250573   5.771   0.721   0.704  0.4472 -0.0345  0.6561
 8793TIP3    H150574   5.811   0.803   0.675 -1.7583  0.3951 -1.5391
 8793TIP3    H250575   5.791   0.658   0.635  0.6965 -0.8955  1.4916
 8794TIP3   OH250576   4.026   0.065   2.487 -0.2497  0.5972  0.4016
 8794TIP3    H150577   4.031  -0.028   2.468  0.6002  0.6514  0.3314
 8794TIP3    H250578   4.089   0.079   2.558  0.2652  1.2618 -0.1719
 8795TIP3   OH250579   5.838   5.460   1.636 -0.3727  0.1774 -0.1149
 8795TIP3    H150580   5.834   5.435   1.543 -0.0439  0.4143 -0.1967
 8795TIP3    H250581   5.872   5.549   1.635 -1.7582  0.7335  0.1597
 8796TIP3   OH250582   5.675   2.774   2.026  0.1886 -0.1881 -0.0966
 8796TIP3    H150583   5.705   2.840   1.963 -0.8680  1.3382  0.9495
 8796TIP3    H250584   5.756   2.732   2.056  1.1217  1.9639  0.6295
 8797TIP3   OH250585   1.303   1.815   3.367 -0.0397 -0.0041  0.7123
 8797TIP3    H150586   1.398   1.805   3.363 -0.2029 -1.9753 -3.2892
 8797TIP3    H250587   1.272   1.735   3.410  0.0650  0.2416  1.2485
 8798TIP3   OH250588   3.345   4.212   1.075  0.1802  0.3183 -0.0076
 8798TIP3    H150589   3.275   4.218   1.011  0.1074  0.9300  0.1305
 8798TIP3    H250590   3.300   4.194   1.158  0.2175  0.3250  0.0140
 8799TIP3   OH250591   1.431   5.012   1.433 -0.1291  0.1202  0.2336
 8799TIP3    H150592   1.525   5.002   1.452 -0.2149  0.5155  0.8649
 8799TIP3    H250593   1.424   4.989   1.340  0.3673 -1.3721  0.5334
 8800TIP3   OH250594   5.246   2.412   1.979  0.3226 -0.3560  0.1344
 8800TIP3    H150595   5.317   2.430   2.041  0.0908 -2.1218  0.9751
 8800TIP3    H250596   5.282   2.436   1.894  1.2698  0.4830  0.7453
 8801TIP3   OH250597   4.308   2.741   1.486 -0.0096  0.4357 -0.0273
 8801TIP3    H150598   4.284   2.649   1.495 -0.3143  0.2012 -2.5857
 8801TIP3    H250599   4.404   2.740   1.479 -0.0433  0.2733 -0.4605
 8802TIP3   OH250600   4.174   5.390   2.930  0.0413 -0.4019 -0.2629
 8802TIP3    H150601   4.129   5.387   3.014 -2.0976 -1.5942 -1.3524
 8802TIP3    H250602   4.241   5.322   2.936  0.3129 -0.0643  0.6574
 8803TIP3   OH250603   4.372   6.983   1.361  0.2862 -0.1506 -0.0181
 8803TIP3    H150604   4.282   6.955   1.344 -0.4876  1.5027  1.0801
 8803TIP3    H250605   4.372   7.077   1.342  1.8759 -0.1781 -0.2981
 8804TIP3   OH250606   2.940   6.414   3.517  0.4346 -0.1083  0.0636
 8804TIP3    H150607   2.961   6.328   3.554  0.0555 -0.0278  0.4678
 8804TIP3    H250608   3.025   6.451   3.492  0.6915 -0.1862  0.8056
 8805TIP3   OH250609   3.940   0.653   1.551  0.3552 -0.1130 -0.3337
 8805TIP3    H150610   3.926   0.590   1.622 -2.2150 -2.1782 -2.4901
 8805TIP3    H250611   4.007   0.613   1.496  0.5583  0.3168 -0.4112
 8806TIP3   OH250612   6.845   3.579   1.458 -0.7677  0.4094 -0.3728
 8806TIP3    H150613   6.865   3.661   1.504  1.7070 -0.4561  0.2509
 8806TIP3    H250614   6.797   3.607   1.380 -0.2436  2.4295 -0.0333
 8807TIP3   OH250615   4.169   7.632   2.017 -0.0324  0.5215  0.7192
 8807TIP3    H150616   4.117   7.560   1.982  1.4636 -0.6012  0.7418
 8807TIP3    H250617   4.124   7.711   1.986 -1.4932 -0.3970  0.3967
 8808TIP3   OH250618   6.564   1.297   2.460  0.5347 -0.2564  0.4770
 8808TIP3    H150619   6.624   1.237   2.503  0.4283  1.0662  2.6105
 8808TIP3    H250620   6.618   1.345   2.397  1.4952  0.1440  1.5834
 8809TIP3   OH250621   1.169   2.771   0.816  0.1041  0.3697 -0.7239
 8809TIP3    H150622   1.127   2.711   0.754 -0.8535  0.7179 -0.4274
 8809TIP3    H250623   1.259   2.779   0.784 -0.1734 -0.0388 -1.6376
 8810TIP3   OH250624   7.424   6.436   1.080  0.2963  0.1022 -0.7305
 8810TIP3    H150625   7.407   6.446   0.987 -1.3176  0.2021 -0.4530
 8810TIP3    H250626   7.418   6.525   1.115 -0.8734 -0.1414 -0.2765
 8811TIP3   OH250627   1.402   0.888   2.643 -0.1005  0.2473  0.0154
 8811TIP3    H150628   1.482   0.897   2.591  0.3957 -2.2207  0.2377
 8811TIP3    H250629   1.335   0.861   2.580 -0.3713  0.7013  0.1034
 8812TIP3   OH250630   3.516   5.280   1.374 -0.4893 -0.4487 -0.1630
 8812TIP3    H150631   3.487   5.208   1.430  0.1016 -0.6633 -0.1223
 8812TIP3    H250632   3.443   5.342   1.375 -1.0889 -1.1256 -0.3399
 8813TIP3   OH250633   1.647   4.594   1.374 -0.3347 -0.0948  0.0595
 8813TIP3    H150634   1.724   4.593   1.431  1.0015 -1.1690 -1.6790
 8813TIP3    H250635   1.578   4.553   1.426 -0.0540  1.6869  1.9810
 8814TIP3   OH250636   0.159   2.110   2.349  0.5027 -0.0793  0.0278
 8814TIP3    H150637   0.212   2.031   2.363  0.9930  0.0876 -0.8598
 8814TIP3    H250638   0.120   2.098   2.263  0.3241  0.5091  0.0239
 8815TIP3   OH250639   4.601   1.598   2.220  0.0912  0.2624  0.0008
 8815TIP3    H150640   4.630   1.522   2.169 -1.1269 -0.7106  0.7073
 8815TIP3    H250641   4.532   1.564   2.277 -0.6970  1.9549  0.1348
 8816TIP3   OH250642   6.169   4.210   1.169  0.0703 -0.0357  0.1424
 8816TIP3    H150643   6.186   4.278   1.104  0.8192 -0.1127  0.2515
 8816TIP3    H250644   6.148   4.132   1.118  1.1698 -0.2291 -0.0202
 8817TIP3   OH250645   1.421   4.339   1.278  0.1296  0.0152 -0.5482
 8817TIP3    H150646   1.374   4.393   1.215  1.6287  3.4314  1.0263
 8817TIP3    H250647   1.397   4.375   1.363  1.7965 -1.3408  0.5608
 8818TIP3   OH250648   5.582   1.590   2.347 -0.2719  0.0250 -0.4076
 8818TIP3    H150649   5.494   1.559   2.324 -0.1025 -0.9555  0.2004
 8818TIP3    H250650   5.641   1.528   2.304  0.0593 -1.9308  2.5747
 8819TIP3   OH250651   1.021   0.563   0.672 -0.0683 -0.1442 -0.1325
 8819TIP3    H150652   0.978   0.498   0.728 -2.5344  0.7554 -0.8519
 8819TIP3    H250653   1.039   0.515   0.591  0.4292 -0.5751  0.2284
 8820TIP3   OH250654   2.858   0.046   3.267 -0.2727 -0.0394 -0.2335
 8820TIP3    H150655   2.764   0.028   3.272 -0.4611  1.2164  2.3418
 8820TIP3    H250656   2.864   0.132   3.226 -0.3176  0.3097  0.4881
 8821TIP3   OH250657   3.870   2.753   2.357  0.3083  0.0650 -0.1883
 8821TIP3    H150658   3.886   2.765   2.263  0.1114 -0.6201 -0.3170
 8821TIP3    H250659   3.914   2.670   2.378 -1.3884 -0.8616 -0.1265
 8822TIP3   OH250660   6.006   5.956   1.119 -0.4117 -0.0052 -0.4519
 8822TIP3    H150661   5.959   6.017   1.176  0.3190  0.1309  0.0219
 8822TIP3    H250662   6.084   6.004   1.092 -0.1783 -0.4836 -0.6329
 8823TIP3   OH250663   6.920   6.632   2.757 -0.4816  0.4991 -0.1300
 8823TIP3    H150664   6.937   6.725   2.769 -2.2727  0.7235  1.1938
 8823TIP3    H250665   6.944   6.592   2.841 -0.7345 -0.0489 -0.3127
 8824TIP3   OH250666   3.252   3.498   2.200 -0.3290  0.3536  0.2345
 8824TIP3    H150667   3.216   3.545   2.275  0.3561  1.9856 -0.4201
 8824TIP3    H250668   3.322   3.555   2.167 -0.8278 -0.1528 -1.8309
 8825TIP3   OH250669   5.709   2.481   1.682  0.4273  0.1056 -0.0063
 8825TIP3    H150670   5.618   2.487   1.711  0.7772  0.5230  1.0568
 8825TIP3    H250671   5.722   2.388   1.663 -0.0208 -0.0709  0.5110
 8826TIP3   OH250672   2.801   4.829   2.413  0.5817 -0.3550  0.3509
 8826TIP3    H150673   2.769   4.873   2.492  0.3199 -0.5985  0.3809
 8826TIP3    H250674   2.727   4.833   2.352  1.0880  0.6725 -0.2292
 8827TIP3   OH250675   4.129   2.887   2.465 -0.0407 -0.0248  0.1607
 8827TIP3    H150676   4.040   2.858   2.444 -0.5469  1.3687  0.2768
 8827TIP3    H250677   4.167   2.912   2.380 -0.7025  1.8619  0.3843
 8828TIP3   OH250678   2.115   5.367   1.972  0.0322  0.1521  0.4468
 8828TIP3    H150679   2.152   5.417   2.045 -1.9878  0.7230  1.1566
 8828TIP3    H250680   2.189   5.319   1.935  1.6276  1.9861  1.1243
 8829TIP3   OH250681   0.859   1.608   3.382  0.1689 -0.0327  0.1281
 8829TIP3    H150682   0.942   1.652   3.360 -0.2756  1.5848  1.4865
 8829TIP3    H250683   0.794   1.650   3.326 -0.3387  1.4685  1.7656
 8830TIP3   OH250684   0.477   6.906   1.091  0.8705  0.6510 -0.5618
 8830TIP3    H150685   0.496   6.878   1.181 -0.0107 -0.9511 -0.8377
 8830TIP3    H250686   0.450   6.826   1.047 -0.6955  1.7805 -1.7255
 8831TIP3   OH250687   2.658   4.001   2.325 -0.2821  0.2654  0.3434
 8831TIP3    H150688   2.594   4.066   2.296  1.2779  0.6164 -2.6235
 8831TIP3    H250689   2.699   3.969   2.245 -0.8037 -4.3491  1.6146
 8832TIP3   OH250690   5.266   0.582   1.109  0.1597 -0.1051 -0.1066
 8832TIP3    H150691   5.179   0.592   1.069  0.1200  1.9814  0.3685
 8832TIP3    H250692   5.248   0.555   1.199 -0.1064  1.6986  0.4109
 8833TIP3   OH250693   5.159   6.468   0.668 -0.1404  0.3527  0.8349
 8833TIP3    H150694   5.107   6.388   0.678 -0.8730  0.6876 -0.1119
 8833TIP3    H250695   5.240   6.450   0.715 -0.5987 -0.6623  1.2736
 8834TIP3   OH250696   3.821   6.116   1.149 -0.5883 -0.0384  0.0359
 8834TIP3    H150697   3.800   6.094   1.240  2.0393 -0.7787  0.5450
 8834TIP3    H250698   3.884   6.188   1.156  0.9927 -1.2507 -1.0545
 8835TIP3   OH250699   1.158   2.509   0.511 -0.4436 -0.0886 -0.3397
 8835TIP3    H150700   1.130   2.429   0.556 -2.2676  0.0853 -1.0626
 8835TIP3    H250701   1.248   2.492   0.485 -0.9459 -2.1495 -0.9476
 8836TIP3   OH250702   4.905   5.618   1.912  0.7105 -0.0003 -0.0273
 8836TIP3    H150703   4.880   5.645   2.000  1.2121 -1.3146  0.5497
 8836TIP3    H250704   4.960   5.689   1.879  1.6806 -0.1243  1.2742
 8837TIP3   OH250705   3.395   7.655   2.200 -0.7420 -0.4101  0.0451
 8837TIP3    H150706   3.486   7.674   2.179 -0.7575 -1.3441 -0.9399
 8837TIP3    H250707   3.354   7.741   2.208  0.2972  0.0272  0.8979
 8838TIP3   OH250708   1.595   4.500   2.584 -0.9450 -0.3096  0.6001
 8838TIP3    H150709   1.602   4.502   2.488 -2.0409  1.6115  0.5136
 8838TIP3    H250710   1.583   4.407   2.605 -1.1609 -0.7119 -1.1581
 8839TIP3   OH250711   5.285   1.142   1.150  0.2761  0.8365  0.5571
 8839TIP3    H150712   5.212   1.173   1.204  0.6517 -0.5549  1.9529
 8839TIP3    H250713   5.353   1.120   1.214  0.3603 -1.9114 -0.3354
 8840TIP3   OH250714   1.261   1.729   1.584  0.7150  0.2868  0.1771
 8840TIP3    H150715   1.279   1.819   1.556  0.6287  0.6622  1.2787
 8840TIP3    H250716   1.192   1.737   1.650  0.7744 -0.5738  0.3655
 8841TIP3   OH250717   1.896   1.819   3.175 -0.0345  0.0396 -0.1304
 8841TIP3    H150718   1.980   1.781   3.151  0.4531  0.8825  0.1860
 8841TIP3    H250719   1.843   1.745   3.205  1.0749 -0.3243  1.0088
 8842TIP3   OH250720   3.794   2.376   3.082  0.0265 -0.0450 -0.8394
 8842TIP3    H150721   3.787   2.290   3.042 -0.4169  0.1005 -1.0866
 8842TIP3    H250722   3.705   2.411   3.079  0.2363  0.4938 -0.9081
 8843TIP3   OH250723   3.596   0.200   0.407  0.3254  0.6006  0.2644
 8843TIP3    H150724   3.572   0.287   0.376  0.8125  0.6604  0.0443
 8843TIP3    H250725   3.513   0.160   0.433 -0.2395  0.2544 -1.8879
 8844TIP3   OH250726   5.220   5.439   0.908 -0.4758  0.3401 -0.3096
 8844TIP3    H150727   5.192   5.408   0.994 -0.3689  2.2993  0.4980
 8844TIP3    H250728   5.142   5.433   0.853 -0.6015 -0.7399 -0.0264
 8845TIP3   OH250729   5.312   5.989   2.779  0.1273 -0.7289  0.2031
 8845TIP3    H150730   5.355   5.927   2.721  0.9297 -0.3326  0.3636
 8845TIP3    H250731   5.239   6.023   2.728 -0.6638 -2.1879  0.2970
 8846TIP3   OH250732   0.212   5.331   2.063  0.5103  0.1521  0.9332
 8846TIP3    H150733   0.244   5.266   2.125  0.2909  0.3269  1.2287
 8846TIP3    H250734   0.275   5.403   2.068  0.9178 -0.1568  0.3904
 8847TIP3   OH250735   2.995   0.027   0.993 -0.2220 -0.0167 -0.2779
 8847TIP3    H150736   3.025   0.079   1.067 -0.7809 -0.8909  0.5846
 8847TIP3    H250737   2.903   0.008   1.012 -0.4564 -0.0232 -1.3352
 8848TIP3   OH250738   1.930   2.647   1.258  0.2345  0.4345 -0.1709
 8848TIP3    H150739   1.932   2.705   1.182 -0.0320 -1.6197 -1.8456
 8848TIP3    H250740   1.841   2.656   1.293  0.4890  1.7093  0.2229
 8849TIP3   OH250741   5.932   1.077   2.694 -0.4693 -0.0028  0.4223
 8849TIP3    H150742   5.843   1.041   2.696 -0.6002  0.3254  0.5347
 8849TIP3    H250743   5.982   1.022   2.754 -0.7787  0.2956  0.9589
 8850TIP3   OH250744   7.138   0.051   2.524  0.0126 -0.1561  0.6096
 8850TIP3    H150745   7.230   0.068   2.542  0.4376 -1.6966  0.1235
 8850TIP3    H250746   7.090   0.103   2.588  1.1509  1.8184 -0.0747
 8851TIP3   OH250747   5.157   5.876   1.305  0.3181 -0.1073  0.7828
 8851TIP3    H150748   5.224   5.824   1.260  1.3512  1.0741  0.8920
 8851TIP3    H250749   5.075   5.854   1.260  0.7277 -1.6886  0.7288
 8852TIP3   OH250750   0.043   2.199   1.081  0.0783 -0.2041 -0.0798
 8852TIP3    H150751  -0.012   2.123   1.095 -0.7806  0.3399 -0.4395
 8852TIP3    H250752  -0.015   2.265   1.043  0.5104  1.0382  1.2767
 8853TIP3   OH250753   0.165   3.440   1.561  0.5339 -0.0222  0.3355
 8853TIP3    H150754   0.163   3.531   1.532  0.3579  0.6073  2.2075
 8853TIP3    H250755   0.229   3.439   1.631 -0.9294 -0.8835  1.7277
 8854TIP3   OH250756   1.388   5.149   1.915  0.1497  0.5639  0.6038
 8854TIP3    H150757   1.370   5.096   1.838 -1.0506  1.0210  0.5455
 8854TIP3    H250758   1.328   5.223   1.908 -0.4225  0.2949  2.2790
 8855TIP3   OH250759   4.643   0.275   3.092 -0.0242 -0.2442 -0.6236
 8855TIP3    H150760   4.588   0.335   3.143  0.4211  0.0183 -0.4501
 8855TIP3    H250761   4.589   0.254   3.016 -0.3361  0.0815 -0.5006
 8856TIP3   OH250762   2.969   3.490   1.309  0.3848 -0.6315 -0.1586
 8856TIP3    H150763   3.053   3.446   1.305  2.0183  2.1689  0.7008
 8856TIP3    H250764   2.944   3.488   1.401 -0.6635 -1.6338 -0.4346
 8857TIP3   OH250765   6.424   5.251   2.771  0.0077  0.0619 -0.0538
 8857TIP3    H150766   6.458   5.338   2.748 -1.0770  0.9661  1.5508
 8857TIP3    H250767   6.499   5.204   2.807  1.0476 -0.3703 -2.6170
 8858TIP3   OH250768   6.699   6.092   2.881  0.0195  0.5618  0.1463
 8858TIP3    H150769   6.744   6.149   2.943 -1.3242  1.9938 -0.1444
 8858TIP3    H250770   6.761   6.082   2.808  0.0811  2.1229 -0.0487
 8859TIP3   OH250771   4.569   3.950   3.138  0.3483  0.4790 -0.0788
 8859TIP3    H150772   4.633   3.903   3.192  0.4424  0.8941  0.1674
 8859TIP3    H250773   4.500   3.975   3.199 -0.5117 -0.7726 -0.5011
 8860TIP3   OH250774   1.834   4.547   1.541  0.0993  0.6665 -0.0230
 8860TIP3    H150775   1.895   4.621   1.547 -0.1041  0.9979 -1.6577
 8860TIP3    H250776   1.891   4.470   1.532  0.2963  0.7578  0.4188
 8861TIP3   OH250777   2.361   4.440   1.757  0.4032  0.9823 -0.3456
 8861TIP3    H150778   2.267   4.435   1.777  0.2662 -0.6957 -1.2295
 8861TIP3    H250779   2.397   4.496   1.825 -0.9508  0.1749  1.1084
 8862TIP3   OH250780   5.357   2.019   1.235  0.2638  0.3203  0.8623
 8862TIP3    H150781   5.299   1.963   1.184  0.3245  0.2446  0.8755
 8862TIP3    H250782   5.332   2.002   1.326 -0.0800  0.7164  0.8419
 8863TIP3   OH250783   2.508   3.028   3.328 -0.1696  0.7079 -0.6261
 8863TIP3    H150784   2.586   2.973   3.338 -1.0393 -0.4233  0.4772
 8863TIP3    H250785   2.451   2.977   3.270 -0.9225  0.4839  0.2840
 8864TIP3   OH250786   3.339   3.331   0.697  0.2557  0.1274  0.0259
 8864TIP3    H150787   3.430   3.332   0.669  0.4266  1.1946  0.5573
 8864TIP3    H250788   3.334   3.399   0.764 -0.3412 -1.7012  1.9500
 8865TIP3   OH250789   7.230   4.437   0.801  0.1472 -0.6391 -0.4529
 8865TIP3    H150790   7.138   4.438   0.828  0.6289  2.2825  1.4368
 8865TIP3    H250791   7.274   4.385   0.868  0.3832  1.2777  0.9556
 8866TIP3   OH250792   5.450   0.338   2.185 -0.3783 -0.0382 -0.1833
 8866TIP3    H150793   5.455   0.417   2.131 -0.4850 -0.7594 -1.2749
 8866TIP3    H250794   5.542   0.314   2.200 -0.3313  0.6166  0.6669
 8867TIP3   OH250795   0.534   5.893   1.030 -0.3013  0.2300 -0.2073
 8867TIP3    H150796   0.460   5.857   1.080  0.3718 -1.0781 -0.1308
 8867TIP3    H250797   0.563   5.822   0.974  1.4474  0.4406  0.3669
 8868TIP3   OH250798   6.007   5.637   2.273 -0.0841 -0.1314 -0.3040
 8868TIP3    H150799   5.927   5.677   2.305  0.2948 -1.4781  2.7122
 8868TIP3    H250800   5.983   5.546   2.254  0.7524 -0.6488  0.9807
 8869TIP3   OH250801   1.791   7.362   2.706  0.0527 -0.0865  0.3359
 8869TIP3    H150802   1.835   7.287   2.746  0.0532 -0.2354  0.0579
 8869TIP3    H250803   1.844   7.437   2.730  0.9895 -0.3644 -0.7609
 8870TIP3   OH250804   4.676   1.562   1.926 -0.0637 -0.0579 -0.4016
 8870TIP3    H150805   4.649   1.480   1.969  0.1343  0.8083  1.4572
 8870TIP3    H250806   4.660   1.546   1.833 -0.3657 -2.0817 -0.0531
 8871TIP3   OH250807   4.772   7.672   0.752  0.2475  0.1350 -0.4693
 8871TIP3    H150808   4.855   7.668   0.799  0.7173 -0.7088 -1.3586
 8871TIP3    H250809   4.784   7.743   0.689  0.5381 -0.3990 -1.0293
 8872TIP3   OH250810   3.218   4.150   1.318 -0.6744 -0.4127  0.6717
 8872TIP3    H150811   3.191   4.060   1.334  0.0758 -0.4820  1.6497
 8872TIP3    H250812   3.139   4.202   1.334 -1.3183 -0.9488 -0.6807
 8873TIP3   OH250813   5.961   0.086   1.190 -0.5998  0.3058  0.1162
 8873TIP3    H150814   5.931   0.122   1.106 -1.5661 -0.0060  0.3111
 8873TIP3    H250815   6.033   0.143   1.216 -1.3179  1.3809 -0.1623
 8874TIP3   OH250816   1.787   3.833   1.607 -0.4880  0.5757  0.5577
 8874TIP3    H150817   1.720   3.901   1.613 -0.1229  0.9086  0.9240
 8874TIP3    H250818   1.742   3.752   1.631 -1.7660  0.0819 -2.9059
 8875TIP3   OH250819   0.954   2.709   2.657  0.0898 -0.2705  0.1767
 8875TIP3    H150820   0.948   2.672   2.745 -1.0450 -0.0316  0.2098
 8875TIP3    H250821   0.971   2.633   2.600 -0.0077 -0.5378  0.5016
 8876TIP3   OH250822   6.530   0.905   1.099  0.0720  0.2359 -0.8208
 8876TIP3    H150823   6.620   0.889   1.128  0.2990  2.4991 -0.0900
 8876TIP3    H250824   6.539   0.964   1.024 -0.7232 -2.2285 -3.0188
 8877TIP3   OH250825   0.070   2.069   1.596 -0.5000  0.0330 -0.2688
 8877TIP3    H150826   0.089   1.985   1.554  0.5834  0.1865 -0.1227
 8877TIP3    H250827   0.060   2.130   1.523 -2.2599 -0.3786 -0.4191
 8878TIP3   OH250828   5.840   5.485   0.720 -0.0034 -0.2334 -0.0558
 8878TIP3    H150829   5.811   5.396   0.743 -1.2691  0.0640 -0.4319
 8878TIP3    H250830   5.777   5.542   0.764 -0.4054  0.4261 -1.4484
 8879TIP3   OH250831   7.505   3.311   1.014 -0.0391 -0.7421 -0.4694
 8879TIP3    H150832   7.534   3.220   1.011  1.1887 -0.3764 -0.2645
 8879TIP3    H250833   7.545   3.351   0.937 -1.1740 -0.5220 -0.9718
 8880TIP3   OH250834   4.919   5.778   1.180 -0.1075  0.0244 -0.0485
 8880TIP3    H150835   4.893   5.696   1.139 -1.6923  0.2855  0.3867
 8880TIP3    H250836   4.891   5.845   1.117 -0.0001  0.2921  0.1882
 8881TIP3   OH250837   2.731   1.787   1.939 -0.1328  0.1896 -0.0352
 8881TIP3    H150838   2.814   1.834   1.929 -0.7573  1.2071 -0.6333
 8881TIP3    H250839   2.746   1.726   2.011  1.0949  0.4394 -0.0670
 8882TIP3   OH250840   1.939   6.356   1.685 -0.4354  0.1737  0.4469
 8882TIP3    H150841   1.923   6.308   1.767  0.0946  1.2679  1.2151
 8882TIP3    H250842   1.928   6.290   1.617  1.9270 -1.5178  1.5356
 8883TIP3   OH250843   1.005   6.553   1.347  0.2671 -0.4720  1.3840
 8883TIP3    H150844   1.029   6.645   1.338 -1.5688 -0.0647  0.1297
 8883TIP3    H250845   0.999   6.538   1.441  0.0025  0.8570  1.5922
 8884TIP3   OH250846   0.524   4.403   0.924  0.3842  0.0769 -0.1305
 8884TIP3    H150847   0.553   4.450   1.002 -1.0395 -0.0857  0.5238
 8884TIP3    H250848   0.595   4.341   0.906 -0.0120 -1.1481  2.1462
 8885TIP3   OH250849   0.505   6.482   1.395 -0.1296 -0.1119  0.0228
 8885TIP3    H150850   0.425   6.446   1.359  0.4312  0.8269 -2.3221
 8885TIP3    H250851   0.567   6.483   1.322  0.8105  2.7068  0.7115
 8886TIP3   OH250852   0.038   7.423   2.003  0.1781 -0.2014 -0.0220
 8886TIP3    H150853   0.018   7.425   1.910 -2.2435 -1.2764  0.3987
 8886TIP3    H250854   0.015   7.511   2.035  1.0415  0.1772 -0.4089
 8887TIP3   OH250855   4.109   5.644   2.545 -0.2257  0.0919  0.0337
 8887TIP3    H150856   4.072   5.624   2.459 -1.0959  0.1176  0.3910
 8887TIP3    H250857   4.033   5.656   2.602  0.3320  0.6341  0.6864
 8888TIP3   OH250858   3.690   3.651   1.723 -0.6765 -0.2367  0.2468
 8888TIP3    H150859   3.716   3.731   1.677 -0.9075 -0.0784  0.3932
 8888TIP3    H250860   3.771   3.618   1.761 -0.3783 -0.6695 -0.7423
 8889TIP3   OH250861   0.602   3.464   1.625  0.2927 -0.2470 -0.3953
 8889TIP3    H150862   0.693   3.438   1.636  0.1486 -0.2209  1.1343
 8889TIP3    H250863   0.569   3.409   1.555  1.3477 -0.6140 -0.6115
 8890TIP3   OH250864   3.680   4.861   2.782  0.4385  0.5176  0.0711
 8890TIP3    H150865   3.735   4.937   2.763 -0.1881  0.3929 -2.8008
 8890TIP3    H250866   3.713   4.793   2.723 -1.0740 -0.4015  0.2327
 8891TIP3   OH250867   6.625   1.343   1.331  0.7586  0.2780 -0.4092
 8891TIP3    H150868   6.659   1.430   1.312 -0.8383  0.5211 -2.4769
 8891TIP3    H250869   6.668   1.286   1.266 -0.4421  0.0690 -1.0407
 8892TIP3   OH250870   4.988   7.321   0.915  0.4053  0.3942  0.2613
 8892TIP3    H150871   4.929   7.299   0.987  0.8860 -0.1392  0.5075
 8892TIP3    H250872   4.930   7.340   0.841 -0.1850  2.9158  1.2720
 8893TIP3   OH250873   3.812   3.194   2.280  0.2473  0.2319 -0.2548
 8893TIP3    H150874   3.885   3.162   2.228 -0.2205 -0.8068 -0.2937
 8893TIP3    H250875   3.817   3.145   2.362  0.2972  1.0176  0.2218
 8894TIP3   OH250876   6.028   3.210   2.330 -0.0926  0.1467  0.9076
 8894TIP3    H150877   5.934   3.230   2.329 -0.2295 -0.4240 -0.3083
 8894TIP3    H250878   6.069   3.286   2.290 -0.0372  0.3860  1.4172
 8895TIP3   OH250879   3.312   7.054   1.907 -0.3544 -0.0966 -0.1473
 8895TIP3    H150880   3.293   7.031   1.998  0.4222 -1.8980 -0.4107
 8895TIP3    H250881   3.249   7.123   1.887 -2.8401 -1.9701  0.7320
 8896TIP3   OH250882   7.557   3.214   2.186  0.4712 -0.0156 -0.6978
 8896TIP3    H150883   7.622   3.151   2.155 -0.8914 -1.3871 -0.9387
 8896TIP3    H250884   7.476   3.187   2.143 -0.7009  0.3141  1.1769
 8897TIP3   OH250885   5.809   1.879   2.614  0.1944 -0.3553 -0.5951
 8897TIP3    H150886   5.725   1.835   2.606 -1.1453  2.0299 -0.5149
 8897TIP3    H250887   5.807   1.920   2.700  0.7306  1.0617 -1.2288
 8898TIP3   OH250888   3.447   6.788   2.240 -0.7338 -0.2604  0.0489
 8898TIP3    H150889   3.502   6.808   2.164  0.4890  2.7758  1.5661
 8898TIP3    H250890   3.500   6.728   2.293 -1.4309 -2.0710 -1.1959
 8899TIP3   OH250891   5.486   5.383   1.937 -0.6850  0.6654 -0.1262
 8899TIP3    H150892   5.532   5.436   2.001  0.5784 -2.1338  1.4812
 8899TIP3    H250893   5.521   5.295   1.949 -1.3774 -0.2867 -3.7913
 8900TIP3   OH250894   0.609   0.794   2.024  0.0592 -0.0438 -0.3417
 8900TIP3    H150895   0.537   0.745   2.065 -1.0031  0.3071 -1.7241
 8900TIP3    H250896   0.670   0.811   2.096 -1.6004  0.3199  1.0499
 8901TIP3   OH250897   1.556   4.396   0.626 -0.0242 -0.1720  0.3364
 8901TIP3    H150898   1.589   4.342   0.698  0.2758  1.0217  1.1493
 8901TIP3    H250899   1.631   4.406   0.567 -0.0167 -0.4783  0.2970
 8902TIP3   OH250900   0.470   1.624   2.094  0.0056 -0.3111 -0.4395
 8902TIP3    H150901   0.377   1.638   2.077 -0.4394 -2.3999  0.0342
 8902TIP3    H250902   0.481   1.646   2.187 -0.1804 -0.7237 -0.3159
 8903TIP3   OH250903   0.755   6.193   1.960  0.6174  0.2848 -0.0077
 8903TIP3    H150904   0.706   6.123   1.917 -0.5986  1.7772 -1.1449
 8903TIP3    H250905   0.708   6.210   2.041  0.1370  0.6790 -0.3677
 8904TIP3   OH250906   6.900   1.559   1.573  0.2878  0.5371 -0.3157
 8904TIP3    H150907   6.995   1.562   1.583  0.1907  1.7823  0.3509
 8904TIP3    H250908   6.869   1.515   1.653  0.3728 -1.3537 -1.2528
 8905TIP3   OH250909   4.708   3.946   2.211  0.2792 -0.4611  0.0261
 8905TIP3    H150910   4.691   3.857   2.244 -2.3367 -0.9070 -2.0962
 8905TIP3    H250911   4.780   3.935   2.149 -2.0279 -1.9468 -2.6727
 8906TIP3   OH250912   7.333   6.119   1.928 -0.2791  0.2743 -0.1328
 8906TIP3    H150913   7.277   6.113   1.851 -0.5728  0.4669  0.0665
 8906TIP3    H250914   7.292   6.062   1.993 -0.1879  0.3371 -0.0196
 8907TIP3   OH250915   0.619   0.356   2.464  0.1213 -0.3821 -0.0523
 8907TIP3    H150916   0.646   0.407   2.540  2.8926 -0.5315 -0.8378
 8907TIP3    H250917   0.559   0.290   2.500 -0.1086  0.7016  1.6645
 8908TIP3   OH250918   0.061   5.360   1.141 -0.1527  0.5356  0.1272
 8908TIP3    H150919   0.152   5.363   1.170  0.2143 -0.2623 -0.8990
 8908TIP3    H250920   0.063   5.394   1.052 -0.6767 -0.5210 -0.3071
 8909TIP3   OH250921   5.254   7.531   0.571 -0.3116 -0.0089  0.3296
 8909TIP3    H150922   5.237   7.538   0.477  0.9657  0.4015  0.1125
 8909TIP3    H250923   5.226   7.616   0.606  1.6754  0.8876 -0.1139
 8910TIP3   OH250924   7.426   1.358   1.979 -0.0972 -0.4460  0.0177
 8910TIP3    H150925   7.453   1.287   1.921  0.5427 -1.0273  0.9917
 8910TIP3    H250926   7.404   1.314   2.061 -3.2849  0.0659 -0.4373
 8911TIP3   OH250927   5.866   0.523   0.528  0.1989 -0.7338  0.1443
 8911TIP3    H150928   5.957   0.525   0.558  0.2376 -1.3619  0.0872
 8911TIP3    H250929   5.840   0.431   0.536 -0.7589 -0.3915  1.0985
 8912TIP3   OH250930   5.858   3.831   1.031 -0.5982  0.2673 -0.0421
 8912TIP3    H150931   5.929   3.784   0.987 -1.4338  0.8378 -2.1450
 8912TIP3    H250932   5.893   3.853   1.117  1.1576 -0.8916 -0.4086
 8913TIP3   OH250933   0.876   2.166   2.830 -0.0811 -0.1415  0.1763
 8913TIP3    H150934   0.956   2.206   2.865 -0.2942  0.3604  0.0902
 8913TIP3    H250935   0.807   2.228   2.852 -0.3031 -0.0978 -0.6339
 8914TIP3   OH250936   2.345   2.602   1.173 -0.3232 -0.5020  0.2838
 8914TIP3    H150937   2.357   2.692   1.204  1.7004 -0.2994 -0.8530
 8914TIP3    H250938   2.421   2.587   1.115 -0.9660 -2.7128 -0.0739
 8915TIP3   OH250939   4.814   5.469   1.331 -0.1477 -0.4177 -0.3565
 8915TIP3    H150940   4.778   5.514   1.254  2.2085  0.2476 -1.1595
 8915TIP3    H250941   4.830   5.539   1.394 -1.1150 -0.8302  0.3592
 8916TIP3   OH250942   5.172   1.771   1.806 -0.1840 -0.0929  0.4202
 8916TIP3    H150943   5.147   1.837   1.741  1.1049  0.9999  0.9742
 8916TIP3    H250944   5.220   1.821   1.872  0.0412 -1.4661  1.3205
 8917TIP3   OH250945   3.266   4.994   2.505  0.2928 -0.3584 -0.2681
 8917TIP3    H150946   3.335   4.928   2.511  0.0473 -0.6213 -0.3677
 8917TIP3    H250947   3.299   5.057   2.440 -1.0479 -2.2742 -2.9617
 8918TIP3   OH250948   7.021   6.963   1.982 -0.0290 -0.0762 -0.1117
 8918TIP3    H150949   6.999   6.895   1.919 -1.0450 -2.0332  2.1580
 8918TIP3    H250950   6.936   6.992   2.017  0.4120  2.0813 -0.6931
 8919TIP3   OH250951   2.880   3.128   2.529  0.4130 -0.6748  0.2882
 8919TIP3    H150952   2.904   3.214   2.564 -0.3333 -0.3595  0.0540
 8919TIP3    H250953   2.798   3.106   2.574 -0.5570 -0.2694 -1.2000
 8920TIP3   OH250954   3.960   1.933   1.622 -0.1524  0.1027 -0.0270
 8920TIP3    H150955   3.907   1.853   1.620  0.2616 -0.1719 -1.4213
 8920TIP3    H250956   3.900   2.001   1.591 -0.1130  0.0599 -0.2019
 8921TIP3   OH250957   3.950   2.518   2.438 -0.0386 -0.2922  0.6111
 8921TIP3    H150958   3.897   2.440   2.425  0.5097 -0.4348 -0.9534
 8921TIP3    H250959   4.039   2.485   2.448 -0.1411 -0.0332  2.8877
 8922TIP3   OH250960   3.579   2.768   0.880  0.2354  0.6321 -0.1619
 8922TIP3    H150961   3.610   2.827   0.811  0.8479  0.0543 -0.3926
 8922TIP3    H250962   3.636   2.786   0.954  1.3532 -0.6280 -0.6750
 8923TIP3   OH250963   3.634   1.567   2.571  0.0853  0.1966 -0.0286
 8923TIP3    H150964   3.711   1.575   2.514  0.3124 -0.1110  0.2328
 8923TIP3    H250965   3.670   1.551   2.658 -0.2407  1.3081  0.3319
 8924TIP3   OH250966   2.719   0.917   1.838  0.4990  0.1241  0.2445
 8924TIP3    H150967   2.790   0.969   1.876  0.3617 -0.7483  1.7888
 8924TIP3    H250968   2.750   0.827   1.843 -0.3271 -0.1790  0.0558
 8925TIP3   OH250969   3.244   4.846   1.887 -0.4030  0.0628  0.5834
 8925TIP3    H150970   3.295   4.857   1.966 -0.8611  1.1372  0.7507
 8925TIP3    H250971   3.169   4.792   1.913 -1.1644  1.3545  1.1947
 8926TIP3   OH250972   2.209   4.316   2.528 -0.2048  0.3563  0.4048
 8926TIP3    H150973   2.162   4.381   2.580 -1.0884  0.2110 -0.1842
 8926TIP3    H250974   2.278   4.284   2.586 -2.0378 -0.8686  2.0582
 8927TIP3   OH250975   0.591   1.980   0.934  0.2003 -0.2341 -0.1335
 8927TIP3    H150976   0.605   2.069   0.967 -0.1307 -0.4528  0.6007
 8927TIP3    H250977   0.513   1.987   0.879  0.8437  0.1623 -1.0229
 8928TIP3   OH250978   7.402   7.405   0.919  0.1298 -0.3247  0.1108
 8928TIP3    H150979   7.477   7.348   0.938  0.7122  0.5414  0.4557
 8928TIP3    H250980   7.406   7.419   0.824 -0.1818 -1.0764 -0.0190
 8929TIP3   OH250981   0.809   2.564   1.344  0.7747 -0.3086 -0.2064
 8929TIP3    H150982   0.873   2.502   1.379 -1.1700 -2.7968 -0.8473
 8929TIP3    H250983   0.762   2.596   1.421  0.4682 -1.1873 -0.0156
 8930TIP3   OH250984   4.662   2.130   3.235  0.5490  0.3304 -0.4182
 8930TIP3    H150985   4.602   2.178   3.177 -0.2005  2.1790  1.7343
 8930TIP3    H250986   4.606   2.068   3.281  0.9157 -0.2733 -0.7795
 8931TIP3   OH250987   2.785   6.865   2.804  0.1640  0.2424  0.5484
 8931TIP3    H150988   2.869   6.897   2.773  0.9273 -1.2487  1.0033
 8931TIP3    H250989   2.721   6.930   2.772  1.3850  1.0196 -0.3891
 8932TIP3   OH250990   4.188   2.917   1.279 -0.1222  0.8096  0.4351
 8932TIP3    H150991   4.183   2.860   1.356 -0.2819  2.4201  1.6483
 8932TIP3    H250992   4.281   2.915   1.254 -0.2557 -0.6299 -0.0981
 8933TIP3   OH250993   1.672   1.470   2.571 -0.1400 -0.3067 -0.3826
 8933TIP3    H150994   1.640   1.500   2.655  0.7069  0.5083 -0.3391
 8933TIP3    H250995   1.692   1.377   2.584 -0.3940 -0.2805  0.1922
 8934TIP3   OH250996   6.602   3.161   1.739  0.1742 -0.2520 -0.3089
 8934TIP3    H150997   6.679   3.145   1.794 -0.1293  0.0125  0.2021
 8934TIP3    H250998   6.629   3.232   1.681  0.6466 -0.8334 -0.8117
 8935TIP3   OH250999   7.565   3.955   2.469  0.0888 -0.1144 -0.3372
 8935TIP3    H151000   7.550   3.912   2.553  2.8451  0.1552  0.3750
 8935TIP3    H251001   7.550   4.048   2.486  0.1381 -0.1185 -0.2693
 8936TIP3   OH251002   5.092   1.181   2.352  0.4565 -0.1626 -0.0462
 8936TIP3    H151003   4.997   1.182   2.341  0.6811  0.7981 -2.4437
 8936TIP3    H251004   5.124   1.123   2.283  1.6399  0.1640  0.2011
 8937TIP3   OH251005   0.571   6.462   1.888  0.0995 -0.1841 -0.3799
 8937TIP3    H151006   0.516   6.527   1.932 -0.2218 -0.1005 -0.8917
 8937TIP3    H251007   0.659   6.500   1.890  0.4874 -1.0705  1.9242
 8938TIP3   OH251008   4.815   2.483   1.613 -0.2084 -0.1861  0.4036
 8938TIP3    H151009   4.794   2.456   1.523 -2.9479 -1.0229  1.1889
 8938TIP3    H251010   4.824   2.578   1.608 -1.8532 -0.0357 -0.5629
 8939TIP3   OH251011   5.677   3.575   2.502  0.0698  0.1315 -0.4276
 8939TIP3    H151012   5.601   3.607   2.454 -0.5253 -1.0781 -0.3411
 8939TIP3    H251013   5.644   3.557   2.590  0.8130  0.9574  0.0348
 8940TIP3   OH251014   7.567   6.042   0.902  0.2317 -0.2634  0.1813
 8940TIP3    H151015   7.555   5.973   0.968 -1.6522  0.4075  0.6003
 8940TIP3    H251016   7.660   6.040   0.882  0.0077 -4.5873 -1.6113
 8941TIP3   OH251017   6.884   0.476   1.983  0.2335 -0.3992  0.5723
 8941TIP3    H151018   6.843   0.398   1.947  2.7552 -2.0377  1.0016
 8941TIP3    H251019   6.813   0.524   2.025 -1.4957 -2.1233 -0.2606
 8942TIP3   OH251020   2.652   6.794   1.173 -0.6960 -0.3338 -0.0820
 8942TIP3    H151021   2.633   6.880   1.134  0.7450  0.3017  0.5421
 8942TIP3    H251022   2.566   6.757   1.193 -1.3436  1.8274  1.4576
 8943TIP3   OH251023   0.206   7.483   2.893  0.1895  0.2873  0.3056
 8943TIP3    H151024   0.275   7.549   2.901 -1.2847  1.7841  1.0680
 8943TIP3    H251025   0.198   7.446   2.981  0.3454 -0.2474  0.1006
 8944TIP3   OH251026   3.579   2.612   2.253 -0.3148 -0.3492 -0.0124
 8944TIP3    H151027   3.559   2.617   2.347 -2.3824  2.3447 -0.4632
 8944TIP3    H251028   3.666   2.649   2.244 -0.0665 -0.7096  0.8499
 8945TIP3   OH251029   7.586   2.964   1.370  0.2578 -0.5756 -0.4511
 8945TIP3    H151030   7.525   2.934   1.437 -1.0055  0.7126 -0.9904
 8945TIP3    H251031   7.610   3.053   1.397  3.4449 -1.6463  0.7819
 8946TIP3   OH251032   3.716   3.556   2.795  0.5774 -0.4366  0.1565
 8946TIP3    H151033   3.696   3.463   2.790  2.8014 -1.1179  2.1165
 8946TIP3    H251034   3.797   3.561   2.846  0.3051  2.6047  0.5100
 8947TIP3   OH251035   2.589   3.748   3.431  0.4628  0.4988 -0.3607
 8947TIP3    H151036   2.655   3.725   3.497  1.2550 -2.4650 -2.0154
 8947TIP3    H251037   2.633   3.811   3.374  0.8435  0.7269  0.1746
 8948TIP3   OH251038   6.533   6.129   1.657  0.1564  0.3977 -0.1099
 8948TIP3    H151039   6.567   6.152   1.743  0.1613 -1.0438  0.3050
 8948TIP3    H251040   6.440   6.151   1.661  0.6138  2.6827 -0.6400
 8949TIP3   OH251041   3.039   5.328   1.655  0.0957 -0.4898  0.4936
 8949TIP3    H151042   2.944   5.322   1.670  0.3246 -2.0257  1.6073
 8949TIP3    H251043   3.049   5.313   1.561 -0.7488 -0.5505  0.3975
 8950TIP3   OH251044   2.821   6.159   0.728  0.7776  0.0378  0.2714
 8950TIP3    H151045   2.783   6.136   0.643  1.0882 -1.0386  0.3994
 8950TIP3    H251046   2.829   6.254   0.726  1.6249 -0.0264 -1.2900
 8951TIP3   OH251047   1.358   7.370   1.669  0.3155  0.1130 -0.0350
 8951TIP3    H151048   1.423   7.423   1.716  1.3096  0.8495 -2.1071
 8951TIP3    H251049   1.399   7.285   1.658 -0.6468 -0.6540  1.9167
 8952TIP3   OH251050   2.311   5.253   1.300 -0.1115 -0.1342 -0.2137
 8952TIP3    H151051   2.330   5.335   1.254 -0.0522 -0.4270 -0.7034
 8952TIP3    H251052   2.282   5.193   1.232 -2.9012  0.3025  0.4660
 8953TIP3   OH251053   2.700   6.306   1.950  0.5101 -0.2076  0.0798
 8953TIP3    H151054   2.791   6.303   1.921  0.0901 -1.9102 -1.2837
 8953TIP3    H251055   2.676   6.214   1.963 -1.0675  0.1880  0.2178
 8954TIP3   OH251056   3.229   7.366   1.336  0.5098 -0.0477  0.0652
 8954TIP3    H151057   3.230   7.402   1.424 -0.7082  0.3209 -0.0523
 8954TIP3    H251058   3.304   7.306   1.333  0.5071 -0.1311  1.3664
 8955TIP3   OH251059   7.179   2.056   2.978 -0.0089  0.5537 -0.0048
 8955TIP3    H151060   7.234   1.978   2.969  0.3838  0.7097  0.8701
 8955TIP3    H251061   7.112   2.031   3.041 -0.3944  0.6565 -0.3715
 8956TIP3   OH251062   6.291   0.942   1.209 -0.1351 -0.1063 -0.3309
 8956TIP3    H151063   6.376   0.938   1.167  0.1407  0.4287  0.1671
 8956TIP3    H251064   6.267   1.034   1.208 -0.5436 -0.2040 -0.1440
 8957TIP3   OH251065   2.747   6.500   2.262 -0.2528  0.3048  0.0232
 8957TIP3    H151066   2.664   6.453   2.250 -1.4855  2.4577 -0.4813
 8957TIP3    H251067   2.728   6.566   2.328  0.7138  1.5677 -0.9027
 8958TIP3   OH251068   5.535   7.415   0.953  0.0129  0.1058 -0.0391
 8958TIP3    H151069   5.556   7.471   0.878 -2.4831  1.1845 -0.0130
 8958TIP3    H251070   5.440   7.409   0.953 -0.0270 -0.4509  2.6391
 8959TIP3   OH251071   0.953   0.023   2.892  0.4054  0.4805  0.2534
 8959TIP3    H151072   1.006   0.021   2.812 -0.9448 -0.6300 -0.6745
 8959TIP3    H251073   0.959   0.114   2.922  0.0040  1.2479 -1.8037
 8960TIP3   OH251074   4.897   3.564   2.725  0.3378  0.1894  0.3077
 8960TIP3    H151075   4.940   3.646   2.699 -2.8820  2.4011  1.3516
 8960TIP3    H251076   4.958   3.524   2.787  1.7670  2.1159  0.2439
 8961TIP3   OH251077   6.574   1.924   1.435  0.4168 -0.2225 -0.8848
 8961TIP3    H151078   6.667   1.908   1.422  0.4249  0.2535 -1.4683
 8961TIP3    H251079   6.544   1.852   1.490  0.7887 -1.2948 -2.0261
 8962TIP3   OH251080   0.444   1.481   2.597  0.7031 -0.5023 -1.1631
 8962TIP3    H151081   0.413   1.396   2.566  0.4889 -1.2907  1.0172
 8962TIP3    H251082   0.529   1.462   2.636  0.6185  0.2572 -0.5980
 8963TIP3   OH251083   6.191   1.433   1.363  0.1957  0.3183 -0.3076
 8963TIP3    H151084   6.101   1.420   1.334 -1.0952  0.9977  2.9443
 8963TIP3    H251085   6.230   1.345   1.363 -1.2296 -0.3329  0.4447
 8964TIP3   OH251086   2.488   5.395   0.847  0.5203  0.1692  0.1203
 8964TIP3    H151087   2.406   5.345   0.849  1.5143 -1.5532 -0.3053
 8964TIP3    H251088   2.528   5.373   0.763  1.0694  1.6206 -0.0351
 8965TIP3   OH251089   4.362   4.231   3.184 -0.0057 -0.2142  0.2634
 8965TIP3    H151090   4.282   4.276   3.212 -1.0350 -0.6440 -1.7792
 8965TIP3    H251091   4.355   4.143   3.221  0.0047  0.0412  0.8818
 8966TIP3   OH251092   4.843   0.456   0.549  0.7419  0.1073  0.2333
 8966TIP3    H151093   4.910   0.511   0.509  2.5367 -1.2536  1.2285
 8966TIP3    H251094   4.828   0.494   0.635  0.6087  0.1147  0.2076
 8967TIP3   OH251095   0.445   7.254   0.601 -0.1202  0.8203  0.1785
 8967TIP3    H151096   0.354   7.283   0.592 -0.0319  0.7237 -1.1849
 8967TIP3    H251097   0.447   7.208   0.685 -1.2838  0.9618  0.3064
 8968TIP3   OH251098   5.922   7.669   2.099 -0.5167  0.7938  0.9621
 8968TIP3    H151099   5.975   7.704   2.171  2.2171 -1.2877  0.1098
 8968TIP3    H251100   5.908   7.577   2.121 -0.4327  0.3457 -0.6915
 8969TIP3   OH251101   1.803   0.297   1.702 -0.2817 -0.4769  0.6091
 8969TIP3    H151102   1.775   0.307   1.610 -1.2942 -0.1315  0.9345
 8969TIP3    H251103   1.802   0.203   1.717 -2.1688 -0.4580  0.8418
 8970TIP3   OH251104   0.596   5.701   0.830 -0.1745  0.2136 -0.0998
 8970TIP3    H151105   0.663   5.643   0.865 -1.1073 -1.4627 -0.9522
 8970TIP3    H251106   0.514   5.652   0.840 -1.0793  1.6031 -0.3829
 8971TIP3   OH251107   7.401   5.489   2.029 -0.3931 -0.7510 -0.2580
 8971TIP3    H151108   7.456   5.568   2.024  0.6449 -1.3705  0.9023
 8971TIP3    H251109   7.336   5.501   1.960  1.5216 -0.2134 -2.0791
 8972TIP3   OH251110   3.557   5.786   2.523  0.0263  0.2028 -0.1016
 8972TIP3    H151111   3.650   5.804   2.509  0.2703 -0.9185 -0.0310
 8972TIP3    H251112   3.524   5.767   2.435 -0.1671  0.7064 -0.1408
 8973TIP3   OH251113   2.564   4.355   2.377 -0.1163  0.1740  0.0207
 8973TIP3    H151114   2.635   4.349   2.313  0.7395 -2.1062  1.0891
 8973TIP3    H251115   2.484   4.340   2.327  0.1500  2.0208 -1.0627
 8974TIP3   OH251116   2.795   1.096   0.915  0.1808  0.0705 -0.0375
 8974TIP3    H151117   2.866   1.035   0.892  1.7311  1.8915 -0.3820
 8974TIP3    H251118   2.759   1.062   0.996  0.6415 -1.5693 -0.4811
 8975TIP3   OH251119   1.018   3.802   1.936 -0.0912 -0.2270 -0.1429
 8975TIP3    H151120   0.929   3.837   1.936  0.7192  2.0231 -1.0026
 8975TIP3    H251121   1.039   3.789   2.028 -0.1736  2.4647  0.3309
 8976TIP3   OH251122   4.518   4.672   2.119  0.5264  0.3614  0.0388
 8976TIP3    H151123   4.495   4.732   2.048 -1.1528 -0.6520 -0.3204
 8976TIP3    H251124   4.485   4.587   2.090  0.8911 -0.3133  1.5118
 8977TIP3   OH251125   1.880   7.677   1.331 -0.3679 -0.7795  0.0682
 8977TIP3    H151126   1.852   7.612   1.266 -0.6950  0.2519 -0.8600
 8977TIP3    H251127   1.925   7.626   1.398 -1.0710 -2.0194 -0.3681
 8978TIP3   OH251128   7.259   3.634   0.519 -0.6021 -0.3751  0.2092
 8978TIP3    H151129   7.173   3.661   0.487  0.0634  1.5266 -0.1255
 8978TIP3    H251130   7.253   3.642   0.614 -0.1536  2.0287  0.0863
 8979TIP3   OH251131   2.877   2.605   1.413 -0.2841 -0.2872  0.0393
 8979TIP3    H151132   2.903   2.653   1.334 -1.1669  0.6311  0.2940
 8979TIP3    H251133   2.791   2.640   1.436  0.1926 -0.1427  1.7305
 8980TIP3   OH251134   3.619   5.226   3.163  0.4429  0.5328  0.2706
 8980TIP3    H151135   3.639   5.241   3.256  0.3183 -0.8259  0.5391
 8980TIP3    H251136   3.632   5.132   3.151 -0.6039  0.5102 -0.8312
 8981TIP3   OH251137   0.636   1.213   1.774 -0.0905  0.3932  0.5190
 8981TIP3    H151138   0.673   1.229   1.687 -1.6751  0.1627 -0.2398
 8981TIP3    H251139   0.634   1.299   1.815 -0.7439  0.7680 -0.2734
 8982TIP3   OH251140   6.230   7.546   1.772  0.2654 -0.4465  0.2716
 8982TIP3    H151141   6.148   7.542   1.722  0.7023  1.2464 -0.6500
 8982TIP3    H251142   6.256   7.455   1.783 -0.3877 -0.9220 -1.7296
 8983TIP3   OH251143   1.820   5.890   2.996  0.5343  0.6681 -0.4706
 8983TIP3    H151144   1.757   5.832   3.039  1.1027  0.6161  0.3000
 8983TIP3    H251145   1.898   5.888   3.051  1.2092  0.7769 -1.3829
 8984TIP3   OH251146   5.653   3.054   2.424  0.2404  0.1894 -0.2037
 8984TIP3    H151147   5.655   3.010   2.339  1.1897 -1.7422  0.7386
 8984TIP3    H251148   5.731   3.020   2.470 -2.4598 -2.3531  3.0719
 8985TIP3   OH251149   2.277   3.200   1.117  0.1771  0.4832  0.1170
 8985TIP3    H151150   2.201   3.143   1.127  0.5093 -0.1440 -0.7576
 8985TIP3    H251151   2.282   3.249   1.199  0.4152 -1.4187  1.3008
 8986TIP3   OH251152   7.618   1.302   0.790 -0.7727 -0.1694  0.7567
 8986TIP3    H151153   7.593   1.234   0.853 -0.1405 -1.0706  0.0593
 8986TIP3    H251154   7.544   1.362   0.789 -1.4680 -1.0013  1.1831
 8987TIP3   OH251155   4.915   2.042   3.230  0.2854  0.9248  0.0760
 8987TIP3    H151156   4.822   2.061   3.247  0.4550 -0.7393  3.9341
 8987TIP3    H251157   4.914   1.958   3.184 -0.1797  0.2601  1.2491
 8988TIP3   OH251158   0.192   3.131   0.463 -0.2485  0.5720  0.2210
 8988TIP3    H151159   0.219   3.044   0.433 -1.9417 -0.3273  1.1287
 8988TIP3    H251160   0.206   3.188   0.388  0.8839 -0.4895 -0.3955
 8989TIP3   OH251161   1.155   1.976   2.387 -0.0101  0.2502 -0.1461
 8989TIP3    H151162   1.076   2.026   2.404  0.4282  0.8348  0.1998
 8989TIP3    H251163   1.185   2.005   2.301 -1.0796 -1.1990 -1.0664
 8990TIP3   OH251164   1.383   2.273   0.520 -0.4869  0.5785  0.4136
 8990TIP3    H151165   1.457   2.333   0.508 -0.6473  0.7500  0.2744
 8990TIP3    H251166   1.422   2.186   0.521 -0.3793  0.6043 -0.6094
 8991TIP3   OH251167   0.346   2.711   2.844  0.6234 -0.4771 -0.1770
 8991TIP3    H151168   0.364   2.668   2.761  1.3097  1.1681 -0.9359
 8991TIP3    H251169   0.338   2.804   2.821 -0.4517 -0.1418  1.4157
 8992TIP3   OH251170   0.377   6.255   1.888  0.5540 -0.3565  0.1556
 8992TIP3    H151171   0.437   6.330   1.886  0.4846 -0.3093 -1.0645
 8992TIP3    H251172   0.323   6.266   1.810 -0.0992 -1.1709  0.4809
 8993TIP3   OH251173   2.801   5.591   2.020 -0.0025 -0.2601 -0.3991
 8993TIP3    H151174   2.848   5.632   1.948 -0.0959  0.5887  0.0118
 8993TIP3    H251175   2.842   5.625   2.099 -1.0939  0.2740 -0.0356
 8994TIP3   OH251176   7.194   1.895   2.589  0.1559  0.4176 -0.7187
 8994TIP3    H151177   7.150   1.811   2.601  0.6092  0.2092 -0.4813
 8994TIP3    H251178   7.251   1.904   2.666 -1.2102  1.7850  0.1819
 8995TIP3   OH251179   1.807   5.259   2.630  0.5598 -0.1336 -0.1369
 8995TIP3    H151180   1.716   5.290   2.630  0.6046  0.1035 -2.1426
 8995TIP3    H251181   1.860   5.338   2.624  0.8797 -0.3119  0.2894
 8996TIP3   OH251182   5.071   4.592   1.543 -0.6024  0.6053 -0.1489
 8996TIP3    H151183   5.045   4.558   1.628  0.8124  0.8329  0.3925
 8996TIP3    H251184   5.060   4.518   1.483 -0.1990  0.0038  0.5036
 8997TIP3   OH251185   3.059   2.123   0.925  0.2655 -0.5476 -0.3883
 8997TIP3    H151186   3.037   2.141   0.834 -0.2015  1.0937  0.0111
 8997TIP3    H251187   3.147   2.161   0.937 -0.3447  0.7466  0.2302
 8998TIP3   OH251188   1.671   2.064   0.877 -1.1109  0.3387 -0.3530
 8998TIP3    H151189   1.663   2.076   0.971 -0.5620 -2.4505  0.1554
 8998TIP3    H251190   1.581   2.068   0.844 -1.3524  0.8744  0.3599
 8999TIP3   OH251191   3.942   3.382   2.141 -0.0096  0.2660  0.8611
 8999TIP3    H151192   3.877   3.425   2.086 -0.4794 -1.1371  0.2654
 8999TIP3    H251193   3.891   3.332   2.205  0.5233  1.1044  1.9665
 9000TIP3   OH251194   6.475   6.010   1.106  0.5935  0.2329 -0.5044
 9000TIP3    H151195   6.518   6.031   1.023 -0.4796  0.3217 -1.0579
 9000TIP3    H251196   6.452   5.917   1.098  0.4649  0.2492 -0.3221
 9001TIP3   OH251197   7.201   5.991   0.511  0.1886  0.5959  0.2175
 9001TIP3    H151198   7.136   5.988   0.581  0.6710 -0.1844  0.6344
 9001TIP3    H251199   7.186   5.911   0.461 -0.3240  1.2707 -0.7419
 9002TIP3   OH251200   5.514   7.249   2.286  0.2067 -0.2949 -0.0367
 9002TIP3    H151201   5.470   7.270   2.368  1.4902 -0.1299  0.6402
 9002TIP3    H251202   5.534   7.334   2.247  0.0854 -0.3657 -0.2535
 9003TIP3   OH251203   4.105   6.899   1.326 -0.4952  0.4619 -0.4805
 9003TIP3    H151204   4.010   6.894   1.333 -0.4953 -0.0483 -0.7777
 9003TIP3    H251205   4.123   6.880   1.234 -0.1275  0.9257 -0.5079
 9004TIP3   OH251206   7.109   7.292   2.307 -0.0641 -0.0407 -0.4252
 9004TIP3    H151207   7.140   7.306   2.218 -4.0254 -0.6488 -2.1091
 9004TIP3    H251208   7.059   7.371   2.328  1.9016  0.6935  1.9037
 9005TIP3   OH251209   6.566   3.430   1.974  0.1012  0.5252  0.6591
 9005TIP3    H151210   6.553   3.481   1.894  0.6172 -1.2489 -0.6441
 9005TIP3    H251211   6.659   3.441   1.995  1.2206 -2.5648 -1.7705
 9006TIP3   OH251212   7.237   5.051   0.771  0.4493  0.1270 -0.1722
 9006TIP3    H151213   7.328   5.035   0.797 -0.0261 -1.5742  0.5803
 9006TIP3    H251214   7.215   4.978   0.714 -1.2471 -1.0035  1.8142
 9007TIP3   OH251215   0.230   1.399   2.902  0.7173 -0.1103 -0.1131
 9007TIP3    H151216   0.186   1.314   2.900  1.0321 -0.2841  0.3318
 9007TIP3    H251217   0.212   1.433   2.990 -0.7062  0.9775 -0.7776
 9008TIP3   OH251218   4.834   3.465   1.978 -0.1324 -0.5179  0.2331
 9008TIP3    H151219   4.818   3.379   1.939 -0.0641 -0.2738 -0.3456
 9008TIP3    H251220   4.751   3.489   2.019 -0.8515  0.0733 -1.4503
 9009TIP3   OH251221   5.476   0.227   1.263 -0.4142  0.4781  0.2179
 9009TIP3    H151222   5.386   0.259   1.271 -0.6289  0.3445 -1.3798
 9009TIP3    H251223   5.468   0.132   1.254 -0.0375  0.3627  1.0119
 9010TIP3   OH251224   1.465   6.936   3.277  0.2175  0.6515 -0.4264
 9010TIP3    H151225   1.443   6.848   3.247  1.2975  0.1474  0.1778
 9010TIP3    H251226   1.561   6.937   3.280  0.2054  1.6333  0.1885
 9011TIP3   OH251227   0.626   4.138   1.984 -0.4764 -0.2015  0.0038
 9011TIP3    H151228   0.584   4.099   2.060  1.6166 -1.6715  0.5128
 9011TIP3    H251229   0.671   4.215   2.018  0.8558 -1.1226  0.4271
 9012TIP3   OH251230   4.039   5.028   2.017 -0.2608  0.2314  0.3451
 9012TIP3    H151231   4.116   5.039   1.962 -0.9518  2.5959 -0.2531
 9012TIP3    H251232   3.966   5.023   1.956 -0.9088  1.6063  0.9657
 9013TIP3   OH251233   4.590   2.538   2.162  0.4271  0.4142 -0.6714
 9013TIP3    H151234   4.500   2.556   2.135  0.2631  1.0825  0.2938
 9013TIP3    H251235   4.625   2.623   2.187  0.4107 -0.2134  1.6832
 9014TIP3   OH251236   3.977   3.558   1.393  0.4559 -0.0962 -0.2267
 9014TIP3    H151237   4.015   3.635   1.435 -2.1969  0.4067  1.5271
 9014TIP3    H251238   3.923   3.594   1.322 -1.2816 -0.1765  0.9839
 9015TIP3   OH251239   0.964   0.643   1.804 -0.2528 -0.4013 -0.2408
 9015TIP3    H151240   0.925   0.575   1.859  0.0214 -0.7229 -0.4377
 9015TIP3    H251241   0.959   0.608   1.715  0.2531 -0.3409 -0.2955
 9016TIP3   OH251242   6.065   6.839   0.961 -0.5410 -0.0291  0.0775
 9016TIP3    H151243   6.160   6.853   0.967 -0.8048  1.9260  0.6524
 9016TIP3    H251244   6.032   6.922   0.926 -2.1207 -0.3545  0.7470
 9017TIP3   OH251245   1.113   2.372   1.093  0.4274 -0.1935  0.0374
 9017TIP3    H151246   1.091   2.457   1.130  0.2889  0.3590 -1.2627
 9017TIP3    H251247   1.049   2.359   1.022  1.3280 -0.7361 -0.6954
 9018TIP3   OH251248   1.631   2.832   1.501 -0.2542  0.5475  0.0364
 9018TIP3    H151249   1.651   2.781   1.422 -0.7710  1.7842 -0.9212
 9018TIP3    H251250   1.635   2.923   1.472  0.4369  1.0630  1.6624
 9019TIP3   OH251251   2.475   2.025   0.698 -0.3625  0.4005  0.0585
 9019TIP3    H151252   2.420   2.089   0.653  0.5968 -0.2484 -2.2050
 9019TIP3    H251253   2.433   1.941   0.680 -0.3285  0.1792  0.9923
 9020TIP3   OH251254   3.757   0.609   2.571  0.2314  0.2687 -0.1614
 9020TIP3    H151255   3.714   0.683   2.527 -0.7816 -0.2758 -0.1268
 9020TIP3    H251256   3.695   0.582   2.638  0.4283 -0.8289 -0.4019
 9021TIP3   OH251257   0.006   1.172   2.439  0.6207 -0.3205 -0.3570
 9021TIP3    H151258   0.048   1.222   2.509  1.7347 -0.4551 -0.8966
 9021TIP3    H251259   0.024   1.080   2.460 -0.3635 -0.4504 -0.0204
 9022TIP3   OH251260   6.261   2.089   2.513 -0.2926  0.5760  0.3844
 9022TIP3    H151261   6.295   2.001   2.529  1.8271  1.3470  0.4698
 9022TIP3    H251262   6.256   2.129   2.599 -0.4647  0.8040  0.2700
 9023TIP3   OH251263   5.475   2.257   2.176  1.0494  0.1856  0.1690
 9023TIP3    H151264   5.483   2.352   2.190  2.2261 -0.0216  1.0954
 9023TIP3    H251265   5.490   2.246   2.082  0.6255  0.9448  0.0024
 9024TIP3   OH251266   3.428   6.303   2.290  0.4226 -0.3509  0.0936
 9024TIP3    H151267   3.465   6.383   2.251  1.2860 -1.3738 -1.3093
 9024TIP3    H251268   3.469   6.297   2.376 -1.3346  1.8461  1.1643
 9025TIP3   OH251269   3.115   1.296   2.514 -0.4322 -0.0631 -1.1144
 9025TIP3    H151270   3.148   1.296   2.604 -2.9286  1.4660 -0.0977
 9025TIP3    H251271   3.190   1.323   2.461  1.0079 -0.6688  0.5269
 9026TIP3   OH251272   1.743   6.467   2.572  0.2367 -0.4715 -0.9817
 9026TIP3    H151273   1.663   6.419   2.550 -0.6118  0.8904 -0.9717
 9026TIP3    H251274   1.784   6.414   2.641 -0.6293 -1.2112 -1.0125
 9027TIP3   OH251275   5.314   3.468   2.236  0.0291 -0.3844 -0.0030
 9027TIP3    H151276   5.232   3.447   2.192 -1.4366  0.5394  2.1334
 9027TIP3    H251277   5.311   3.418   2.318  1.3211  0.1540  0.4040
 9028TIP3   OH251278   5.856   0.354   1.911 -0.7739  0.3236 -0.0303
 9028TIP3    H151279   5.930   0.393   1.864 -0.7933 -0.3711 -0.6518
 9028TIP3    H251280   5.833   0.277   1.860 -1.2216 -0.0880  0.7695
 9029TIP3   OH251281   6.466   3.048   2.970 -0.5249  0.4905 -0.4567
 9029TIP3    H151282   6.536   3.067   3.032 -0.4480 -0.0160 -0.3894
 9029TIP3    H251283   6.468   2.953   2.958  0.0595  0.6547 -1.9286
 9030TIP3   OH251284   1.613   0.243   1.951  0.1041 -0.1056 -0.1239
 9030TIP3    H151285   1.561   0.164   1.958 -0.9967  0.5902 -0.2323
 9030TIP3    H251286   1.631   0.268   2.041  1.6563 -1.2190 -0.0844
 9031TIP3   OH251287   2.072   0.066   0.773 -0.4246 -0.0301  0.3142
 9031TIP3    H151288   2.070   0.063   0.868  0.5009 -0.1876  0.3368
 9031TIP3    H251289   2.103   0.154   0.751  0.3736 -0.3343  0.1877
 9032TIP3   OH251290   5.536   4.403   1.670 -0.3866 -0.4886  0.2772
 9032TIP3    H151291   5.520   4.485   1.624 -0.8702 -0.1501  1.0220
 9032TIP3    H251292   5.629   4.385   1.656 -0.5942 -0.5773 -1.0894
 9033TIP3   OH251293   7.423   0.196   1.928  0.3141  0.2877 -0.2411
 9033TIP3    H151294   7.353   0.254   1.898 -0.2184 -0.7270 -1.0186
 9033TIP3    H251295   7.405   0.183   2.022  1.1588  2.3217  0.2614
 9034TIP3   OH251296   4.156   0.330   2.083 -0.0652 -0.2639 -0.2664
 9034TIP3    H151297   4.247   0.357   2.099  0.2626 -1.4600 -0.0596
 9034TIP3    H251298   4.121   0.315   2.171 -0.3390 -0.2326 -0.3709
 9035TIP3   OH251299   4.507   6.417   3.116 -0.3239  0.5417  0.1304
 9035TIP3    H151300   4.571   6.446   3.051 -0.7923 -0.3136 -0.7314
 9035TIP3    H251301   4.466   6.498   3.147  1.6182  1.1758  1.2031
 9036TIP3   OH251302   1.287   2.336   1.867 -0.0751  0.4055  0.4700
 9036TIP3    H151303   1.373   2.324   1.907  0.2189 -0.2587 -0.3267
 9036TIP3    H251304   1.279   2.430   1.853  0.0376  0.5955  1.5823
 9037TIP3   OH251305   0.694   3.656   1.962 -0.1320 -0.2535 -0.3110
 9037TIP3    H151306   0.656   3.674   2.048  3.0693 -0.1432  1.2335
 9037TIP3    H251307   0.686   3.739   1.915 -0.4145  0.2156  0.5370
 9038TIP3   OH251308   6.320   1.207   1.223  0.1262 -0.3179 -0.6729
 9038TIP3    H151309   6.310   1.232   1.131  0.6335  1.3137 -0.3185
 9038TIP3    H251310   6.399   1.252   1.252 -1.8571  2.1629  1.4605
 9039TIP3   OH251311   3.596   0.049   1.044 -0.1659 -0.5927 -0.0098
 9039TIP3    H151312   3.686   0.042   1.013 -0.9814 -1.8804 -2.3296
 9039TIP3    H251313   3.564   0.130   1.005 -0.3794 -0.7885 -0.2438
 9040TIP3   OH251314   2.535   5.170   1.963 -0.7813 -0.1865 -0.7864
 9040TIP3    H151315   2.606   5.232   1.980 -0.0135 -1.4177  0.6985
 9040TIP3    H251316   2.572   5.109   1.899 -0.8971 -0.1914 -0.8486
 9041TIP3   OH251317   5.369   4.413   2.770 -0.0562  0.5085 -0.1986
 9041TIP3    H151318   5.310   4.338   2.780 -0.0559  0.5132 -0.1600
 9041TIP3    H251319   5.314   4.489   2.789 -0.6616  0.7065 -2.4957
 9042TIP3   OH251320   7.668   0.936   1.758 -0.3572  0.3856 -0.2577
 9042TIP3    H151321   7.600   0.890   1.807  0.2953  1.6629  2.0095
 9042TIP3    H251322   7.714   0.868   1.709  0.1993 -1.3831  2.4914
 9043TIP3   OH251323   6.745   4.225   3.394  0.5503  0.0361 -0.0392
 9043TIP3    H151324   6.747   4.132   3.372  0.1501 -0.2352  1.0062
 9043TIP3    H251325   6.762   4.270   3.312  4.7481 -0.9849  0.0841
 9044TIP3   OH251326   1.311   3.031   2.273  0.0280  0.3499 -0.0020
 9044TIP3    H151327   1.347   2.957   2.322  0.5420 -0.4802 -1.5595
 9044TIP3    H251328   1.353   3.108   2.311  1.2067 -0.3506  0.1741
 9045TIP3   OH251329   7.454   1.561   0.750  0.2376  0.1316  0.2135
 9045TIP3    H151330   7.414   1.647   0.737  1.9823  0.8259 -0.8830
 9045TIP3    H251331   7.546   1.580   0.767  0.6411 -1.5212  0.0029
 9046TIP3   OH251332   2.163   4.242   2.934 -0.2950 -0.0763 -0.1166
 9046TIP3    H151333   2.183   4.153   2.907 -1.8439 -0.2705 -0.7130
 9046TIP3    H251334   2.157   4.237   3.030  0.8096 -0.3319 -0.0440
 9047TIP3   OH251335   2.238   2.768   1.983 -0.5036 -0.2898  0.0611
 9047TIP3    H151336   2.297   2.695   1.997  0.5741  0.4889 -0.3046
 9047TIP3    H251337   2.203   2.755   1.894  0.1363 -0.0596 -0.2285
 9048TIP3   OH251338   5.950   4.092   0.636  0.0247  0.5778 -0.4564
 9048TIP3    H151339   5.866   4.056   0.609 -0.8622  2.7192 -0.7182
 9048TIP3    H251340   5.937   4.118   0.727 -0.0901  2.1811 -0.8969
 9049TIP3   OH251341   1.549   1.708   0.978 -0.0366 -0.2386 -0.0257
 9049TIP3    H151342   1.539   1.614   0.967 -0.5782 -0.0510 -1.4034
 9049TIP3    H251343   1.607   1.735   0.906  0.1524  0.4772  0.3789
 9050TIP3   OH251344   2.146   4.275   1.876  0.5458 -0.1571  0.2440
 9050TIP3    H151345   2.150   4.354   1.929 -1.0343  2.1478 -2.7575
 9050TIP3    H251346   2.097   4.213   1.929  0.5973  1.3430  2.1475
 9051TIP3   OH251347   5.626   1.693   2.897  0.6960 -0.2742  0.2839
 9051TIP3    H151348   5.621   1.753   2.971 -3.6096 -1.6290  1.4173
 9051TIP3    H251349   5.575   1.737   2.828  0.5441 -1.0585 -0.1165
 9052TIP3   OH251350   2.260   2.183   0.596  0.2802 -0.4066  0.2098
 9052TIP3    H151351   2.237   2.208   0.507 -1.5404 -2.4911  0.0115
 9052TIP3    H251352   2.247   2.263   0.648 -0.7018  0.2953 -1.0737
 9053TIP3   OH251353   4.536   5.772   1.081 -0.2977  0.1566  0.3048
 9053TIP3    H151354   4.578   5.849   1.119 -0.5452  1.3531 -1.7145
 9053TIP3    H251355   4.574   5.764   0.994 -0.1888 -2.1185  0.4983
 9054TIP3   OH251356   2.571   0.631   2.423 -0.0269  0.1507  0.1565
 9054TIP3    H151357   2.622   0.665   2.349 -0.8177  1.5473  0.2162
 9054TIP3    H251358   2.505   0.575   2.383 -1.0922  1.7009 -0.3286
 9055TIP3   OH251359   3.740   1.376   0.983 -0.4312 -0.2573 -1.0302
 9055TIP3    H151360   3.796   1.304   0.953  0.1717  0.4028 -1.5067
 9055TIP3    H251361   3.651   1.343   0.971 -0.1823 -1.6457  0.4910
 9056TIP3   OH251362   0.471   2.299   2.413  0.2688  0.2229  0.1246
 9056TIP3    H151363   0.432   2.346   2.339  0.1197 -0.6899 -0.3832
 9056TIP3    H251364   0.402   2.299   2.479 -0.2420 -0.4992 -0.3961
 9057TIP3   OH251365   1.481   0.036   2.054  0.3258  0.0754  0.1618
 9057TIP3    H151366   1.402  -0.013   2.032  0.0365  1.2166 -1.5172
 9057TIP3    H251367   1.538  -0.029   2.095  0.7375 -2.2658 -3.6643
 9058TIP3   OH251368   1.982   4.105   0.680 -0.1857  0.0034  0.1729
 9058TIP3    H151369   1.929   4.039   0.725  1.5160 -1.7947 -0.3668
 9058TIP3    H251370   2.004   4.065   0.596  0.0189  1.7154 -0.6276
 9059TIP3   OH251371   1.962   5.330   2.226  0.0025  0.2176  0.3410
 9059TIP3    H151372   1.965   5.425   2.218  0.4164  0.2349  0.6469
 9059TIP3    H251373   1.869   5.308   2.222 -0.0832  0.6205  0.1170
 9060TIP3   OH251374   1.774   5.537   1.630  0.3247  0.1238  0.0902
 9060TIP3    H151375   1.844   5.541   1.565  0.7953 -2.4577  0.3300
 9060TIP3    H251376   1.776   5.622   1.673  0.6894  1.5291 -2.5321
 9061TIP3   OH251377   2.992   7.060   2.312  0.4655 -0.0109 -0.4743
 9061TIP3    H151378   3.001   7.077   2.219  2.2102 -1.8994 -0.7044
 9061TIP3    H251379   3.033   6.975   2.326  0.1877  0.1763  2.0186
 9062TIP3   OH251380   1.242   1.043   1.040  0.0371 -0.2946 -0.3292
 9062TIP3    H151381   1.272   1.133   1.031 -0.1667 -0.3241 -1.4163
 9062TIP3    H251382   1.152   1.051   1.073  0.0359 -0.0925 -0.3794
 9063TIP3   OH251383   3.515   6.243   1.509  0.3484 -0.1456  0.2696
 9063TIP3    H151384   3.516   6.338   1.522 -1.3754  0.2379 -1.8753
 9063TIP3    H251385   3.482   6.208   1.593 -2.1159  1.4526  0.0689
 9064TIP3   OH251386   0.887   5.219   2.044 -0.3813  0.4201 -0.0631
 9064TIP3    H151387   0.865   5.266   2.125  1.8415 -0.2403  1.0157
 9064TIP3    H251388   0.844   5.134   2.054  1.4418 -0.4108  1.4484
 9065TIP3   OH251389   1.436   5.635   2.158 -0.0607 -0.1542 -0.1892
 9065TIP3    H151390   1.463   5.702   2.096 -1.3598 -0.7907 -1.4848
 9065TIP3    H251391   1.377   5.680   2.218 -1.4685 -0.2325 -1.4592
 9066TIP3   OH251392   0.225   6.792   0.635 -0.2916  0.0609  0.8902
 9066TIP3    H151393   0.212   6.697   0.635  0.7880 -0.1166  2.4774
 9066TIP3    H251394   0.139   6.828   0.659 -1.1743 -0.3846 -1.3996
 9067TIP3   OH251395   0.801   4.056   3.614  0.6116 -0.1661  0.4676
 9067TIP3    H151396   0.742   4.003   3.667  0.7376 -1.2817 -0.4755
 9067TIP3    H251397   0.888   4.018   3.630  0.7909  0.1554  0.2655
 9068TIP3   OH251398   7.438   4.629   1.414  0.4916 -0.4637 -0.6265
 9068TIP3    H151399   7.483   4.688   1.354  0.3081 -0.5808 -0.8853
 9068TIP3    H251400   7.484   4.638   1.497  0.5452 -0.0561 -0.6989
 9069TIP3   OH251401   0.007   1.975   2.599 -0.1458 -0.3385 -0.0276
 9069TIP3    H151402  -0.085   1.978   2.570  0.5496 -0.3677 -2.4743
 9069TIP3    H251403   0.053   2.031   2.537  1.9321 -2.7287 -0.8157
 9070TIP3   OH251404   0.573   1.301   0.644  0.1412 -0.5638 -0.7181
 9070TIP3    H151405   0.597   1.235   0.710 -0.6833 -1.4648 -1.2874
 9070TIP3    H251406   0.639   1.369   0.653  0.9743 -1.4323 -0.0516
 9071TIP3   OH251407   3.463   3.637   2.048  0.4944  0.3473 -0.0330
 9071TIP3    H151408   3.435   3.726   2.024 -1.8077  0.0254  1.2530
 9071TIP3    H251409   3.554   3.649   2.077 -0.1142  2.5391  1.2626
 9072TIP3   OH251410   6.358   6.263   0.851 -0.0936  0.0704 -0.1797
 9072TIP3    H151411   6.421   6.191   0.852  0.1802  0.2789 -1.0860
 9072TIP3    H251412   6.375   6.308   0.768 -2.7870 -1.0636 -1.4850
 9073TIP3   OH251413   2.208   2.604   0.728  0.0488  0.0790 -0.3952
 9073TIP3    H151414   2.117   2.595   0.757 -0.6594 -0.2562 -2.5607
 9073TIP3    H251415   2.219   2.698   0.711  0.8194  0.4609  1.8614
 9074TIP3   OH251416   1.311   3.154   0.653  0.3310 -0.0326 -0.6074
 9074TIP3    H151417   1.241   3.217   0.635  1.3934  1.5579  0.5354
 9074TIP3    H251418   1.309   3.143   0.748  1.5919  0.0207 -0.5591
 9075TIP3   OH251419   0.278   3.618   2.319 -0.0448 -0.2699  0.0537
 9075TIP3    H151420   0.236   3.539   2.285 -0.5971  1.4502 -3.7756
 9075TIP3    H251421   0.206   3.675   2.345  0.3367 -0.6777  2.2164
 9076TIP3   OH251422   4.477   0.545   1.741 -0.4523  0.0113 -0.4447
 9076TIP3    H151423   4.546   0.579   1.685 -0.4528 -0.7074 -0.8873
 9076TIP3    H251424   4.493   0.585   1.826  0.5372 -0.1777 -0.5361
 9077TIP3   OH251425   1.484   3.868   0.834  0.3792  0.4521  0.1596
 9077TIP3    H151426   1.497   3.776   0.859 -3.0882 -0.4934 -0.9558
 9077TIP3    H251427   1.467   3.913   0.917 -3.0400 -1.0856  0.4927
 9078TIP3   OH251428   0.304   4.308   2.756  0.4189  0.1008  0.0282
 9078TIP3    H151429   0.316   4.384   2.700  0.8027 -1.2312 -1.7749
 9078TIP3    H251430   0.359   4.326   2.833 -1.5541  2.7922  0.9402
 9079TIP3   OH251431   1.733   7.150   1.050  0.6615 -0.0275  0.5404
 9079TIP3    H151432   1.682   7.081   1.009  0.1832  0.8493 -0.3928
 9079TIP3    H251433   1.707   7.148   1.142  0.8586 -1.2484  0.5865
 9080TIP3   OH251434   6.938   0.380   1.652  0.3322  0.0777 -0.2122
 9080TIP3    H151435   7.009   0.408   1.595  0.3072 -0.6070 -0.5875
 9080TIP3    H251436   6.954   0.287   1.667  0.3437  0.2411  0.9095
 9081TIP3   OH251437   7.326   2.447   0.672 -0.0383  0.0640 -0.0759
 9081TIP3    H151438   7.396   2.447   0.737  0.3233 -0.8571 -0.4548
 9081TIP3    H251439   7.301   2.355   0.664 -1.5557  0.4002  0.3265
 9082TIP3   OH251440   1.345   7.573   2.546 -0.0369 -0.0835 -0.3455
 9082TIP3    H151441   1.358   7.479   2.554  1.6106  0.1736  0.3521
 9082TIP3    H251442   1.428   7.612   2.573 -0.6265  1.5751 -0.7565
 9083TIP3   OH251443   4.468   5.059   2.197  0.3242  0.0103  0.1195
 9083TIP3    H151444   4.427   5.133   2.153  1.0858  0.1947 -0.2913
 9083TIP3    H251445   4.511   5.010   2.127  1.0650 -0.0113  0.5826
 9084TIP3   OH251446   3.584   0.104   1.594  0.4947  0.0527  0.0322
 9084TIP3    H151447   3.662   0.141   1.634  0.6623  0.2906 -0.5020
 9084TIP3    H251448   3.606   0.097   1.501 -0.4351  0.9613 -0.2774
 9085TIP3   OH251449   7.176   2.612   1.813 -0.7461  0.2669 -0.0703
 9085TIP3    H151450   7.193   2.559   1.735  1.0556  0.5391  0.0835
 9085TIP3    H251451   7.173   2.702   1.780  2.3408  0.6287  0.3812
 9086TIP3   OH251452   6.892   0.835   2.030 -1.1717  0.0235  0.2357
 9086TIP3    H151453   6.861   0.908   1.976  2.2314  1.5081 -0.0094
 9086TIP3    H251454   6.938   0.778   1.969 -0.8609 -0.5139  0.9586
 9087TIP3   OH251455   3.902   4.761   1.684 -0.7590  0.6003 -0.1584
 9087TIP3    H151456   3.979   4.744   1.630 -0.9929 -1.5942  0.0851
 9087TIP3    H251457   3.828   4.756   1.622 -0.7770  2.2496 -0.3138
 9088TIP3   OH251458   1.333   1.891   1.224 -0.6395  0.6445 -0.4321
 9088TIP3    H151459   1.266   1.897   1.156 -1.0040 -1.6516 -0.3585
 9088TIP3    H251460   1.307   1.815   1.276  1.4050  0.4012  0.3016
 9089TIP3   OH251461   2.013   7.643   2.426  0.2841 -0.7185 -0.4431
 9089TIP3    H151462   2.061   7.653   2.508  1.2161  0.0522 -1.0503
 9089TIP3    H251463   1.948   7.714   2.427 -0.5049 -1.4303  0.1370
 9090TIP3   OH251464   4.038   7.391   1.216 -0.1792  0.0372  0.4908
 9090TIP3    H151465   4.024   7.308   1.261 -1.5551 -0.9779 -1.6613
 9090TIP3    H251466   4.118   7.426   1.254  0.0562 -1.9284  1.9276
 9091TIP3   OH251467   4.591   5.693   1.591  0.1343 -0.0349 -0.1760
 9091TIP3    H151468   4.533   5.660   1.659 -0.3202  0.5279 -0.2793
 9091TIP3    H251469   4.653   5.621   1.574 -2.5634 -2.0426 -2.4506
 9092TIP3   OH251470   6.243   6.144   1.660  0.2102  0.0104 -0.0985
 9092TIP3    H151471   6.221   6.222   1.609 -0.6825 -0.5026 -0.5144
 9092TIP3    H251472   6.210   6.071   1.608  1.1869 -0.6670  0.2031
 9093TIP3   OH251473   6.964   4.684   1.579 -0.0334  0.0938  0.2637
 9093TIP3    H151474   6.929   4.773   1.581  1.0793  0.5705 -0.2769
 9093TIP3    H251475   7.030   4.686   1.509  1.4691 -0.5743  1.5889
 9094TIP3   OH251476   7.195   2.272   0.940  0.3815 -0.0412 -0.6776
 9094TIP3    H151477   7.100   2.259   0.938  0.4638 -1.0574  0.6757
 9094TIP3    H251478   7.206   2.366   0.950 -0.6373 -0.1582  2.8380
 9095TIP3   OH251479   3.668   4.766   1.546 -0.1591  0.3614  0.1818
 9095TIP3    H151480   3.573   4.761   1.550 -0.1640 -0.4411 -0.5749
 9095TIP3    H251481   3.686   4.835   1.482 -0.2486 -0.0244 -0.2663
 9096TIP3   OH251482   3.397   2.135   1.921 -0.4917 -0.3079 -0.1632
 9096TIP3    H151483   3.329   2.199   1.941 -0.3130 -0.3089  0.4539
 9096TIP3    H251484   3.474   2.187   1.897  0.5701 -0.1370  3.1001
 9097TIP3   OH251485   4.164   5.218   1.654 -0.3685  0.2725  0.6257
 9097TIP3    H151486   4.110   5.162   1.598  1.0242 -0.4901 -0.0120
 9097TIP3    H251487   4.216   5.270   1.593 -0.0400  0.6359  1.2067
 9098TIP3   OH251488   3.303   0.726   2.400 -0.0819  0.0229  0.6628
 9098TIP3    H151489   3.349   0.643   2.416  0.2906  0.1435  0.2325
 9098TIP3    H251490   3.210   0.701   2.398  0.0529 -0.4698  0.0567
 9099TIP3   OH251491   5.779   7.178   1.312  0.6556  0.1061  0.0776
 9099TIP3    H151492   5.773   7.258   1.260  1.7396  1.1858  1.5362
 9099TIP3    H251493   5.856   7.133   1.277 -1.2158 -1.5369 -2.2736
 9100TIP3   OH251494   4.186   0.644   0.758  0.6440 -0.6822 -0.7414
 9100TIP3    H151495   4.159   0.724   0.804 -0.1630 -2.3585  1.9858
 9100TIP3    H251496   4.278   0.659   0.737  0.5763  0.8827 -0.0948
 9101TIP3   OH251497   2.587   3.388   2.181 -0.4012 -0.6518 -0.1232
 9101TIP3    H151498   2.681   3.376   2.172 -0.1282  1.5673 -0.7365
 9101TIP3    H251499   2.559   3.315   2.237  1.9345 -0.4227  1.4995
 9102TIP3   OH251500   6.176   6.623   0.833  0.1001  0.3062  0.2940
 9102TIP3    H151501   6.123   6.685   0.883  0.4009 -0.1191  1.1608
 9102TIP3    H251502   6.217   6.568   0.899  2.3692  1.2085 -0.2432
 9103TIP3   OH251503   1.702   6.510   1.237 -0.6364 -0.2457 -0.7487
 9103TIP3    H151504   1.720   6.570   1.165 -1.7341  0.7972 -0.1833
 9103TIP3    H251505   1.612   6.528   1.262 -1.3804 -2.8787 -1.2255
 9104TIP3   OH251506   2.714   4.356   0.944 -0.0042 -0.4947  0.7599
 9104TIP3    H151507   2.659   4.305   0.885  0.1866 -1.3798  1.3413
 9104TIP3    H251508   2.657   4.377   1.018 -0.3761  0.9902  0.1043
 9105TIP3   OH251509   1.843   1.339   3.445  0.4111  0.0951  0.6705
 9105TIP3    H151510   1.813   1.268   3.389  1.5273 -0.3506  0.6028
 9105TIP3    H251511   1.916   1.378   3.395 -0.1550  1.2525  0.7260
 9106TIP3   OH251512   3.857   7.338   2.730 -0.4439  0.4413  0.3456
 9106TIP3    H151513   3.775   7.388   2.732 -1.8916 -1.7674  0.2993
 9106TIP3    H251514   3.852   7.280   2.806  0.1087 -1.1425 -0.7802
 9107TIP3   OH251515   1.428   6.840   1.709  0.0226  0.2271  0.3360
 9107TIP3    H151516   1.394   6.769   1.654 -0.6361 -0.6228  1.7933
 9107TIP3    H251517   1.523   6.832   1.702 -0.0360  0.5715 -1.2048
 9108TIP3   OH251518   0.170   5.255   0.545 -0.5043 -0.0451  0.1907
 9108TIP3    H151519   0.218   5.324   0.500  0.6224 -1.1325 -0.3562
 9108TIP3    H251520   0.078   5.270   0.521 -0.3382  1.4459  0.3868
 9109TIP3   OH251521   6.059   3.684   0.875 -0.0890  0.4327 -0.0612
 9109TIP3    H151522   5.984   3.641   0.833  1.6340 -2.5313 -0.3896
 9109TIP3    H251523   6.104   3.729   0.803  1.0902 -1.9605 -0.9241
 9110TIP3   OH251524   2.382   3.075   0.625 -0.2274  0.2792  0.3766
 9110TIP3    H151525   2.373   3.126   0.706  1.7419  0.5918  0.4380
 9110TIP3    H251526   2.467   3.100   0.589 -0.2171 -1.2666 -0.8083
 9111TIP3   OH251527   2.805   2.469   0.917 -0.2512 -0.4155  0.5483
 9111TIP3    H151528   2.891   2.466   0.875 -0.1131  1.3390  0.6052
 9111TIP3    H251529   2.746   2.426   0.856  0.2768  0.4283 -0.5922
 9112TIP3   OH251530   5.364   2.814   0.799  0.2849  0.5247 -0.0682
 9112TIP3    H151531   5.298   2.777   0.741 -0.4801  1.3740  0.2444
 9112TIP3    H251532   5.408   2.738   0.838 -1.3077 -0.0536  0.6446
 9113TIP3   OH251533   4.243   3.172   1.754  0.3957  0.0493  0.0634
 9113TIP3    H151534   4.305   3.205   1.689  1.1418 -1.8899 -0.2620
 9113TIP3    H251535   4.227   3.081   1.729 -1.8804  0.2198  0.7031
 9114TIP3   OH251536   0.671   3.947   0.734 -0.1841  0.1570 -0.1662
 9114TIP3    H151537   0.581   3.957   0.766  0.2248 -0.8192  1.4458
 9114TIP3    H251538   0.714   3.893   0.801  1.5213  0.3378 -1.0548
 9115TIP3   OH251539   6.547   7.278   1.573  0.4075 -0.2876  0.0763
 9115TIP3    H151540   6.582   7.270   1.485 -1.3609 -0.2121 -0.6706
 9115TIP3    H251541   6.521   7.189   1.597 -0.1203 -0.1384  0.0714
 9116TIP3   OH251542   6.707   3.056   3.107 -0.0649  0.8009 -0.3238
 9116TIP3    H151543   6.792   3.098   3.110  0.4891 -0.2594 -0.6827
 9116TIP3    H251544   6.721   2.976   3.056 -1.0636  0.1330  0.4047
 9117TIP3   OH251545   3.728   7.273   3.317  0.0889 -0.0583  0.6573
 9117TIP3    H151546   3.678   7.354   3.325 -1.1588 -0.5313 -1.4740
 9117TIP3    H251547   3.801   7.296   3.259 -0.9207 -0.6774 -0.9110
 9118TIP3   OH251548   5.139   3.428   2.018 -0.8994 -0.4492 -0.0910
 9118TIP3    H151549   5.119   3.521   2.006 -0.8743  0.0969  3.0931
 9118TIP3    H251550   5.054   3.384   2.009 -1.0932  0.0123 -0.5848
 9119TIP3   OH251551   5.564   3.043   0.813 -0.1433  0.2299 -0.6104
 9119TIP3    H151552   5.515   2.968   0.779 -0.7324 -0.0213  0.7101
 9119TIP3    H251553   5.655   3.027   0.787 -0.6224  0.3283 -2.4657
 9120TIP3   OH251554   2.680   0.984   1.552  0.3289 -0.4336  0.7549
 9120TIP3    H151555   2.638   0.974   1.638  0.5344 -0.8109  0.8162
 9120TIP3    H251556   2.750   0.918   1.552  0.5160 -0.2385  0.4095
 9121TIP3   OH251557   0.021   1.583   0.869 -0.1754 -0.0293  0.4729
 9121TIP3    H151558   0.112   1.607   0.849 -0.5445  1.3448  0.3722
 9121TIP3    H251559   0.029   1.506   0.925  1.0530  0.0895  0.4948
 9122TIP3   OH251560   0.748   3.920   1.890  0.1585 -0.5768  0.0030
 9122TIP3    H151561   0.718   3.998   1.936 -1.5172 -1.2197  0.0663
 9122TIP3    H251562   0.681   3.904   1.823  1.5956 -0.7153 -1.4652
 9123TIP3   OH251563   6.053   3.100   1.711 -0.4520 -0.1067 -0.2731
 9123TIP3    H151564   6.120   3.144   1.764  0.7063 -0.8694 -1.0803
 9123TIP3    H251565   6.079   3.008   1.712 -1.6762 -0.4665 -0.3493
 9124TIP3   OH251566   5.707   7.488   2.510  0.8365  0.0518  0.7835
 9124TIP3    H151567   5.630   7.475   2.566  0.7035  1.8617  1.0911
 9124TIP3    H251568   5.752   7.563   2.548  1.2822  0.7193 -0.9639
 9125TIP3   OH251569   2.258   0.299   1.587 -0.5120 -0.3850  0.4607
 9125TIP3    H151570   2.305   0.346   1.656  1.3074 -0.7601 -0.4811
 9125TIP3    H251571   2.238   0.366   1.522 -0.1258 -0.4578  0.2657
 9126TIP3   OH251572   2.391   1.645   1.745 -0.1594 -0.2556 -0.1205
 9126TIP3    H151573   2.438   1.667   1.825 -0.0389 -0.7357 -0.0557
 9126TIP3    H251574   2.378   1.550   1.750 -1.1688 -0.1262 -0.1257
 9127TIP3   OH251575   7.393   0.103   2.187 -0.7826 -0.6612 -0.1642
 9127TIP3    H151576   7.480   0.112   2.226 -1.2764 -1.2864  1.1320
 9127TIP3    H251577   7.335   0.153   2.244 -1.4755 -1.3588 -0.2286
 9128TIP3   OH251578   0.568   0.192   2.728 -0.5479  0.5859  0.0026
 9128TIP3    H151579   0.618   0.125   2.775  0.5427  1.2504 -0.1738
 9128TIP3    H251580   0.597   0.275   2.767 -1.8318  0.9747  0.1818
 9129TIP3   OH251581   4.466   3.298   1.019 -0.4802 -0.6164  0.4041
 9129TIP3    H151582   4.536   3.312   1.084 -1.5470 -0.9752  1.6854
 9129TIP3    H251583   4.451   3.384   0.980 -0.3964 -0.1961  1.2647
 9130TIP3   OH251584   3.933   5.463   0.877 -0.2944 -0.1576 -0.3332
 9130TIP3    H151585   3.913   5.500   0.791  1.6220  1.0263 -0.3249
 9130TIP3    H251586   4.013   5.507   0.905 -0.0153 -1.6108  1.4076
 9131TIP3   OH251587   5.557   3.206   2.703  0.2575  0.0145 -0.4189
 9131TIP3    H151588   5.650   3.192   2.685  0.8588  2.3785  0.4394
 9131TIP3    H251589   5.550   3.202   2.799 -0.0821  1.9100 -0.3277
 9132TIP3   OH251590   5.869   0.004   2.634 -0.6923  0.0779  0.2195
 9132TIP3    H151591   5.930   0.072   2.604 -0.2488 -0.5362 -0.2894
 9132TIP3    H251592   5.883  -0.002   2.728  1.5531 -1.5092 -0.1536
 9133TIP3   OH251593   3.934   2.491   0.865  0.7598  0.0092  0.3875
 9133TIP3    H151594   4.017   2.533   0.887  0.7048 -0.0302  0.6785
 9133TIP3    H251595   3.878   2.509   0.941  0.7894 -0.7317  0.5947
 9134TIP3   OH251596   6.479   4.918   0.719 -0.3230  0.2451 -0.0856
 9134TIP3    H151597   6.459   5.005   0.754  0.1657  0.1741  0.3910
 9134TIP3    H251598   6.555   4.889   0.770 -1.2387 -0.9968  0.6498
 9135TIP3   OH251599   5.945   3.723   1.549  0.1232  0.5998 -0.4978
 9135TIP3    H151600   5.986   3.663   1.487  1.0819 -1.3028  1.7874
 9135TIP3    H251601   5.852   3.719   1.529  0.2470 -1.1066 -0.9023
 9136TIP3   OH251602   6.750   3.185   1.255  0.1244 -0.3125 -0.3399
 9136TIP3    H151603   6.693   3.243   1.203  0.5252 -1.4154 -2.0837
 9136TIP3    H251604   6.835   3.189   1.211  0.6461 -0.8458  0.5960
 9137TIP3   OH251605   7.538   4.567   3.051 -0.0362 -0.4621 -0.3288
 9137TIP3    H151606   7.528   4.592   3.143 -0.7934  0.1259 -0.5542
 9137TIP3    H251607   7.542   4.650   3.004  1.2439 -0.7433 -0.7588
 9138TIP3   OH251608   1.689   4.092   3.209 -0.2306  1.0897 -0.0931
 9138TIP3    H151609   1.773   4.075   3.165 -1.5581 -2.1310 -1.6864
 9138TIP3    H251610   1.690   4.035   3.286 -0.8895  1.1088 -0.0634
 9139TIP3   OH251611   0.718   2.683   2.295  0.2933 -0.1901 -0.0807
 9139TIP3    H151612   0.785   2.617   2.277  0.8245 -0.1745  1.6391
 9139TIP3    H251613   0.689   2.664   2.384 -1.1515  0.5469 -0.3672
 9140TIP3   OH251614   0.712   0.126   2.249  0.1754 -0.9280  0.0476
 9140TIP3    H151615   0.666   0.209   2.245 -0.6286 -1.3500  0.2583
 9140TIP3    H251616   0.681   0.085   2.331  1.7742 -0.7448  0.7840
 9141TIP3   OH251617   1.173   7.482   0.772  0.2661  0.2040 -0.0267
 9141TIP3    H151618   1.262   7.517   0.779  0.8542 -1.5084  1.9576
 9141TIP3    H251619   1.181   7.391   0.800 -2.2601  0.2528  1.0751
 9142TIP3   OH251620   1.586   0.478   2.449 -0.1528  0.3405 -0.1829
 9142TIP3    H151621   1.556   0.538   2.381  0.7262  2.6894  1.3730
 9142TIP3    H251622   1.561   0.521   2.531  1.0390 -1.1494  1.0219
 9143TIP3   OH251623   1.112   4.646   2.275  0.4004 -0.3870 -0.0511
 9143TIP3    H151624   1.170   4.708   2.320 -1.2096 -0.0391  1.6879
 9143TIP3    H251625   1.119   4.565   2.325  0.4028 -0.7593 -0.6422
 9144TIP3   OH251626   5.971   2.296   2.264 -0.2455  0.1836 -0.0732
 9144TIP3    H151627   5.911   2.239   2.314  1.4000 -2.3273 -0.7789
 9144TIP3    H251628   5.938   2.292   2.174  0.1808 -0.0962 -0.2186
 9145TIP3   OH251629   4.221   1.338   0.972 -0.3202 -0.1332  0.3020
 9145TIP3    H151630   4.262   1.369   0.891  0.3518  0.0479  0.7020
 9145TIP3    H251631   4.280   1.270   1.005 -0.4077  0.0373  0.8198
 9146TIP3   OH251632   4.625   3.978   1.037 -0.4978 -0.3655 -0.0318
 9146TIP3    H151633   4.535   3.975   1.007 -0.3090  2.7735 -1.1784
 9146TIP3    H251634   4.673   3.922   0.975 -1.5449 -1.9372  0.5063
 9147TIP3   OH251635   1.529   4.959   2.541  0.6566 -0.5369 -0.2428
 9147TIP3    H151636   1.482   5.032   2.581 -0.9609 -2.1250  0.9656
 9147TIP3    H251637   1.518   4.972   2.447  0.8382  1.0088 -0.0714
 9148TIP3   OH251638   6.924   7.471   1.343 -0.1859 -0.1528 -0.5567
 9148TIP3    H151639   6.876   7.400   1.385 -0.2226  1.7912  3.1047
 9148TIP3    H251640   6.859   7.541   1.333  0.7617  0.8300 -0.0474
 9149TIP3   OH251641   0.664   6.448   1.074  0.0994 -0.1298 -0.6354
 9149TIP3    H151642   0.712   6.374   1.113  1.3886 -0.4570 -2.6759
 9149TIP3    H251643   0.672   6.518   1.138  2.2075 -0.6011 -0.2913
 9150TIP3   OH251644   2.996   1.852   1.874 -0.5388 -0.5522 -0.6979
 9150TIP3    H151645   2.981   1.911   1.799  0.3661  1.1851  0.4308
 9150TIP3    H251646   3.091   1.841   1.877 -0.3950  0.6760  1.0590
 9151TIP3   OH251647   1.808   6.913   1.451  0.7421  0.4853 -0.0976
 9151TIP3    H151648   1.750   6.903   1.526  0.1429  0.7293 -0.5245
 9151TIP3    H251649   1.893   6.881   1.483 -0.2117 -2.6538 -0.2969
 9152TIP3   OH251650   4.947   1.559   1.653 -0.2557  0.0599 -0.1147
 9152TIP3    H151651   4.978   1.619   1.720 -1.1713 -1.0077  1.3354
 9152TIP3    H251652   4.968   1.472   1.687 -1.0012 -0.5247 -1.0848
 9153TIP3   OH251653   5.308   1.989   1.920 -0.2315 -0.0474  0.1417
 9153TIP3    H151654   5.348   1.930   1.984 -3.1609 -1.5631  0.8002
 9153TIP3    H251655   5.236   2.030   1.968 -1.6656 -0.1903 -1.7747
 9154TIP3   OH251656   3.217   0.657   3.062  0.1694  0.0259 -0.0224
 9154TIP3    H151657   3.277   0.633   2.991  0.2325  0.4581 -0.1194
 9154TIP3    H251658   3.264   0.724   3.112 -0.3230  0.5461 -0.2458
 9155TIP3   OH251659   0.627   2.878   0.869 -0.1482  0.5334 -0.0793
 9155TIP3    H151660   0.719   2.886   0.846  0.0136  0.0280  0.3749
 9155TIP3    H251661   0.586   2.957   0.832  0.6063  1.1918  0.4536
 9156TIP3   OH251662   1.726   2.374   3.253  0.7597 -0.5403 -0.2470
 9156TIP3    H151663   1.786   2.399   3.323  2.5304  0.3175 -1.9747
 9156TIP3    H251664   1.777   2.316   3.197 -0.5994 -1.1773 -0.8798
 9157TIP3   OH251665   1.801   7.405   1.254  0.0288 -0.3059 -0.2330
 9157TIP3    H151666   1.830   7.319   1.226 -0.4245 -0.6631  0.3762
 9157TIP3    H251667   1.835   7.415   1.343  0.9587  0.5784 -0.6570
 9158TIP3   OH251668   5.234   7.409   0.970 -0.2235 -0.6489 -0.4434
 9158TIP3    H151669   5.144   7.381   0.952 -0.2725 -0.3815 -0.6150
 9158TIP3    H251670   5.236   7.502   0.947  0.5530 -1.0462 -2.1564
 9159TIP3   OH251671   5.804   5.906   1.412  0.0382 -0.3850  0.2462
 9159TIP3    H151672   5.843   5.990   1.389  0.7879 -0.2376  1.9038
 9159TIP3    H251673   5.712   5.914   1.386  0.4617  0.3235 -1.1169
 9160TIP3   OH251674   1.109   6.740   1.924 -0.3929 -0.6615 -0.0391
 9160TIP3    H151675   1.101   6.808   1.857 -0.4505 -0.8511 -0.2258
 9160TIP3    H251676   1.164   6.674   1.884  0.2059 -0.4279  0.3831
 9161TIP3   OH251677   6.506   6.642   1.371  0.5325  0.0541  0.5342
 9161TIP3    H151678   6.534   6.699   1.300  1.3738  0.8317  1.4658
 9161TIP3    H251679   6.440   6.692   1.419  0.3403 -0.2675  0.6164
 9162TIP3   OH251680   1.349   4.727   2.460 -0.1387  0.4864  0.0164
 9162TIP3    H151681   1.423   4.669   2.439 -0.1216  0.8794 -1.0848
 9162TIP3    H251682   1.383   4.786   2.526  0.5467  0.6476 -0.4665
 9163TIP3   OH251683   3.527   3.027   0.724  0.0447 -0.2198 -0.0422
 9163TIP3    H151684   3.462   3.064   0.665  0.1924 -1.0758 -0.7676
 9163TIP3    H251685   3.591   2.986   0.666 -0.3505 -1.9898  0.7275
 9164TIP3   OH251686   1.713   7.421   1.973 -0.1125  0.0727  0.1050
 9164TIP3    H151687   1.734   7.494   2.031 -0.1747 -0.6666  1.0940
 9164TIP3    H251688   1.676   7.355   2.031  1.0448 -1.2134 -0.5499
 9165TIP3   OH251689   1.374   0.459   1.527  0.4500 -0.0954 -0.6576
 9165TIP3    H151690   1.386   0.543   1.570 -0.8608 -0.5550  0.6842
 9165TIP3    H251691   1.339   0.480   1.441 -1.2472  0.7131  0.1905
 9166TIP3   OH251692   7.509   3.552   2.788  0.4051 -0.4280  0.0718
 9166TIP3    H151693   7.463   3.505   2.719 -0.1250 -0.4867  0.4562
 9166TIP3    H251694   7.529   3.638   2.750  0.5748 -0.6411 -0.3249
 9167TIP3   OH251695   5.937   4.264   1.357  0.2732 -0.3072  0.1815
 9167TIP3    H151696   5.933   4.256   1.262  1.3359  1.3655 -0.0395
 9167TIP3    H251697   6.022   4.304   1.375  0.2476 -0.9109  1.8763
 9168TIP3   OH251698   1.027   0.993   1.608 -0.0953  0.4790  0.4621
 9168TIP3    H151699   1.086   0.980   1.534 -0.9289 -0.5429 -0.0547
 9168TIP3    H251700   1.031   1.086   1.626  0.5667  0.6494 -0.5000
 9169TIP3   OH251701   2.834   1.607   1.527 -0.4092  0.0534  0.6346
 9169TIP3    H151702   2.775   1.557   1.471  2.0582  0.4311 -2.6267
 9169TIP3    H251703   2.781   1.678   1.563 -1.8698  0.8301 -2.7346
 9170TIP3   OH251704   5.595   1.888   2.277  0.5575 -0.1271 -0.1764
 9170TIP3    H151705   5.501   1.897   2.294  0.6619 -0.5392  0.7034
 9170TIP3    H251706   5.617   1.801   2.311  1.4647  0.4175  0.7036
 9171TIP3   OH251707   7.547   5.000   0.556 -0.7158  0.6815  0.6153
 9171TIP3    H151708   7.454   4.983   0.538 -0.2252 -0.0325 -1.5521
 9171TIP3    H251709   7.557   5.094   0.541 -0.7527  0.4498 -1.1069
 9172TIP3   OH251710   0.504   4.489   2.195  0.9278  0.4728 -0.3758
 9172TIP3    H151711   0.593   4.453   2.192  0.4639 -1.0416  1.8082
 9172TIP3    H251712   0.447   4.412   2.199 -0.4123  1.4279 -0.2904
 9173TIP3   OH251713   3.457   1.795   2.165  0.0610  0.4329  0.0270
 9173TIP3    H151714   3.468   1.785   2.260  0.0628  0.0506 -0.0124
 9173TIP3    H251715   3.469   1.888   2.150  0.3632  0.4514  0.3636
 9174TIP3   OH251716   6.052   3.133   0.705 -0.4021  0.2401 -0.2793
 9174TIP3    H151717   6.117   3.201   0.726 -0.0017  0.3001 -1.5988
 9174TIP3    H251718   6.102   3.066   0.659 -0.5210 -1.6602  2.1574
 9175TIP3   OH251719   2.078   6.066   1.940 -0.4061 -0.3181  0.3883
 9175TIP3    H151720   2.025   6.146   1.932  0.0205 -0.0986 -0.3466
 9175TIP3    H251721   2.161   6.096   1.976 -0.4946 -0.5460  0.7888
 9176TIP3   OH251722   7.046   0.620   0.737  0.1180 -0.2661 -1.0956
 9176TIP3    H151723   7.024   0.710   0.712 -0.0029 -0.5235 -1.9367
 9176TIP3    H251724   7.139   0.623   0.758 -0.2711  0.4569  0.7739
 9177TIP3   OH251725   0.900   4.754   2.795 -0.2793 -0.5464 -0.2733
 9177TIP3    H151726   0.894   4.764   2.890  0.9925 -1.0643 -0.1157
 9177TIP3    H251727   0.844   4.679   2.775 -0.9127 -0.1501  0.0055
 9178TIP3   OH251728   3.272   0.451   0.766  0.1552 -0.0701  0.0161
 9178TIP3    H151729   3.336   0.424   0.700 -0.2502 -0.9114 -0.0397
 9178TIP3    H251730   3.256   0.373   0.819 -1.7454 -0.2475 -0.7308
 9179TIP3   OH251731   1.841   2.078   2.814 -0.0310  0.4776  0.1903
 9179TIP3    H151732   1.810   2.082   2.724 -1.1376  0.1824  0.5392
 9179TIP3    H251733   1.766   2.045   2.864  1.4718 -2.3145  0.7833
 9180TIP3   OH251734   7.356   1.414   1.108 -0.0845  0.2443  0.6339
 9180TIP3    H151735   7.408   1.474   1.162  2.9737  1.5182 -3.2660
 9180TIP3    H251736   7.310   1.471   1.047 -1.3544 -1.2084  0.1770
 9181TIP3   OH251737   1.310   2.578   1.515 -0.5373  0.5816 -0.7207
 9181TIP3    H151738   1.322   2.490   1.480 -0.4065  0.3957 -0.2253
 9181TIP3    H251739   1.391   2.594   1.565 -0.4571  1.0763 -1.0062
 9182TIP3   OH251740   6.014   0.529   1.248  0.0983 -0.4069  0.3292
 9182TIP3    H151741   6.087   0.591   1.244 -0.5503  0.3869  0.6806
 9182TIP3    H251742   5.985   0.532   1.339  0.0332 -1.2022  0.3422
 9183TIP3   OH251743   6.743   1.043   2.313 -0.2310 -0.2996  0.3917
 9183TIP3    H151744   6.662   0.995   2.297 -1.5483  1.7101  0.5972
 9183TIP3    H251745   6.775   1.009   2.396 -0.5993 -1.4664  0.0711
 9184TIP3   OH251746   0.711   7.103   0.798  0.2816  0.3184 -0.2192
 9184TIP3    H151747   0.643   7.118   0.863 -0.1839  0.3748 -0.7140
 9184TIP3    H251748   0.725   7.009   0.800  1.4154  0.4771  1.0936
 9185TIP3   OH251749   0.691   2.028   3.183 -0.5221  0.5087 -0.3941
 9185TIP3    H151750   0.687   2.120   3.208  0.7416  0.3386  0.5166
 9185TIP3    H251751   0.601   1.997   3.194 -1.2822  1.9265 -2.0598
 9186TIP3   OH251752   6.709   3.613   3.387 -0.7012 -0.5240  0.1128
 9186TIP3    H151753   6.696   3.524   3.421 -0.1258 -0.5721  0.2201
 9186TIP3    H251754   6.622   3.642   3.360 -1.1005 -0.6551  1.2263
 9187TIP3   OH251755   1.456   7.183   3.114  0.2925 -0.4507  0.1244
 9187TIP3    H151756   1.432   7.105   3.165  1.1067 -1.4648 -0.9779
 9187TIP3    H251757   1.548   7.171   3.094  0.1170  0.1509 -1.1433
 9188TIP3   OH251758   5.258   3.907   3.209  0.6347 -0.8909 -0.0497
 9188TIP3    H151759   5.284   3.816   3.227  0.8715 -0.6729  0.7823
 9188TIP3    H251760   5.257   3.948   3.296 -0.2014 -0.2900 -0.3383
 9189TIP3   OH251761   6.596   0.439   1.536 -0.1698  0.0556  0.3456
 9189TIP3    H151762   6.524   0.381   1.560  0.0706 -0.4946 -0.2276
 9189TIP3    H251763   6.675   0.389   1.555  0.0386 -0.7154 -2.1927
 9190TIP3   OH251764   0.374   2.151   1.211 -0.1377  0.2477  0.5088
 9190TIP3    H151765   0.361   2.142   1.305  1.7440  0.1006  0.8015
 9190TIP3    H251766   0.394   2.243   1.198 -0.6123  0.3130  0.2032
 9191TIP3   OH251767   1.989   0.077   1.057 -0.4047 -0.3737 -0.1438
 9191TIP3    H151768   2.029   0.040   1.136 -0.9223 -1.8593 -0.5581
 9191TIP3    H251769   1.915   0.019   1.038 -0.1836 -0.1398 -1.8249
 9192TIP3   OH251770   0.481   3.511   0.878 -0.0029 -0.4536 -0.4284
 9192TIP3    H151771   0.491   3.575   0.808  1.0014 -0.0048  0.1044
 9192TIP3    H251772   0.558   3.524   0.934 -0.7718 -0.8117  0.7512
 9193TIP3   OH251773   5.341   7.382   1.221 -0.4727 -0.2702 -0.5869
 9193TIP3    H151774   5.306   7.299   1.254 -1.1481 -0.2227 -1.1512
 9193TIP3    H251775   5.297   7.394   1.137  0.3334  0.1920 -0.9518
 9194TIP3   OH251776   1.534   3.600   0.928 -0.2203 -0.3335  0.0164
 9194TIP3    H151777   1.555   3.565   1.014 -0.4243 -0.6198 -0.0506
 9194TIP3    H251778   1.525   3.523   0.872 -1.2370 -0.2062 -0.0042
 9195TIP3   OH251779   6.399   2.099   1.814 -0.2430  0.3098  0.6063
 9195TIP3    H151780   6.452   2.074   1.738  1.3083  0.8125  1.4868
 9195TIP3    H251781   6.317   2.131   1.776 -0.4303 -1.5533 -0.7478
 9196TIP3   OH251782   7.624   1.284   1.171  0.4397 -0.2106 -0.4047
 9196TIP3    H151783   7.541   1.305   1.129  0.0931  0.1980  0.4552
 9196TIP3    H251784   7.615   1.318   1.260  1.7041  0.2516 -0.4381
 9197TIP3   OH251785   1.116   7.415   1.854  0.3469  0.2005 -0.5597
 9197TIP3    H151786   1.059   7.351   1.810 -0.6364  1.3797 -1.0420
 9197TIP3    H251787   1.198   7.411   1.805  0.7490 -1.5490  0.1673
 9198TIP3   OH251788   2.581   7.622   1.754 -0.1173  0.5536 -0.3061
 9198TIP3    H151789   2.612   7.710   1.772 -0.0582 -0.0094  2.9399
 9198TIP3    H251790   2.658   7.566   1.767 -0.8120 -0.2068  0.6823
 9199TIP3   OH251791   0.835   7.623   1.212 -0.0859 -0.3739 -0.0486
 9199TIP3    H151792   0.917   7.652   1.170 -0.2839 -0.2087 -0.3275
 9199TIP3    H251793   0.791   7.573   1.144 -1.1255  1.1815 -0.5765
 9200TIP3   OH251794   7.259   7.517   1.513 -0.2955 -0.5236 -0.0861
 9200TIP3    H151795   7.277   7.529   1.420  2.9003 -2.6421  0.1100
 9200TIP3    H251796   7.324   7.570   1.558 -1.9910  0.7250  1.0569
 9201TIP3   OH251797   2.134   2.127   2.490 -0.1811 -0.1030  0.2778
 9201TIP3    H151798   2.081   2.088   2.421  0.3749 -1.0408  0.3652
 9201TIP3    H251799   2.168   2.208   2.452 -0.2102 -0.4046 -0.3948
 9202TIP3   OH251800   2.079   2.305   1.824  0.4750 -0.3972  0.1240
 9202TIP3    H151801   2.104   2.371   1.759  1.1555 -0.4988  0.2774
 9202TIP3    H251802   1.995   2.271   1.792  0.4839  0.0170 -0.3502
 9203TIP3   OH251803   7.311   5.104   1.226 -0.0830 -0.0072  0.0185
 9203TIP3    H151804   7.376   5.144   1.169  0.0622  0.2986  0.3997
 9203TIP3    H251805   7.359   5.037   1.275 -0.0568  0.2148  0.2962
 9204TIP3   OH251806   2.438   0.666   1.080  0.2959 -0.0611  0.0701
 9204TIP3    H151807   2.364   0.720   1.106  0.5635  0.6364 -0.5718
 9204TIP3    H251808   2.478   0.713   1.007  0.0995 -1.5115 -1.0254
 9205TIP3   OH251809   7.113   6.732   3.010 -0.2238  0.5116  0.2169
 9205TIP3    H151810   7.194   6.738   2.959 -0.8565  0.4785 -0.8065
 9205TIP3    H251811   7.112   6.812   3.063  1.8000 -0.6931  2.2931
 9206TIP3   OH251812   2.642   1.734   1.685  0.3767 -0.0026  0.5134
 9206TIP3    H151813   2.550   1.759   1.675  0.1288 -0.6261  1.2226
 9206TIP3    H251814   2.674   1.787   1.758  0.9330  1.1240 -0.5091
 9207TIP3   OH251815   0.663   7.648   2.878  0.1657  0.0682  0.1436
 9207TIP3    H151816   0.753   7.676   2.891  0.3011 -0.4969  0.4980
 9207TIP3    H251817   0.670   7.564   2.832 -0.0075 -1.4306  2.6297
 9208TIP3   OH251818   5.329   6.317   0.978  0.1139 -0.4018  0.2463
 9208TIP3    H151819   5.348   6.265   0.900  2.7479 -1.2740  1.3543
 9208TIP3    H251820   5.399   6.383   0.980 -0.1409 -0.1386  1.6484
 9209TIP3   OH251821   5.762   1.953   2.868  0.1018  0.4805 -0.5038
 9209TIP3    H151822   5.667   1.966   2.865 -0.0075 -0.0825  0.1410
 9209TIP3    H251823   5.780   1.933   2.960  0.7513 -0.1122 -0.7500
 9210TIP3   OH251824   2.140   3.051   2.215 -0.0400 -0.5011  0.0485
 9210TIP3    H151825   2.105   2.995   2.285 -0.5553  0.5221  0.6451
 9210TIP3    H251826   2.136   2.998   2.136 -2.8945 -0.4886  0.1052
 9211TIP3   OH251827   4.955   3.836   2.705 -0.1664 -0.3755  0.0071
 9211TIP3    H151828   4.861   3.844   2.718 -0.0957 -0.5920  0.6804
 9211TIP3    H251829   4.991   3.922   2.728 -0.0269 -0.7977  1.4398
 9212TIP3   OH251830   4.201   1.445   1.769 -0.2583 -0.3884  0.4050
 9212TIP3    H151831   4.106   1.448   1.780 -0.4377  1.6485 -1.1525
 9212TIP3    H251832   4.216   1.478   1.681  1.8514 -1.8877  0.1343
 9213TIP3   OH251833   5.260   2.012   1.495  0.3531  0.2929 -0.0992
 9213TIP3    H151834   5.190   1.977   1.550  0.0100  2.0277  0.6462
 9213TIP3    H251835   5.325   2.045   1.557 -0.1760  2.5546 -0.6241
 9214TIP3   OH251836   5.756   4.519   1.524 -0.3742 -0.1511  0.2828
 9214TIP3    H151837   5.787   4.577   1.454 -1.9734  1.3243  0.7369
 9214TIP3    H251838   5.796   4.554   1.603 -3.0750  1.8696  0.8996
 9215TIP3   OH251839   0.858   3.674   0.806 -0.0011  0.4983 -0.6533
 9215TIP3    H151840   0.891   3.754   0.846 -1.0360  0.3185  0.6386
 9215TIP3    H251841   0.822   3.624   0.879 -0.7546 -0.4640 -1.6451
 9216TIP3   OH251842   4.734   0.227   2.663  0.3300  0.5845  0.0058
 9216TIP3    H151843   4.692   0.145   2.691  0.3132  1.0235  1.3337
 9216TIP3    H251844   4.827   0.211   2.677  0.3360  0.7573  0.1562
 9217TIP3   OH251845   5.226   4.070   1.713  0.0458 -0.1924  0.4339
 9217TIP3    H151846   5.166   4.136   1.746  0.8536 -0.0606  1.6987
 9217TIP3    H251847   5.187   3.986   1.737  0.3291 -0.1072  1.2140
 9218TIP3   OH251848   0.479   4.078   1.750 -0.8052 -0.2743 -0.0496
 9218TIP3    H151849   0.537   4.122   1.813 -1.6326 -0.4171  0.8223
 9218TIP3    H251850   0.452   3.997   1.794 -0.8778 -0.6998 -0.8544
 9219TIP3   OH251851   6.630   5.183   0.706  0.2834  0.7669  0.0819
 9219TIP3    H151852   6.585   5.215   0.627  1.1526  2.4114  0.2047
 9219TIP3    H251853   6.674   5.261   0.741 -1.3671  0.4589  3.0999
 9220TIP3   OH251854   7.459   5.267   1.465 -0.3325 -0.0234  0.2583
 9220TIP3    H151855   7.387   5.206   1.475 -0.4051  0.0851  0.3971
 9220TIP3    H251856   7.529   5.216   1.423 -1.0190  0.2688 -1.3182
 9221TIP3   OH251857   4.983   6.897   2.246 -0.0587 -0.4831  0.5401
 9221TIP3    H151858   5.049   6.830   2.264  0.0534 -0.3599  0.5870
 9221TIP3    H251859   5.013   6.939   2.165 -1.3220 -2.0164 -0.8024
 9222TIP3   OH251860   7.615   3.270   1.454  0.6015 -0.2704 -0.8029
 9222TIP3    H151861   7.535   3.310   1.488  0.0853 -3.1958  1.8291
 9222TIP3    H251862   7.685   3.313   1.502  0.4020  0.2663 -0.9823
 9223TIP3   OH251863   2.136   1.755   1.687  0.3687 -0.0568 -0.0135
 9223TIP3    H151864   2.226   1.732   1.663  0.3729 -1.2299  1.0140
 9223TIP3    H251865   2.146   1.818   1.759  0.3963 -1.0153  0.8427
 9224TIP3   OH251866   3.874   7.598   0.568  0.1201 -0.1333 -0.4473
 9224TIP3    H151867   3.861   7.540   0.644 -0.2697 -0.0542 -0.4518
 9224TIP3    H251868   3.859   7.542   0.492 -0.4129  0.0043 -0.4497
 9225TIP3   OH251869   3.656   3.591   1.231 -0.5196 -0.3643 -0.2869
 9225TIP3    H151870   3.640   3.522   1.167 -1.1514 -0.0777 -0.4459
 9225TIP3    H251871   3.680   3.544   1.311  0.2389 -0.7275 -0.7114
 9226TIP3   OH251872   1.683   5.604   2.691 -0.0751 -0.3678 -0.0083
 9226TIP3    H151873   1.634   5.536   2.646 -0.5505  0.8600 -1.4062
 9226TIP3    H251874   1.772   5.569   2.696  0.1383 -0.3298 -2.4452
 9227TIP3   OH251875   7.212   4.079   2.752  0.3468 -0.5193 -0.4194
 9227TIP3    H151876   7.181   4.033   2.830 -0.3891  0.7423  0.0586
 9227TIP3    H251877   7.152   4.052   2.683 -1.4204  1.2700  0.3196
 9228TIP3   OH251878   0.105   1.714   2.322 -0.5843  0.0147 -0.7554
 9228TIP3    H151879   0.076   1.623   2.314 -0.2506 -0.2467  0.6890
 9228TIP3    H251880   0.023   1.764   2.328 -0.7670 -0.1937 -1.4005
 9229TIP3   OH251881   4.808   3.150   2.476  0.2368 -0.2530  0.3548
 9229TIP3    H151882   4.775   3.065   2.507  0.8916 -0.2775  0.9957
 9229TIP3    H251883   4.895   3.131   2.442  0.5366  0.2291  0.8439
 9230TIP3   OH251884   6.829   1.170   1.520  0.2648  0.0923  0.1455
 9230TIP3    H151885   6.763   1.235   1.494 -1.1936 -0.7691  1.5925
 9230TIP3    H251886   6.781   1.088   1.528  1.2627 -0.3526  2.2818
 9231TIP3   OH251887   4.078   6.192   2.192  0.0532 -0.2059  0.0203
 9231TIP3    H151888   3.986   6.212   2.212 -0.5487 -1.7267 -1.0350
 9231TIP3    H251889   4.097   6.116   2.247  0.0475 -1.0967 -1.1675
 9232TIP3   OH251890   6.118   6.469   2.235 -0.1245 -0.2304 -0.5591
 9232TIP3    H151891   6.187   6.432   2.291  1.2116  1.1345 -1.2252
 9232TIP3    H251892   6.041   6.469   2.291  1.0615  0.6859  1.1865
 9233TIP3   OH251893   6.077   6.696   1.808  0.3714 -0.0035  0.2833
 9233TIP3    H151894   6.108   6.724   1.894 -0.4583 -0.2820  0.6838
 9233TIP3    H251895   5.983   6.685   1.819  0.3469 -0.6461 -0.4985
 9234TIP3   OH251896   5.828   7.440   2.262 -0.5512 -0.6260 -0.3916
 9234TIP3    H151897   5.751   7.443   2.205 -1.0240  0.1452  0.2589
 9234TIP3    H251898   5.794   7.464   2.348  0.6318  1.0324 -0.3319
 9235TIP3   OH251899   5.521   5.783   0.540  0.4224 -0.1637  0.0387
 9235TIP3    H151900   5.428   5.776   0.520  0.3687  2.1293 -0.8226
 9235TIP3    H251901   5.553   5.693   0.538 -1.3355 -0.8247 -1.8698
 9236TIP3   OH251902   0.344   6.662   1.016 -0.2964 -0.4499  0.4956
 9236TIP3    H151903   0.285   6.646   1.090 -0.5317  0.7684  0.6001
 9236TIP3    H251904   0.379   6.576   0.994 -1.9788 -1.1831  0.5354
 9237TIP3   OH251905   2.260   3.351   0.546 -0.2224  0.7498  0.3235
 9237TIP3    H151906   2.313   3.401   0.485 -1.6503  0.3895 -1.2736
 9237TIP3    H251907   2.280   3.259   0.526 -0.7850  0.6253  0.3222
 9238TIP3   OH251908   2.580   5.257   1.065  0.3371  0.2188 -0.2525
 9238TIP3    H151909   2.556   5.270   0.973 -1.0942  0.0103  0.0639
 9238TIP3    H251910   2.662   5.208   1.062 -0.6849 -1.5528 -1.4504
 9239TIP3   OH251911   6.811   0.796   0.687  0.0330 -0.2651  0.0771
 9239TIP3    H151912   6.884   0.818   0.630 -0.2841 -0.4008 -0.3863
 9239TIP3    H251913   6.778   0.713   0.653 -1.1023  0.3891 -0.4846
 9240TIP3   OH251914   1.902   0.176   2.171  0.2826 -0.2710 -0.5433
 9240TIP3    H151915   1.978   0.227   2.143 -0.3428  0.2112 -1.4176
 9240TIP3    H251916   1.910   0.094   2.122  1.3012 -1.0523  0.8801
 9241TIP3   OH251917   3.143   2.288   3.370  0.7006 -0.2658  0.0897
 9241TIP3    H151918   3.184   2.206   3.343 -0.2275 -0.5226 -0.5700
 9241TIP3    H251919   3.068   2.262   3.422  0.0528  0.1468 -0.6229
 9242TIP3   OH251920   0.304   1.786   1.423 -0.1261  0.6410 -0.4601
 9242TIP3    H151921   0.383   1.801   1.371  0.1383  2.1524  0.3283
 9242TIP3    H251922   0.232   1.799   1.361  0.2137  0.5577 -0.8768
 9243TIP3   OH251923   5.554   7.495   2.181 -0.4552 -0.4544 -0.1590
 9243TIP3    H151924   5.508   7.563   2.231 -0.1724 -0.7469  0.4954
 9243TIP3    H251925   5.532   7.515   2.089 -0.6261  0.3343  0.0457
 9244TIP3   OH251926   4.699   3.367   1.189 -0.1934 -0.0315 -0.5503
 9244TIP3    H151927   4.783   3.345   1.228 -0.7465  0.7031  1.1287
 9244TIP3    H251928   4.721   3.427   1.117  0.7325 -0.1574 -0.3810
 9245TIP3   OH251929   2.715   7.357   2.133  0.0942  0.3534  0.1629
 9245TIP3    H151930   2.684   7.277   2.174 -0.5242  0.3884 -0.2362
 9245TIP3    H251931   2.784   7.388   2.192  1.1203 -1.0466 -0.2314
 9246TIP3   OH251932   6.136   5.592   1.984  0.0614  0.2394  0.1540
 9246TIP3    H151933   6.049   5.579   1.947  0.5985  0.0916 -1.1197
 9246TIP3    H251934   6.149   5.687   1.982  0.4419  0.1830 -0.9542
 9247TIP3   OH251935   2.098   3.884   0.879 -0.3758 -0.0091 -0.5995
 9247TIP3    H151936   2.006   3.910   0.884 -0.7017 -0.8617 -1.7664
 9247TIP3    H251937   2.099   3.795   0.914  0.0574  0.0974 -0.3385
 9248TIP3   OH251938   2.313   6.210   1.986  0.0359  0.3801 -0.0121
 9248TIP3    H151939   2.329   6.283   1.925  0.4517 -0.6955 -1.2322
 9248TIP3    H251940   2.379   6.145   1.963 -1.5565 -1.2127 -0.3011
 9249TIP3   OH251941   0.566   0.426   3.166 -0.2048  0.1612 -0.2080
 9249TIP3    H151942   0.641   0.483   3.151 -0.2062  0.2426  0.0851
 9249TIP3    H251943   0.494   0.467   3.119 -0.0351  0.0082 -0.6089
 9250TIP3   OH251944   7.127   1.636   2.677 -0.6912  0.2899 -0.2294
 9250TIP3    H151945   7.080   1.559   2.647 -0.6558  1.0408 -2.3661
 9250TIP3    H251946   7.162   1.611   2.763 -0.4385 -2.1454 -0.9716
 9251TIP3   OH251947   1.456   3.348   2.850  0.4943  0.2400 -0.4435
 9251TIP3    H151948   1.538   3.338   2.899  0.5762 -0.0055 -0.6260
 9251TIP3    H251949   1.388   3.356   2.917  0.2862 -2.5134 -0.2213
 9252TIP3   OH251950   5.399   0.166   0.836 -0.0774  0.6604  0.3042
 9252TIP3    H151951   5.428   0.199   0.751 -2.1561  0.7608 -0.4218
 9252TIP3    H251952   5.419   0.237   0.897  2.4705  0.1621  0.1959
 9253TIP3   OH251953   4.897   3.570   1.462  0.1474  0.1091  0.6221
 9253TIP3    H151954   4.902   3.595   1.554 -1.8851 -0.0257  0.8160
 9253TIP3    H251955   4.811   3.600   1.433  0.9311  0.5913 -1.3920
 9254TIP3   OH251956   0.428   6.122   0.906  0.0006  0.4043 -0.5232
 9254TIP3    H151957   0.476   6.061   0.962 -0.5773  0.1357 -0.3038
 9254TIP3    H251958   0.490   6.147   0.838  1.5245  2.5940  1.5386
 9255TIP3   OH251959   7.164   3.051   2.672 -0.0032  0.3101  0.0202
 9255TIP3    H151960   7.082   3.008   2.648 -0.9782  1.0610  1.7666
 9255TIP3    H251961   7.233   2.994   2.638 -1.1685  0.7740 -3.4950
 9256TIP3   OH251962   6.074   7.379   2.425  0.5790 -0.1358 -0.6185
 9256TIP3    H151963   6.127   7.317   2.375  0.1124 -0.7448 -0.3780
 9256TIP3    H251964   6.008   7.324   2.468 -0.2540  0.6019 -0.9271
 9257TIP3   OH251965   6.131   0.727   2.626  0.0818  0.4061  0.3076
 9257TIP3    H151966   6.111   0.792   2.559 -1.1626  1.2667  1.4631
 9257TIP3    H251967   6.095   0.646   2.592 -1.6249  1.0759  0.4224
 9258TIP3   OH251968   0.269   5.493   0.518  0.0953 -0.8703  0.0981
 9258TIP3    H151969   0.365   5.491   0.517  0.1502 -0.1491  1.4344
 9258TIP3    H251970   0.246   5.576   0.478  0.0120 -1.1127 -0.3661
 9259TIP3   OH251971   3.902   1.414   0.539 -0.4878 -0.4804  0.4437
 9259TIP3    H151972   3.850   1.340   0.506  0.1372 -0.1767 -1.3916
 9259TIP3    H251973   3.993   1.383   0.531 -0.1163  0.9887 -1.8919
 9260TIP3   OH251974   2.285   5.709   2.201 -0.4300  0.5817  0.1016
 9260TIP3    H151975   2.301   5.766   2.126  0.2347 -0.3534 -0.4930
 9260TIP3    H251976   2.194   5.680   2.191 -0.1413 -0.0826 -0.7541
 9261TIP3   OH251977   1.634   4.588   1.970  0.4249 -0.2083  0.3747
 9261TIP3    H151978   1.575   4.636   2.027  1.2106  0.4387  0.6635
 9261TIP3    H251979   1.713   4.642   1.965  1.0234 -1.0711  0.0518
 9262TIP3   OH251980   6.518   7.365   1.860  0.0118  0.1069  0.4321
 9262TIP3    H151981   6.442   7.312   1.884  1.1882 -1.1129  1.5925
 9262TIP3    H251982   6.542   7.334   1.773 -0.5888  0.2537  0.2064
 9263TIP3   OH251983   6.479   2.789   2.033 -0.5673  0.0081 -0.4937
 9263TIP3    H151984   6.525   2.739   1.966 -0.6019 -0.6773 -0.0157
 9263TIP3    H251985   6.479   2.879   2.000  1.4232  0.1024 -0.3613
 9264TIP3   OH251986   4.598   4.161   1.831 -0.0600  0.0369  0.4399
 9264TIP3    H151987   4.615   4.215   1.754  2.9138 -1.6434 -0.2484
 9264TIP3    H251988   4.570   4.077   1.795  1.3237 -0.7547  1.1325
 9265TIP3   OH251989   0.042   4.933   2.774 -0.3022  0.3077  0.1807
 9265TIP3    H151990   0.101   4.996   2.816  1.3830 -0.1707 -1.3230
 9265TIP3    H251991   0.003   4.981   2.701  1.2233 -0.3689 -1.1609
 9266TIP3   OH251992   0.357   4.028   0.665 -0.1563 -0.2974 -0.3955
 9266TIP3    H151993   0.361   4.114   0.707 -0.9225  0.0640 -1.0370
 9266TIP3    H251994   0.404   4.041   0.582  1.7140 -1.1109  0.4696
 9267TIP3   OH251995   6.160   3.616   2.937  0.0615 -0.5360 -0.5132
 9267TIP3    H151996   6.236   3.652   2.984  0.1869 -0.0568 -1.0720
 9267TIP3    H251997   6.165   3.655   2.850 -1.0636 -0.1544 -0.4252
 9268TIP3   OH251998   1.425   6.700   2.200 -0.1827 -0.7222  0.7982
 9268TIP3    H151999   1.370   6.775   2.179  0.8794  0.4766  2.1099
 9268TIP3    H252000   1.467   6.723   2.283  3.7940 -0.6955 -0.9917
 9269TIP3   OH252001   2.911   4.904   1.220  0.4853  0.1872 -0.1085
 9269TIP3    H152002   2.953   4.899   1.305 -0.0422 -0.7831  0.1116
 9269TIP3    H252003   2.879   4.815   1.203 -1.8197  0.9351 -0.0805
 9270TIP3   OH252004   6.410   1.946   0.879  0.1799 -0.1024  0.5178
 9270TIP3    H152005   6.477   1.974   0.941 -0.7030 -1.7046  2.2965
 9270TIP3    H252006   6.442   1.862   0.845 -0.1394 -0.0516  0.0786
 9271TIP3   OH252007   2.958   0.826   0.909 -0.1695  0.7019 -0.1936
 9271TIP3    H152008   2.986   0.868   0.828  2.0337 -1.8341 -0.9145
 9271TIP3    H252009   2.960   0.732   0.889  0.7662 -0.0397  2.8178
 9272TIP3   OH252010   7.582   0.386   1.000 -0.4860 -0.0316 -0.0696
 9272TIP3    H152011   7.619   0.345   1.078 -1.5640  0.8664  0.9403
 9272TIP3    H252012   7.658   0.426   0.956 -0.1073  1.1388  1.5633
 9273TIP3   OH252013   5.381   1.054   2.358  0.1329 -0.1949 -0.3769
 9273TIP3    H152014   5.321   1.101   2.416  1.5352  0.8360  0.3164
 9273TIP3    H252015   5.385   0.966   2.394 -0.0045  0.0766  0.3194
 9274TIP3   OH252016   2.868   3.953   1.250  0.1358 -0.5065  0.3445
 9274TIP3    H152017   2.922   3.923   1.176  0.3911  0.4854  0.1111
 9274TIP3    H252018   2.931   3.982   1.315 -0.1028 -0.6146  0.6242
 9275TIP3   OH252019   1.915   2.069   3.242  0.1962 -0.2167 -0.0458
 9275TIP3    H152020   1.998   2.104   3.275  1.5616  0.3760 -3.6327
 9275TIP3    H252021   1.929   1.974   3.236 -0.3072 -0.4142  1.5420
 9276TIP3   OH252022   1.427   1.417   1.256  0.4899  0.0977  0.3602
 9276TIP3    H152023   1.416   1.351   1.325  0.3476  0.6555  0.8807
 9276TIP3    H252024   1.357   1.480   1.272  1.6541  1.3000  0.9475
 9277TIP3   OH252025   6.172   3.791   2.732  0.0720  0.1679 -0.5767
 9277TIP3    H152026   6.082   3.819   2.750 -0.6281 -1.1426 -1.8405
 9277TIP3    H252027   6.177   3.786   2.637  0.7979 -1.8346 -0.4782
 9278TIP3   OH252028   2.089   0.662   2.192  0.2974 -0.3437 -0.2328
 9278TIP3    H152029   2.009   0.668   2.140  0.4462 -1.2033 -0.5788
 9278TIP3    H252030   2.160   0.669   2.129  0.4866 -0.5057 -0.0399
 9279TIP3   OH252031   3.723   5.688   0.686  0.0422  0.4259  0.8165
 9279TIP3    H152032   3.725   5.745   0.763  0.5500  0.9000  0.4681
 9279TIP3    H252033   3.654   5.624   0.704 -1.1515  1.6669  0.8635
 9280TIP3   OH252034   7.087   5.309   0.680 -0.2022 -0.0901 -0.3742
 9280TIP3    H152035   7.128   5.223   0.690  0.2738  0.0116 -1.2757
 9280TIP3    H252036   6.993   5.292   0.687 -0.1700 -0.8450 -1.4462
 9281TIP3   OH252037   4.610   6.548   1.271 -0.1780 -0.1626 -0.5573
 9281TIP3    H152038   4.609   6.461   1.311  0.0453 -0.6989 -1.6812
 9281TIP3    H252039   4.611   6.609   1.345  0.2108 -1.1199  0.2411
 9282TIP3   OH252040   1.677   2.810   2.353 -0.1555  0.9480 -0.2889
 9282TIP3    H152041   1.685   2.879   2.288 -1.4836  1.7999  0.4008
 9282TIP3    H252042   1.716   2.846   2.432  1.6184 -0.1508 -0.6064
 9283TIP3   OH252043   0.530   2.839   1.116 -0.1247  0.3783 -0.2720
 9283TIP3    H152044   0.547   2.846   1.022 -0.0157 -0.9549 -0.3640
 9283TIP3    H252045   0.610   2.801   1.153 -0.7720 -0.6534  0.1062
 9284TIP3   OH252046   3.551   1.089   1.873 -0.1410 -0.0042  0.7500
 9284TIP3    H152047   3.629   1.064   1.924 -1.0893 -1.7432  1.4430
 9284TIP3    H252048   3.524   1.008   1.830 -0.6398  0.9514 -0.8135
 9285TIP3   OH252049   7.528   2.318   0.430  0.0445  0.3382 -0.9393
 9285TIP3    H152050   7.446   2.326   0.381  0.5491 -1.3434 -2.1849
 9285TIP3    H252051   7.542   2.223   0.437  1.3048  0.5810  0.2528
 9286TIP3   OH252052   2.029   4.498   3.539 -0.0963  0.0276  0.1051
 9286TIP3    H152053   2.026   4.579   3.487  0.7644 -0.6169 -0.9957
 9286TIP3    H252054   2.061   4.432   3.478 -0.4918 -1.0923  1.0741
 9287TIP3   OH252055   0.765   7.105   0.540 -0.2891  0.0163  0.1541
 9287TIP3    H152056   0.713   7.165   0.487 -0.4100  1.0059  1.3447
 9287TIP3    H252057   0.733   7.117   0.630  1.5594  0.2050  0.8357
 9288TIP3   OH252058   4.811   7.512   1.608 -0.2082 -0.3246 -0.4813
 9288TIP3    H152059   4.723   7.491   1.579  0.4628 -3.4888 -0.6481
 9288TIP3    H252060   4.844   7.430   1.646  3.8954 -0.4878 -3.6669
 9289TIP3   OH252061   2.718   1.681   0.742  0.0054  0.2628  0.4118
 9289TIP3    H152062   2.667   1.631   0.805  1.0089 -2.3170 -0.6817
 9289TIP3    H252063   2.807   1.679   0.777  0.1168  1.0810  0.1963
 9290TIP3   OH252064   3.641   3.006   1.257 -0.5083 -0.1054  0.0142
 9290TIP3    H152065   3.645   2.915   1.228  0.0223 -0.1400  0.1836
 9290TIP3    H252066   3.732   3.029   1.276 -0.8477 -0.1768  1.9366
 9291TIP3   OH252067   7.571   5.981   1.892 -0.3924 -0.2592  0.0246
 9291TIP3    H152068   7.624   6.036   1.834 -0.4012  0.4985  0.7182
 9291TIP3    H252069   7.493   6.034   1.911 -1.8824 -1.6901 -1.6927
 9292TIP3   OH252070   4.800   1.277   1.310 -0.4340 -0.5710 -0.2837
 9292TIP3    H152071   4.836   1.246   1.227 -3.2305 -0.5847 -1.5943
 9292TIP3    H252072   4.826   1.369   1.315  1.6404 -1.1296 -0.0131
 9293TIP3   OH252073   0.456   6.868   0.549 -0.2776 -0.0383 -0.8384
 9293TIP3    H152074   0.371   6.837   0.581  1.3187 -2.3334  1.6698
 9293TIP3    H252075   0.478   6.941   0.606 -0.5254  0.5610 -1.4928
 9294TIP3   OH252076   7.027   0.104   1.649 -0.2221 -0.1324  0.1793
 9294TIP3    H152077   6.999   0.016   1.674 -2.2799  0.6525  0.8702
 9294TIP3    H252078   7.032   0.101   1.553  1.9008 -1.5527  0.2896
 9295TIP3   OH252079   3.554   2.980   2.255 -0.1262 -0.3046 -0.5350
 9295TIP3    H152080   3.631   3.021   2.295 -0.1055 -0.0774 -0.8036
 9295TIP3    H252081   3.580   2.964   2.164 -0.1841 -0.7885 -0.4663
 9296TIP3   OH252082   7.279   4.502   1.923  0.2079 -0.1437 -0.5788
 9296TIP3    H152083   7.216   4.543   1.864  0.2105 -0.2690 -0.6683
 9296TIP3    H252084   7.253   4.410   1.927 -0.8297  0.1819  0.9560
 9297TIP3   OH252085   0.350   0.585   3.020 -0.3161 -0.6792 -0.5708
 9297TIP3    H152086   0.287   0.534   2.968 -1.2936  0.6312 -0.7404
 9297TIP3    H252087   0.297   0.655   3.059  0.4589 -1.3865  1.9119
 9298TIP3   OH252088   6.045   7.644   2.352  0.0160  0.3469 -0.3569
 9298TIP3    H152089   6.046   7.554   2.386 -1.9351 -0.6931 -2.7449
 9298TIP3    H252090   5.966   7.683   2.390  1.6534  1.6912  1.9076
 9299TIP3   OH252091   5.014   0.159   0.722  1.0408  0.0866  0.5488
 9299TIP3    H152092   4.943   0.181   0.661  1.4591  0.4517  0.1768
 9299TIP3    H252093   5.023   0.237   0.777  1.0294 -0.0335  0.7226
 9300TIP3   OH252094   5.478   3.688   2.355 -0.2020  0.4269 -0.0652
 9300TIP3    H152095   5.540   3.726   2.293  0.8230  0.3873  0.9172
 9300TIP3    H252096   5.435   3.618   2.306  2.1440 -1.0600 -0.1173
 9301TIP3   OH252097   6.779   2.926   1.000 -0.0777 -0.0176  0.5135
 9301TIP3    H152098   6.762   3.012   0.963  0.5688 -0.3204 -0.5424
 9301TIP3    H252099   6.874   2.916   0.995 -0.2707 -1.4980 -1.1012
 9302TIP3   OH252100   4.009   5.573   2.810 -0.5337  0.0564 -0.3760
 9302TIP3    H152101   3.938   5.532   2.760 -0.6516  0.8978 -0.9209
 9302TIP3    H252102   4.063   5.499   2.839 -2.4038 -0.7268  1.3100
 9303TIP3   OH252103   1.629   0.016   1.484 -0.3878  0.3426 -0.1315
 9303TIP3    H152104   1.633   0.107   1.513 -0.5341  0.2540  0.1616
 9303TIP3    H252105   1.702   0.008   1.423 -0.7282  0.8188 -0.6172
 9304TIP3   OH252106   4.852   5.130   2.615  0.1989 -0.5276 -0.4832
 9304TIP3    H152107   4.806   5.048   2.630  1.6127 -1.5986 -1.7102
 9304TIP3    H252108   4.858   5.171   2.701 -2.0488 -0.8331 -0.1146
 9305TIP3   OH252109   0.971   1.481   2.704 -0.2731  0.1767  0.0590
 9305TIP3    H152110   0.973   1.417   2.775  1.9831  0.3761  0.2544
 9305TIP3    H252111   0.882   1.515   2.704 -0.7277 -0.9010  1.8089
 9306TIP3   OH252112   1.141   1.476   0.954  0.2079 -0.0155  0.0356
 9306TIP3    H152113   1.084   1.435   0.888  1.3398 -0.1724 -0.8872
 9306TIP3    H252114   1.166   1.560   0.915  1.9289 -0.6703 -0.3579
 9307TIP3   OH252115   5.360   2.035   2.294 -0.0460 -0.0877 -0.1066
 9307TIP3    H152116   5.297   2.011   2.226 -0.2799  0.1622  0.0191
 9307TIP3    H252117   5.390   2.122   2.268  0.5857 -0.3900 -0.4069
 9308TIP3   OH252118   2.966   7.077   1.605  0.2615 -0.2959 -0.1055
 9308TIP3    H152119   2.990   6.985   1.617  0.5236 -0.2122  0.0141
 9308TIP3    H252120   2.932   7.081   1.516  1.3801 -0.2723 -0.5421
 9309TIP3   OH252121   1.104   1.322   2.188  0.1124  0.2516  0.2963
 9309TIP3    H152122   1.060   1.330   2.272 -1.7203  0.8832 -0.6563
 9309TIP3    H252123   1.064   1.390   2.133  1.0830 -0.2820 -1.1520
 9310TIP3   OH252124   2.354   6.108   2.516 -0.1035  0.2443  0.4392
 9310TIP3    H152125   2.266   6.116   2.552 -0.0477  1.5597  0.3308
 9310TIP3    H252126   2.412   6.136   2.588  0.4006 -2.5661  1.2291
 9311TIP3   OH252127   5.521   2.304   1.915 -0.5103  0.1524  0.2804
 9311TIP3    H152128   5.495   2.373   1.854  0.7370 -0.4987 -1.0627
 9311TIP3    H252129   5.465   2.230   1.893 -1.7941  0.6690  1.6672
 9312TIP3   OH252130   1.270   0.666   0.865  0.2473  0.2721  0.1372
 9312TIP3    H152131   1.194   0.649   0.810  0.2139 -1.0711  0.5717
 9312TIP3    H252132   1.345   0.644   0.810  0.3264  1.0722 -0.1018
 9313TIP3   OH252133   3.900   5.023   1.761  0.3640 -0.3532 -0.0942
 9313TIP3    H152134   3.929   5.047   1.673 -1.2464 -1.3982 -0.9530
 9313TIP3    H252135   3.881   4.930   1.757  0.6258 -0.5148  1.4879
 9314TIP3   OH252136   2.596   7.621   3.208  0.7168  0.0124 -0.3686
 9314TIP3    H152137   2.506   7.591   3.218  0.4767  0.4835 -1.0666
 9314TIP3    H252138   2.646   7.540   3.195 -0.1022 -0.1130 -3.6139
 9315TIP3   OH252139   2.747   0.069   2.314 -0.0412  0.1535 -0.4684
 9315TIP3    H152140   2.722   0.043   2.225  1.9204 -0.2674 -0.9395
 9315TIP3    H252141   2.834   0.109   2.304 -0.1613  0.8997  1.1551
 9316TIP3   OH252142   0.509   5.223   1.587 -0.4149 -0.8016 -0.4021
 9316TIP3    H152143   0.544   5.290   1.529  0.1275 -0.9666 -0.2789
 9316TIP3    H252144   0.567   5.226   1.663 -1.8672  0.2914  0.7219
 9317TIP3   OH252145   7.028   1.047   2.590 -0.1305  0.1478  0.1863
 9317TIP3    H152146   6.990   1.020   2.673 -0.0170  1.1453  0.5719
 9317TIP3    H252147   7.035   1.142   2.596  0.1709  0.2076 -0.8401
 9318TIP3   OH252148   6.200   5.618   1.216 -0.0917  0.1026  0.1853
 9318TIP3    H152149   6.149   5.679   1.269 -0.5974  0.9222 -1.1895
 9318TIP3    H252150   6.159   5.533   1.232 -0.3809  0.3664  0.9099
 9319TIP3   OH252151   5.044   6.930   0.841  0.1512  0.6055  0.3603
 9319TIP3    H152152   5.114   6.933   0.775  0.1364 -0.0057  0.3059
 9319TIP3    H252153   5.032   6.836   0.858  0.1879  0.7598  1.2688
 9320TIP3   OH252154   5.202   1.834   2.564  0.3750  0.1465  0.4611
 9320TIP3    H152155   5.163   1.772   2.503 -0.5781  0.0785  1.1164
 9320TIP3    H252156   5.296   1.818   2.557  0.2247 -0.4914 -0.3024
 9321TIP3   OH252157   0.276   2.945   2.452 -0.3959 -0.9169  0.5445
 9321TIP3    H152158   0.338   2.903   2.391  1.0987  0.4622  1.0441
 9321TIP3    H252159   0.312   2.925   2.539 -1.2916 -1.0210  0.8952
 9322TIP3   OH252160   3.526   6.242   2.591  0.6089 -0.0940 -0.0715
 9322TIP3    H152161   3.484   6.157   2.604  0.4859 -0.4907 -2.5711
 9322TIP3    H252162   3.605   6.222   2.541 -1.2744  1.4205 -4.1585
 9323TIP3   OH252163   4.310   7.541   0.690 -0.0053  0.5674 -0.2597
 9323TIP3    H152164   4.349   7.628   0.681  1.4108  0.2994  2.2572
 9323TIP3    H252165   4.216   7.556   0.678  0.3679  2.0522 -1.8239
 9324TIP3   OH252166   0.767   3.087   1.358  0.1646  0.2878 -0.1138
 9324TIP3    H152167   0.857   3.100   1.326  0.7086 -1.4659  0.5902
 9324TIP3    H252168   0.736   3.009   1.311 -0.6539  0.3375  0.3288
 9325TIP3   OH252169   0.927   5.825   0.969  0.3810  0.0845  0.5563
 9325TIP3    H152170   0.852   5.792   1.019  0.1649 -0.4878 -0.1373
 9325TIP3    H252171   0.956   5.750   0.917  0.9726  0.5131  0.2582
 9326TIP3   OH252172   4.401   5.656   2.294 -0.1830 -0.3217 -0.2966
 9326TIP3    H152173   4.410   5.707   2.213 -1.9455  0.7814  0.1444
 9326TIP3    H252174   4.490   5.655   2.331  0.5215 -0.2904 -1.8936
 9327TIP3   OH252175   6.823   2.808   0.507 -0.4961 -0.1592 -0.1230
 9327TIP3    H152176   6.770   2.730   0.526 -2.2317  1.3576  1.8153
 9327TIP3    H252177   6.795   2.836   0.420 -0.8041 -0.9640 -0.2936
 9328TIP3   OH252178   5.795   0.900   1.489  0.4957 -0.0093  0.1697
 9328TIP3    H152179   5.708   0.887   1.452  1.2526 -0.6229 -1.5063
 9328TIP3    H252180   5.799   0.839   1.562 -0.4314 -0.0642  0.1886
 9329TIP3   OH252181   1.264   5.874   1.985  0.1234  0.4280  0.0735
 9329TIP3    H152182   1.323   5.857   1.912  1.3058  0.8878  0.8963
 9329TIP3    H252183   1.199   5.935   1.950  1.2169  1.3724 -0.3466
 9330TIP3   OH252184   6.554   7.340   0.995  0.1739 -0.6657 -0.2080
 9330TIP3    H152185   6.558   7.245   1.004  0.7106 -0.7619 -1.3425
 9330TIP3    H252186   6.461   7.362   1.009  0.1304 -1.2864  0.5514
 9331TIP3   OH252187   3.368   6.057   0.916  0.2719 -0.5747  0.2490
 9331TIP3    H152188   3.457   6.023   0.914  1.3663  2.0137  0.7401
 9331TIP3    H252189   3.371   6.128   0.981 -1.8879  0.2296 -0.4378
 9332TIP3   OH252190   5.307   1.312   0.689  0.3880  0.2513  0.3074
 9332TIP3    H152191   5.346   1.392   0.653  1.4596  0.0913  1.0687
 9332TIP3    H252192   5.341   1.307   0.778 -1.2508 -0.0002  0.9653
 9333TIP3   OH252193   4.561   6.650   3.340 -0.8650 -0.1125  0.0120
 9333TIP3    H152194   4.483   6.640   3.285  0.7610 -0.8277 -2.3621
 9333TIP3    H252195   4.619   6.705   3.288  1.3416 -1.9942  0.3249
 9334TIP3   OH252196   2.866   7.269   2.666 -0.4308  0.0540 -1.1839
 9334TIP3    H152197   2.794   7.332   2.670  0.7376  1.3696  1.1564
 9334TIP3    H252198   2.944   7.323   2.649  0.6198 -0.6802  0.9438
 9335TIP3   OH252199   5.288   7.284   0.692 -0.1504 -0.2497  0.3057
 9335TIP3    H152200   5.255   7.310   0.778 -2.5502 -0.1957 -0.5394
 9335TIP3    H252201   5.242   7.342   0.631  0.0818 -1.5029 -1.1258
 9336TIP3   OH252202   0.167   0.535   1.223 -0.0372 -0.2785 -0.0152
 9336TIP3    H152203   0.204   0.511   1.308 -1.0313  0.0330  0.5191
 9336TIP3    H252204   0.152   0.629   1.229  0.6647 -0.1023 -0.8544
 9337TIP3   OH252205   2.113   5.493   0.918  0.2032 -0.2894  0.1882
 9337TIP3    H152206   2.163   5.431   0.864  0.6996  0.3361 -0.0737
 9337TIP3    H252207   2.022   5.464   0.908  0.1355  0.4845 -1.9103
 9338TIP3   OH252208   5.335   2.398   2.511 -0.0427 -0.0703  0.2807
 9338TIP3    H152209   5.311   2.393   2.603 -2.1522 -0.1089 -0.2347
 9338TIP3    H252210   5.256   2.427   2.466  1.4626  1.9311 -1.3156
 9339TIP3   OH252211   1.367   4.799   0.794  0.2042 -0.3164  0.0707
 9339TIP3    H152212   1.285   4.843   0.769  1.0358 -0.1019 -2.6244
 9339TIP3    H252213   1.359   4.712   0.755  2.1784  0.5002 -2.4014
 9340TIP3   OH252214   4.265   3.482   1.253 -0.1063  0.2433  0.4530
 9340TIP3    H152215   4.231   3.540   1.321 -0.6812 -1.1418  1.4010
 9340TIP3    H252216   4.188   3.457   1.201  0.2141  0.7113 -0.2696
 9341TIP3   OH252217   4.410   0.438   2.083 -0.4747 -0.1442 -0.3727
 9341TIP3    H152218   4.435   0.346   2.095 -1.5039 -0.2988  0.7146
 9341TIP3    H252219   4.484   0.476   2.036  0.9364 -1.0480  1.0114
 9342TIP3   OH252220   2.882   0.713   2.845  0.4032 -0.5398 -0.6495
 9342TIP3    H152221   2.965   0.729   2.800  0.4304 -0.1522 -0.4631
 9342TIP3    H252222   2.820   0.769   2.800  0.0843 -1.3559 -1.2538
 9343TIP3   OH252223   7.029   0.065   0.686  0.4006 -0.0354 -0.0542
 9343TIP3    H152224   7.117   0.070   0.648  1.6665 -1.5903  2.3981
 9343TIP3    H252225   7.023   0.140   0.744 -0.1595  0.3896 -0.6426
 9344TIP3   OH252226   2.171   6.812   1.830 -0.3202 -0.0506  0.0875
 9344TIP3    H152227   2.132   6.731   1.861  1.1220 -0.5942  0.5923
 9344TIP3    H252228   2.190   6.862   1.909 -1.7726  1.0841 -0.2498
 9345TIP3   OH252229   0.743   3.134   2.217 -0.5487  0.3694 -0.3945
 9345TIP3    H152230   0.746   3.044   2.184  1.5640  0.8123 -1.6137
 9345TIP3    H252231   0.771   3.127   2.308 -0.8392 -0.2430 -0.3455
 9346TIP3   OH252232   7.018   5.182   2.522 -0.1236 -0.1671 -0.2641
 9346TIP3    H152233   7.077   5.257   2.528 -2.7788  1.9868  1.1252
 9346TIP3    H252234   7.001   5.157   2.612 -2.4422  0.3414 -0.4801
 9347TIP3   OH252235   6.625   5.255   1.166  0.2428 -0.4477  0.2640
 9347TIP3    H152236   6.593   5.325   1.109 -0.4613  0.1553  1.3531
 9347TIP3    H252237   6.627   5.177   1.110 -0.6043  0.0786 -0.5297
 9348TIP3   OH252238   7.241   3.117   3.169  0.7352  0.2825  0.2797
 9348TIP3    H152239   7.322   3.090   3.212  1.2674 -0.1962 -0.9738
 9348TIP3    H252240   7.243   3.073   3.084 -1.1271 -0.2083  0.4428
 9349TIP3   OH252241   2.227   1.128   1.298 -0.1121 -0.3313  0.1607
 9349TIP3    H152242   2.227   1.160   1.208  0.5898 -1.7311 -0.3748
 9349TIP3    H252243   2.299   1.066   1.301  0.7997  0.7417  2.1095
 9350TIP3   OH252244   2.227   1.907   1.887  0.0972 -0.3911 -0.2831
 9350TIP3    H152245   2.322   1.913   1.882  0.2101 -0.9821  0.7729
 9350TIP3    H252246   2.206   1.930   1.977 -0.5353 -2.4888  0.1620
 9351TIP3   OH252247   6.555   3.108   2.414  0.7594 -0.1436 -0.0182
 9351TIP3    H152248   6.504   3.056   2.351  0.0680  0.5608 -0.0538
 9351TIP3    H252249   6.612   3.162   2.360  0.1590  0.4683 -0.0547
 9352TIP3   OH252250   2.846   6.669   2.003  0.0901 -0.0028 -0.1876
 9352TIP3    H152251   2.836   6.622   2.086  0.9129  0.5319  0.2311
 9352TIP3    H252252   2.842   6.601   1.936  1.7069 -0.7623  0.4332
 9353TIP3   OH252253   1.960   4.415   2.235  0.1928  0.0710  0.0819
 9353TIP3    H152254   1.896   4.444   2.170  0.0430 -1.2751 -0.3851
 9353TIP3    H252255   2.022   4.488   2.241  1.3894 -0.5418 -3.0965
 9354TIP3   OH252256   0.411   0.019   0.463 -0.0179 -0.0015  0.1272
 9354TIP3    H152257   0.440   0.047   0.550 -0.7268  1.3704 -0.0436
 9354TIP3    H252258   0.342   0.081   0.440 -1.9762 -2.1167 -0.1563
 9355TIP3   OH252259   2.996   5.112   3.151  0.1809  0.2651  0.1181
 9355TIP3    H152260   3.061   5.180   3.166 -0.2316  0.7928 -0.4529
 9355TIP3    H252261   2.912   5.153   3.172  0.0302 -0.4461  0.9721
 9356TIP3   OH252262   7.295   1.736   1.432  0.2958  0.6506 -0.1144
 9356TIP3    H152263   7.375   1.684   1.442  1.4064  2.0932 -0.9143
 9356TIP3    H252264   7.318   1.822   1.469 -0.9755  1.0137 -0.1339
 9357TIP3   OH252265   2.526   3.080   1.135 -0.6503 -0.3938  0.0242
 9357TIP3    H152266   2.449   3.134   1.114  0.8905  1.3166 -1.6133
 9357TIP3    H252267   2.518   3.064   1.229 -1.4583  2.4042  0.5526
 9358TIP3   OH252268   5.404   7.324   2.526  0.0254  0.2712  0.6313
 9358TIP3    H152269   5.436   7.382   2.595  0.1109  0.2009  0.6512
 9358TIP3    H252270   5.309   7.337   2.525 -0.2525 -1.3845  2.2517
 9359TIP3   OH252271   3.392   4.646   1.056 -0.1855 -0.0747  0.3559
 9359TIP3    H152272   3.381   4.692   0.973 -0.7988 -2.3028 -0.8915
 9359TIP3    H252273   3.484   4.621   1.058  0.3314  1.7957  1.4055
 9360TIP3   OH252274   0.039   1.886   2.859 -0.2950  0.7596  0.0446
 9360TIP3    H152275   0.017   1.931   2.777  1.1329 -0.1730 -0.8925
 9360TIP3    H252276   0.008   1.797   2.846  0.3054  0.5017  0.3440
 9361TIP3   OH252277   6.120   6.016   1.410 -0.4478 -0.2586 -0.1639
 9361TIP3    H152278   6.192   6.034   1.350  0.4208  0.0775  0.9562
 9361TIP3    H252279   6.045   6.063   1.373  0.0953  0.0327 -0.9127
 9362TIP3   OH252280   1.434   3.996   1.065  0.5939 -0.2797  0.3952
 9362TIP3    H152281   1.435   3.978   1.159  0.4518  1.3768  0.7545
 9362TIP3    H252282   1.366   4.063   1.055  1.3069  0.2964 -0.7343
 9363TIP3   OH252283   3.791   5.524   1.197  0.3677 -0.5683 -0.0097
 9363TIP3    H152284   3.798   5.438   1.157 -1.6834 -0.3376 -0.9896
 9363TIP3    H252285   3.715   5.565   1.154  1.3710  1.8002  0.2892
 9364TIP3   OH252286   7.119   5.194   0.996 -0.2104  0.5405 -0.0943
 9364TIP3    H152287   7.086   5.112   1.035 -1.3784  1.2345  0.4463
 9364TIP3    H252288   7.187   5.166   0.935 -0.1203 -0.7855  0.5690
 9365TIP3   OH252289   1.621   2.389   0.603  0.3889 -0.8756  0.0115
 9365TIP3    H152290   1.697   2.355   0.650 -0.1864  0.6476  2.1903
 9365TIP3    H252291   1.632   2.484   0.604 -0.1353 -0.7341 -2.1965
 9366TIP3   OH252292   6.284   1.392   3.234 -0.1410 -0.0009  0.3578
 9366TIP3    H152293   6.336   1.366   3.158 -1.7065 -2.6623  0.0577
 9366TIP3    H252294   6.232   1.315   3.255 -2.0723  1.6683  2.2255
 9367TIP3   OH252295   0.446   4.562   1.436 -0.0643 -0.3077  0.7908
 9367TIP3    H152296   0.536   4.535   1.419 -1.1637 -2.9931 -1.2797
 9367TIP3    H252297   0.426   4.624   1.366 -0.4957 -1.3765 -0.0386
 9368TIP3   OH252298   0.522   4.998   2.827 -0.3515 -0.2742 -0.0604
 9368TIP3    H152299   0.538   5.012   2.733  0.7692 -2.9189 -0.3385
 9368TIP3    H252300   0.525   4.903   2.838  3.5509 -0.0379  3.2618
 9369TIP3   OH252301   7.044   6.082   2.300 -0.0079  0.0846 -0.4880
 9369TIP3    H152302   6.952   6.083   2.274 -0.4337 -0.3680  0.9354
 9369TIP3    H252303   7.044   6.109   2.392  1.2564 -0.0723 -0.4211
 9370TIP3   OH252304   6.275   4.327   1.679 -0.0754 -0.0087  0.2664
 9370TIP3    H152305   6.244   4.417   1.686 -2.0520 -0.5829 -0.4324
 9370TIP3    H252306   6.301   4.318   1.587  0.7597  0.0233  0.4917
 9371TIP3   OH252307   2.625   5.568   0.601 -0.1448 -0.0722 -0.0522
 9371TIP3    H152308   2.646   5.479   0.628 -1.3123  0.0721  1.4915
 9371TIP3    H252309   2.710   5.613   0.595  0.3910 -1.0781 -0.0963
 9372TIP3   OH252310   1.560   4.514   2.298 -0.0286 -0.3325 -0.2124
 9372TIP3    H152311   1.507   4.575   2.246 -0.1928  0.1854  0.5401
 9372TIP3    H252312   1.628   4.483   2.238 -0.1177  0.3717 -0.6866
 9373TIP3   OH252313   2.621   4.954   2.148 -0.1001  0.2456 -0.0744
 9373TIP3    H152314   2.603   5.028   2.208 -0.8999  1.5847 -1.8711
 9373TIP3    H252315   2.591   4.985   2.063 -0.7824 -2.3201 -0.8520
 9374TIP3   OH252316   5.353   3.212   1.343 -0.1877  0.0350 -0.1928
 9374TIP3    H152317   5.286   3.190   1.408  0.6464 -0.1043  0.6494
 9374TIP3    H252318   5.430   3.162   1.371  0.2355  0.1110 -1.1955
 9375TIP3   OH252319   2.633   5.893   1.101 -0.3119 -0.3935  0.7344
 9375TIP3    H152320   2.644   5.822   1.164  0.9889 -1.3413 -0.4896
 9375TIP3    H252321   2.690   5.869   1.028 -2.4618  0.1721 -1.2383
 9376TIP3   OH252322   2.591   1.768   2.670  0.2017 -0.1727 -0.1974
 9376TIP3    H152323   2.655   1.840   2.669 -0.0182  0.0281  0.1076
 9376TIP3    H252324   2.562   1.762   2.579  1.4518 -0.9867 -0.5721
 9377TIP3   OH252325   3.610   0.995   0.771 -0.0483  0.2229 -1.0373
 9377TIP3    H152326   3.595   0.958   0.685 -3.0266  0.2716 -0.6506
 9377TIP3    H252327   3.610   0.920   0.831  0.8603  0.2889 -0.9382
 9378TIP3   OH252328   4.648   0.883   1.611  0.6949  0.7102  0.5615
 9378TIP3    H152329   4.712   0.941   1.571  0.8462 -0.7151 -1.3744
 9378TIP3    H252330   4.675   0.795   1.586 -2.2377  0.0617 -0.7502
 9379TIP3   OH252331   0.573   6.011   1.828 -0.1180  0.2403 -0.4105
 9379TIP3    H152332   0.514   5.937   1.835  0.9896 -1.1199 -3.7247
 9379TIP3    H252333   0.516   6.087   1.816 -1.2092 -0.5664 -0.4709
 9380TIP3   OH252334   4.686   6.434   3.469  0.1232 -0.0400  0.6182
 9380TIP3    H152335   4.766   6.487   3.472 -2.0528  3.6446  0.3026
 9380TIP3    H252336   4.616   6.498   3.460 -2.9547 -3.0353  1.2472
 9381TIP3   OH252337   5.879   4.766   0.571 -0.1243 -0.4759  0.3747
 9381TIP3    H152338   5.818   4.717   0.625 -0.9890  1.5162  1.3070
 9381TIP3    H252339   5.826   4.835   0.530  1.3002  0.7984  0.5629
 9382TIP3   OH252340   0.451   0.846   2.892  0.0553  0.0590 -0.1573
 9382TIP3    H152341   0.414   0.790   2.960 -0.7454 -0.4441 -0.9907
 9382TIP3    H252342   0.542   0.858   2.918 -0.6872  1.4926  2.0549
 9383TIP3   OH252343   7.481   2.036   2.419 -0.5338 -0.0257  0.1531
 9383TIP3    H152344   7.395   2.070   2.443 -0.4612 -0.6011  1.3135
 9383TIP3    H252345   7.524   2.108   2.374 -2.2994 -0.3107 -2.2139
 9384TIP3   OH252346   0.547   7.467   1.859 -0.6722  0.0992 -0.0268
 9384TIP3    H152347   0.611   7.462   1.788  0.2082  1.2075  0.6403
 9384TIP3    H252348   0.469   7.504   1.819 -0.5523 -0.3045 -0.6418
 9385TIP3   OH252349   4.708   4.904   1.039  0.1172  0.2627 -0.4973
 9385TIP3    H152350   4.736   4.853   0.963 -0.6881  0.1695 -0.7382
 9385TIP3    H252351   4.760   4.869   1.112  0.1491 -0.3447 -0.8077
 9386TIP3   OH252352   5.664   0.316   0.708  0.1110  0.1434 -0.6760
 9386TIP3    H152353   5.721   0.376   0.755  1.2655 -0.6570 -1.0012
 9386TIP3    H252354   5.656   0.240   0.766  0.4820 -0.3006 -1.1873
 9387TIP3   OH252355   3.880   1.612   2.798 -0.0909 -0.4953  0.1171
 9387TIP3    H152356   3.937   1.685   2.778  0.2512 -1.1401 -1.4600
 9387TIP3    H252357   3.939   1.540   2.820 -0.3289 -0.7901 -0.1776
 9388TIP3   OH252358   3.372   5.770   0.861  0.6340 -0.0647  0.5010
 9388TIP3    H152359   3.380   5.712   0.937  0.9860  0.8052  1.1400
 9388TIP3    H252360   3.345   5.854   0.897  3.5450  1.1975  0.0539
 9389TIP3   OH252361   4.484   0.588   1.361 -0.2288  0.5249 -0.0121
 9389TIP3    H152362   4.447   0.676   1.367 -0.0039  0.7976 -1.9455
 9389TIP3    H252363   4.567   0.594   1.408  0.1815  1.6004 -0.8195
 9390TIP3   OH252364   7.328   2.999   2.361  0.4630  0.4966 -0.1810
 9390TIP3    H152365   7.397   2.940   2.389  0.1295  1.0585  2.0300
 9390TIP3    H252366   7.283   2.953   2.291  0.8267 -1.4519  0.8121
 9391TIP3   OH252367   1.860   0.333   1.021  0.3283  0.0059  0.5565
 9391TIP3    H152368   1.888   0.381   1.099  0.8175 -1.3534  1.2437
 9391TIP3    H252369   1.897   0.246   1.032  0.0552 -0.3300 -1.0086
 9392TIP3   OH252370   3.876   1.610   2.114 -0.0886 -0.1834 -1.3575
 9392TIP3    H152371   3.887   1.700   2.081 -1.9421  1.8686  2.8174
 9392TIP3    H252372   3.785   1.588   2.094 -0.7570  0.4691  0.6839
 9393TIP3   OH252373   2.748   1.566   2.393 -0.1907  0.4891 -0.5878
 9393TIP3    H152374   2.808   1.639   2.409 -1.1070  1.3491 -0.9800
 9393TIP3    H252375   2.661   1.600   2.415 -0.8430  0.0723 -2.3215
 9394TIP3   OH252376   2.517   3.446   1.895  0.0345  0.1471 -0.2203
 9394TIP3    H152377   2.451   3.513   1.908 -1.8064 -1.7769  1.0710
 9394TIP3    H252378   2.527   3.405   1.981  1.5361 -0.8376 -0.8191
 9395TIP3   OH252379   5.608   2.793   3.246 -0.3434 -0.1909  0.1416
 9395TIP3    H152380   5.606   2.768   3.338 -0.6660  0.3742  0.2900
 9395TIP3    H252381   5.681   2.742   3.209 -1.2715 -1.7148  0.3252
 9396TIP3   OH252382   1.143   4.527   2.699  0.0106  0.0477 -0.9805
 9396TIP3    H152383   1.219   4.471   2.683  0.8318  1.1013 -0.8656
 9396TIP3    H252384   1.084   4.473   2.751  0.0077 -1.3103 -2.3372
 9397TIP3   OH252385   3.734   3.129   0.892 -0.0235 -0.2551 -0.1655
 9397TIP3    H152386   3.664   3.084   0.844  0.0660  1.1323 -1.7099
 9397TIP3    H252387   3.814   3.106   0.845  0.4205 -0.8636  0.8622
 9398TIP3   OH252388   4.719   2.083   0.672 -0.6676 -0.6649  0.0914
 9398TIP3    H152389   4.755   2.084   0.761  2.1038  0.5641 -0.8974
 9398TIP3    H252390   4.695   2.174   0.655 -1.6303 -0.9768 -0.2761
 9399TIP3   OH252391   0.878   2.454   2.282 -0.4122 -0.0173  0.1125
 9399TIP3    H152392   0.903   2.452   2.374 -0.3997  1.2754  0.1465
 9399TIP3    H252393   0.954   2.418   2.236 -0.2769 -0.3341  0.5736
 9400TIP3   OH252394   7.399   3.233   0.413  0.1080 -0.2747  0.1195
 9400TIP3    H152395   7.304   3.231   0.413  0.0888 -2.5580  1.4956
 9400TIP3    H252396   7.421   3.326   0.423 -1.9160  0.4067 -1.2547
 9401TIP3   OH252397   2.519   3.027   1.408  0.5886 -0.7794  0.0348
 9401TIP3    H152398   2.497   3.085   1.481 -0.9005  1.4942 -2.0583
 9401TIP3    H252399   2.610   3.001   1.425  0.7987  0.8904  1.9124
 9402TIP3   OH252400   6.251   5.164   2.536  0.4644 -0.0248 -0.0695
 9402TIP3    H152401   6.289   5.187   2.621  1.7872  0.3807 -0.7466
 9402TIP3    H252402   6.247   5.068   2.537  1.0636 -0.0520  0.2092
 9403TIP3   OH252403   5.810   5.814   1.016 -0.8919  0.2060  0.0331
 9403TIP3    H152404   5.834   5.809   0.924  0.2936 -0.8629  0.3854
 9403TIP3    H252405   5.884   5.856   1.059 -0.6347 -0.9424  0.7636
 9404TIP3   OH252406   2.261   0.862   0.900  0.0006  0.2745 -0.1334
 9404TIP3    H152407   2.227   0.793   0.843  0.0713 -0.4171  0.6419
 9404TIP3    H252408   2.295   0.928   0.840 -0.5484 -0.1193 -0.8945
 9405TIP3   OH252409   0.639   1.733   3.259  0.7836 -0.6908  0.1179
 9405TIP3    H152410   0.606   1.698   3.176 -0.3609 -2.5213  1.2726
 9405TIP3    H252411   0.655   1.825   3.241 -0.2685 -0.8327 -1.9003
 9406TIP3   OH252412   5.109   1.506   2.686  0.4169 -0.5803  0.0775
 9406TIP3    H152413   5.147   1.468   2.607  1.6919  2.6492 -1.0496
 9406TIP3    H252414   5.051   1.575   2.654  0.6726  0.5670  1.9373
 9407TIP3   OH252415   6.992   2.830   1.266 -0.1530  0.2813 -0.4888
 9407TIP3    H152416   6.986   2.870   1.179 -0.5928 -0.6631 -0.9113
 9407TIP3    H252417   6.902   2.835   1.300  0.1549  1.2897  0.2228
 9408TIP3   OH252418   6.570   2.252   1.015 -0.4619  0.0045 -0.6791
 9408TIP3    H152419   6.597   2.199   0.940 -1.2002 -1.6162  0.1361
 9408TIP3    H252420   6.525   2.327   0.977  1.8910  0.8680 -1.9270
 9409TIP3   OH252421   0.230   5.654   2.184 -0.8830 -0.1179 -0.2318
 9409TIP3    H152422   0.176   5.691   2.254 -1.0066 -1.7334  0.5798
 9409TIP3    H252423   0.264   5.573   2.221  1.8393  0.6389 -0.8581
 9410TIP3   OH252424   4.366   6.237   2.213 -0.2633 -0.1336 -0.1137
 9410TIP3    H152425   4.374   6.328   2.243  0.6976  0.5943 -2.4090
 9410TIP3    H252426   4.272   6.223   2.204 -0.3757  1.0245 -0.8351
 9411TIP3   OH252427   6.173   1.217   2.065 -1.0043  0.0705  0.0121
 9411TIP3    H152428   6.210   1.305   2.065  1.8278 -1.0008 -0.8030
 9411TIP3    H252429   6.122   1.213   2.146  0.3034  1.8867  1.0108
 9412TIP3   OH252430   0.306   7.528   1.729  0.0119  0.2670  0.3504
 9412TIP3    H152431   0.284   7.621   1.727  0.9041  0.4963 -1.7411
 9412TIP3    H252432   0.234   7.486   1.680  1.2775  0.3347 -1.6799
 9413TIP3   OH252433   5.671   5.189   1.549 -0.1838  0.0924 -0.3766
 9413TIP3    H152434   5.638   5.265   1.596 -1.7486  0.4104 -1.8959
 9413TIP3    H252435   5.740   5.223   1.492  1.5840 -0.2643  1.4176
 9414TIP3   OH252436   0.156   4.597   1.240 -0.4078  0.4729 -0.5517
 9414TIP3    H152437   0.141   4.570   1.330 -1.1423 -0.8313 -1.0275
 9414TIP3    H252438   0.099   4.539   1.188  0.4460  0.7785 -1.8840
 9415TIP3   OH252439   7.144   6.035   1.757  0.1498  0.0987 -0.2812
 9415TIP3    H152440   7.115   6.062   1.669 -0.0446 -0.1663 -0.3003
 9415TIP3    H252441   7.084   5.965   1.781  1.6363 -1.4650 -0.9174
 9416TIP3   OH252442   2.011   3.622   0.644 -0.0704  0.0451 -0.5673
 9416TIP3    H152443   1.934   3.638   0.699 -0.4545 -0.5721 -0.9180
 9416TIP3    H252444   2.062   3.557   0.692  1.1428  1.7181  0.5209
 9417TIP3   OH252445   4.529   3.907   2.864 -0.4681 -0.1452 -0.2906
 9417TIP3    H152446   4.438   3.881   2.879  0.6396 -3.0856  2.5235
 9417TIP3    H252447   4.551   3.959   2.942  0.8881 -1.5844  0.3325
 9418TIP3   OH252448   7.118   7.258   1.476 -0.4643  0.2321 -0.1469
 9418TIP3    H152449   7.031   7.275   1.512 -0.3195 -1.4654  1.0843
 9418TIP3    H252450   7.163   7.342   1.483 -1.3369  0.6243  1.0959
 9419TIP3   OH252451   1.153   1.938   0.483 -0.1627 -0.3968  0.1330
 9419TIP3    H152452   1.150   1.911   0.575 -3.5653 -3.0027 -0.5239
 9419TIP3    H252453   1.215   1.877   0.443  0.6961  0.2022  0.5208
 9420TIP3   OH252454   5.244   5.820   0.558 -0.2308  0.4257  0.1492
 9420TIP3    H152455   5.187   5.895   0.542  0.9255  1.3651  0.3002
 9420TIP3    H252456   5.226   5.794   0.648 -1.2312 -0.0368 -0.1591
 9421TIP3   OH252457   7.424   3.237   2.415  0.0751  0.0703 -0.0063
 9421TIP3    H152458   7.470   3.225   2.332 -0.0176  1.4576 -0.2780
 9421TIP3    H252459   7.378   3.154   2.429 -0.0962 -0.1101 -1.4548
 9422TIP3   OH252460   2.167   1.821   1.053 -0.0015  0.4056  0.0939
 9422TIP3    H152461   2.217   1.743   1.029 -0.7970 -0.3088  0.7047
 9422TIP3    H252462   2.222   1.864   1.119  0.2539  0.1500  0.0516
 9423TIP3   OH252463   7.499   4.279   1.941  0.6084 -0.5671  0.5073
 9423TIP3    H152464   7.439   4.225   1.993  0.5810 -1.2137 -0.1792
 9423TIP3    H252465   7.501   4.237   1.855  0.8069  0.3770  0.0376
 9424TIP3   OH252466   7.293   4.801   2.376 -0.1196 -0.1262 -0.0178
 9424TIP3    H152467   7.260   4.720   2.415  1.8978 -1.6801 -1.3407
 9424TIP3    H252468   7.246   4.809   2.293 -1.1239  0.7067  0.6109
 9425TIP3   OH252469   6.577   4.204   0.817 -0.4199 -0.0375  0.0650
 9425TIP3    H152470   6.518   4.279   0.820 -2.0559 -1.1807 -1.4610
 9425TIP3    H252471   6.523   4.130   0.844  1.4024 -0.6131  2.4486
 9426TIP3   OH252472   4.613   7.297   1.592 -0.3844 -0.4148  0.3810
 9426TIP3    H152473   4.627   7.336   1.505  1.1249 -0.5708  0.5280
 9426TIP3    H252474   4.520   7.312   1.610 -0.6327 -0.0130 -1.0806
 9427TIP3   OH252475   2.570   1.324   0.730 -0.0608 -0.1907  0.7216
 9427TIP3    H152476   2.583   1.395   0.666  0.0630 -1.0418 -0.2142
 9427TIP3    H252477   2.650   1.325   0.782  0.1859 -0.0032  0.3516
 9428TIP3   OH252478   2.477   6.750   2.654  0.0984 -0.2303 -0.7493
 9428TIP3    H152479   2.480   6.839   2.618 -0.8505 -0.3901 -1.2550
 9428TIP3    H252480   2.411   6.755   2.724  0.0699 -0.5260 -0.7549
 9429TIP3   OH252481   5.286   1.787   2.117 -0.0056  0.2026 -0.7822
 9429TIP3    H152482   5.287   1.701   2.159 -0.5291  0.3253 -0.5073
 9429TIP3    H252483   5.193   1.808   2.108  0.0223  2.0950  1.9482
 9430TIP3   OH252484   2.611   0.501   3.141 -0.2767 -0.1083  0.4421
 9430TIP3    H152485   2.605   0.560   3.216 -3.0539 -0.5363  0.6701
 9430TIP3    H252486   2.564   0.546   3.071 -1.9324 -1.6811  0.4468
 9431TIP3   OH252487   0.579   0.350   2.103  0.3367  0.3820 -0.7341
 9431TIP3    H152488   0.485   0.341   2.086 -0.1149 -1.9510  2.2243
 9431TIP3    H252489   0.585   0.421   2.166  0.8714  1.8897 -2.3926
 9432TIP3   OH252490   7.026   7.293   1.902 -0.2778 -0.3151 -0.3561
 9432TIP3    H152491   7.091   7.279   1.971  0.0030  0.2759 -0.4972
 9432TIP3    H252492   7.003   7.205   1.873  0.4264 -0.5349 -0.2694
 9433TIP3   OH252493   3.698   0.362   1.556  0.0607  0.2461 -0.2273
 9433TIP3    H152494   3.683   0.422   1.629  0.2556 -0.4589  0.4001
 9433TIP3    H252495   3.618   0.367   1.504  0.9622  2.9422 -1.6062
 9434TIP3   OH252496   1.953   0.040   0.536  0.1822 -0.2184  0.1526
 9434TIP3    H152497   2.029   0.054   0.479  1.3463  0.9601  1.8990
 9434TIP3    H252498   1.990   0.033   0.624 -1.7646  1.1440  1.1571
 9435TIP3   OH252499   7.379   7.554   1.977  0.0671 -0.8379  0.0383
 9435TIP3    H152500   7.408   7.638   2.012 -1.4461  0.4884 -1.7009
 9435TIP3    H252501   7.456   7.519   1.931  0.3117  0.2845 -0.4251
 9436TIP3   OH252502   5.699   1.488   2.586 -0.1042 -0.1764 -0.3386
 9436TIP3    H152503   5.667   1.550   2.521 -0.0220  0.7411  0.4853
 9436TIP3    H252504   5.691   1.402   2.543 -2.1981  0.1664 -0.7248
 9437TIP3   OH252505   3.797   3.981   2.533 -0.1212  0.5532 -0.3745
 9437TIP3    H152506   3.755   3.984   2.619 -1.7838 -0.2001 -1.1115
 9437TIP3    H252507   3.736   4.026   2.474 -0.9919 -2.3061 -1.8565
 9438TIP3   OH252508   1.109   1.945   1.018  0.5926 -0.2862 -0.0046
 9438TIP3    H152509   1.102   1.961   0.923  0.0111  0.7631  0.1958
 9438TIP3    H252510   1.024   1.910   1.043 -0.0703  1.5672  0.4887
 9439TIP3   OH252511   2.678   2.480   1.793  0.1169  0.3928  0.1076
 9439TIP3    H152512   2.760   2.490   1.840  0.0684  0.9502  0.0797
 9439TIP3    H252513   2.639   2.567   1.792 -0.1668  0.2706 -0.4457
 9440TIP3   OH252514   6.217   3.361   0.659  0.1026 -0.0963  1.3226
 9440TIP3    H152515   6.236   3.431   0.598 -1.1887 -1.0501 -0.2598
 9440TIP3    H252516   6.290   3.362   0.721  1.5717  0.7665 -0.3516
 9441TIP3   OH252517   1.538   3.678   2.402  0.5021 -0.2334  0.2611
 9441TIP3    H152518   1.485   3.744   2.358 -0.0568 -0.3537  0.7432
 9441TIP3    H252519   1.531   3.699   2.495 -1.0146 -1.8997  0.5843
 9442TIP3   OH252520   2.697   0.283   0.632 -0.0000 -0.7735 -0.2058
 9442TIP3    H152521   2.668   0.227   0.560 -4.6528  1.5721 -0.5723
 9442TIP3    H252522   2.673   0.234   0.711 -0.6952 -0.8516 -0.4526
 9443TIP3   OH252523   6.777   0.010   1.960  0.3360  0.2165  0.6716
 9443TIP3    H152524   6.748   0.009   2.051 -0.1347 -0.1313  0.5223
 9443TIP3    H252525   6.765   0.101   1.932  0.5730  0.3443  0.9829
 9444TIP3   OH252526   4.444   6.415   0.549  0.1374 -0.3696 -0.4768
 9444TIP3    H152527   4.514   6.479   0.557  0.4927 -0.9751  2.0924
 9444TIP3    H252528   4.367   6.459   0.585 -0.0814 -0.7297 -0.5016
 9445TIP3   OH252529   5.660   4.786   1.362  0.2641  0.5495 -0.1500
 9445TIP3    H152530   5.610   4.867   1.362  1.2438  1.1751  0.7307
 9445TIP3    H252531   5.629   4.738   1.440 -0.9888 -0.3843 -1.1769
 9446TIP3   OH252532   1.595   7.598   1.143 -0.0630 -0.6308 -0.0333
 9446TIP3    H152533   1.674   7.568   1.098 -1.0276 -0.7282 -1.7515
 9446TIP3    H252534   1.546   7.518   1.162 -0.1868 -0.5055  0.1830
 9447TIP3   OH252535   6.972   5.148   2.251 -0.1588  0.1261  0.7547
 9447TIP3    H152536   7.043   5.200   2.213 -1.2698  1.3386  0.2634
 9447TIP3    H252537   7.002   5.127   2.340  1.2045 -0.2160  0.2353
 9448TIP3   OH252538   0.400   4.436   3.289 -0.1017  0.2365  0.4978
 9448TIP3    H152539   0.336   4.488   3.239 -1.2453 -0.4032  1.2440
 9448TIP3    H252540   0.476   4.430   3.232 -1.4585 -0.7267 -1.3335
 9449TIP3   OH252541   0.920   0.521   2.816  0.0432  0.4214 -0.4450
 9449TIP3    H152542   0.938   0.452   2.879  2.7742  0.6420 -0.8616
 9449TIP3    H252543   0.869   0.586   2.865 -1.5024 -1.2627  0.2828
 9450TIP3   OH252544   1.932   3.932   3.130 -0.4019  0.1525 -0.3387
 9450TIP3    H152545   1.969   4.014   3.164 -0.2592  0.2341 -0.6832
 9450TIP3    H252546   1.906   3.883   3.207  2.0194 -0.6751  0.0221
 9451TIP3   OH252547   3.138   6.228   2.425 -0.7798  0.8410 -0.2561
 9451TIP3    H152548   3.160   6.136   2.437 -1.0212  0.9913  1.7652
 9451TIP3    H252549   3.206   6.261   2.366 -0.8751 -0.6792 -1.2605
 9452TIP3   OH252550   6.531   6.787   0.609  0.3138  0.4687 -0.3141
 9452TIP3    H152551   6.604   6.772   0.548 -0.3594  1.6897 -1.4743
 9452TIP3    H252552   6.466   6.722   0.584  0.8004 -0.3156  0.4148
 9453TIP3   OH252553   4.212   4.967   2.294  0.0017 -0.6970  0.4336
 9453TIP3    H152554   4.157   4.988   2.219 -1.7968 -1.4374  1.4850
 9453TIP3    H252555   4.299   4.999   2.269 -0.7378 -0.0376 -1.5374
 9454TIP3   OH252556   5.619   3.724   0.627  0.1829  0.1488 -1.0005
 9454TIP3    H152557   5.596   3.637   0.595 -0.5120  0.9721 -2.9161
 9454TIP3    H252558   5.551   3.745   0.691 -0.8269  0.0640 -2.0224
 9455TIP3   OH252559   7.672   4.397   2.721  0.4475  0.3854 -0.4845
 9455TIP3    H152560   7.606   4.463   2.742 -1.5661 -1.4553 -0.7725
 9455TIP3    H252561   7.705   4.368   2.806 -1.0438 -0.5187 -0.1778
 9456TIP3   OH252562   2.610   2.356   0.744  0.2889  0.0857  0.1677
 9456TIP3    H152563   2.523   2.360   0.784  0.1914  2.1086 -0.1268
 9456TIP3    H252564   2.594   2.335   0.652  0.1473 -0.0700  0.2293
 9457TIP3   OH252565   0.894   3.713   0.530  0.4394 -0.1682  0.3500
 9457TIP3    H152566   0.967   3.775   0.531  0.6490 -0.4135  1.3312
 9457TIP3    H252567   0.897   3.671   0.617 -0.2842 -0.8581  0.0519
 9458TIP3   OH252568   2.641   2.171   2.151 -0.2006 -0.0853 -0.1422
 9458TIP3    H152569   2.698   2.211   2.086  0.5484  0.4421  0.8116
 9458TIP3    H252570   2.623   2.242   2.214 -1.5139 -0.3719 -0.1523
 9459TIP3   OH252571   2.356   3.969   1.436  0.0109  0.0708  0.5118
 9459TIP3    H152572   2.329   4.029   1.505  0.6199 -0.1396  0.9345
 9459TIP3    H252573   2.435   4.009   1.399 -1.3156  1.1724 -1.3478
 9460TIP3   OH252574   1.082   7.472   1.069  0.3446  0.0178 -0.7275
 9460TIP3    H152575   1.157   7.477   1.010  2.2959 -0.9055  1.4921
 9460TIP3    H252576   1.092   7.549   1.125  0.7565 -1.0695  0.7502
 9461TIP3   OH252577   2.863   5.752   2.509 -0.3288  0.4135  0.1490
 9461TIP3    H152578   2.885   5.823   2.449 -0.9902  0.7267  0.2720
 9461TIP3    H252579   2.944   5.734   2.556  0.3939 -0.3020 -1.3081
 9462TIP3   OH252580   1.469   4.714   2.159 -0.1816 -0.6435 -0.6957
 9462TIP3    H152581   1.388   4.760   2.140 -0.9268 -1.4741  0.3313
 9462TIP3    H252582   1.521   4.777   2.210 -1.7003 -1.2292  1.7894
 9463TIP3   OH252583   4.237   4.448   2.186  0.4654  0.0211 -0.5422
 9463TIP3    H152584   4.197   4.526   2.224 -0.1871 -0.9410  0.8199
 9463TIP3    H252585   4.328   4.450   2.218  1.0895  1.2643 -2.1999
 9464TIP3   OH252586   1.796   3.626   0.839  0.0308  0.4768  0.2467
 9464TIP3    H152587   1.825   3.676   0.916  1.1790 -3.8310  2.9860
 9464TIP3    H252588   1.701   3.629   0.843  0.0710  0.6257  1.6430
 9465TIP3   OH252589   2.697   7.096   1.809 -0.0829 -0.7939 -0.1711
 9465TIP3    H152590   2.770   7.040   1.835 -0.7722 -1.9861 -0.7451
 9465TIP3    H252591   2.725   7.133   1.725  1.4020  1.7014  1.2801
 9466TIP3   OH252592   1.875   4.078   2.548 -0.2409 -0.0200 -0.6655
 9466TIP3    H152593   1.945   4.024   2.585 -0.6900 -0.1601 -0.0044
 9466TIP3    H252594   1.810   4.015   2.517 -1.1507  0.1131  0.8538
 9467TIP3   OH252595   6.912   4.876   2.187 -0.8949 -0.7672 -0.6685
 9467TIP3    H152596   6.837   4.839   2.235 -0.9382 -0.0375 -0.1564
 9467TIP3    H252597   6.905   4.970   2.200  0.7507 -0.7443  0.3813
 9468TIP3   OH252598   1.404   0.199   2.531  0.0412  0.2940  0.2077
 9468TIP3    H152599   1.383   0.292   2.544 -0.7180 -0.0571  1.6961
 9468TIP3    H252600   1.325   0.163   2.491  0.4789  0.3459 -0.7272
 9469TIP3   OH252601   4.066   6.594   1.370 -0.4077  0.0195 -0.5292
 9469TIP3    H152602   4.037   6.605   1.279 -0.9994  1.6803 -0.1718
 9469TIP3    H252603   4.155   6.629   1.370 -0.5112  0.2825 -0.4140
 9470TIP3   OH252604   1.638   3.941   2.878  0.4682  0.0255 -0.6098
 9470TIP3    H152605   1.664   4.033   2.885  0.5048 -0.1254  1.7443
 9470TIP3    H252606   1.719   3.895   2.858  0.8063  0.3034  0.0926
 9471TIP3   OH252607   0.092   4.251   1.811  0.0321 -0.2284 -0.0387
 9471TIP3    H152608   0.053   4.179   1.762 -1.1289  0.3000  0.0928
 9471TIP3    H252609   0.018   4.303   1.841  0.8072  0.4541  0.7530
 9472TIP3   OH252610   6.458   3.748   0.816  0.2344 -0.3291 -0.0057
 9472TIP3    H152611   6.548   3.782   0.815 -0.0397  0.4402 -1.5813
 9472TIP3    H252612   6.405   3.820   0.850  0.2648 -0.9982  1.5216
 9473TIP3   OH252613   4.875   3.647   1.786  0.1938 -0.3764 -0.0476
 9473TIP3    H152614   4.860   3.584   1.856 -0.4154 -0.4539 -0.2370
 9473TIP3    H252615   4.803   3.632   1.724 -0.5187  1.0988  0.3515
 9474TIP3   OH252616   0.739   2.020   1.862 -0.4561  0.4868  1.0764
 9474TIP3    H152617   0.750   2.055   1.774 -1.8707 -1.9015 -0.1630
 9474TIP3    H252618   0.670   2.074   1.901 -3.1720 -1.1396 -1.0708
 9475TIP3   OH252619   3.237   3.369   1.299  0.1279  0.2700 -0.6990
 9475TIP3    H152620   3.305   3.302   1.293  0.0059  0.1102 -0.3105
 9475TIP3    H252621   3.286   3.451   1.313  0.2694  0.2529 -1.0589
 9476TIP3   OH252622   2.284   6.971   0.812 -0.2497 -0.7821  0.1805
 9476TIP3    H152623   2.288   6.933   0.900 -1.0010 -0.1110  0.5209
 9476TIP3    H252624   2.192   6.960   0.786  0.0289 -1.2186 -0.6353
 9477TIP3   OH252625   2.858   5.523   1.403  0.3196 -0.5253  0.1766
 9477TIP3    H152626   2.775   5.507   1.448 -0.1375 -1.4641 -0.9328
 9477TIP3    H252627   2.845   5.486   1.316  1.6732 -0.0565 -0.2518
 9478TIP3   OH252628   5.174   6.276   2.858  0.2090 -0.2859 -0.0926
 9478TIP3    H152629   5.152   6.365   2.832  1.5075  0.1331  0.1694
 9478TIP3    H252630   5.092   6.227   2.850 -0.8811  1.2461  1.1578
 9479TIP3   OH252631   4.498   1.923   2.677  0.1712  0.3090  0.8735
 9479TIP3    H152632   4.572   1.945   2.620 -1.0433  1.0622 -0.4633
 9479TIP3    H252633   4.539   1.888   2.756  1.9178 -1.1681 -0.5946
 9480TIP3   OH252634   1.808   1.413   2.887 -0.8381 -0.2383  0.0293
 9480TIP3    H152635   1.717   1.440   2.869 -0.5056  0.8564 -0.0964
 9480TIP3    H252636   1.799   1.335   2.941 -1.8603 -0.2274 -0.0922
 9481TIP3   OH252637   3.744   6.418   1.018  0.0858 -0.7545 -0.2113
 9481TIP3    H152638   3.731   6.394   1.110  0.9140  1.7264  0.6127
 9481TIP3    H252639   3.674   6.372   0.972 -1.9923 -0.0339  2.0184
 9482TIP3   OH252640   2.934   0.146   0.646  0.1106  0.5318 -0.1762
 9482TIP3    H152641   2.949   0.170   0.738  0.2238  0.2169 -0.1120
 9482TIP3    H252642   2.857   0.198   0.621  0.7646  1.4814 -0.2530
 9483TIP3   OH252643   4.509   2.312   1.778 -0.5734 -0.3950  0.2916
 9483TIP3    H152644   4.601   2.308   1.806 -0.7818 -0.7074  0.9546
 9483TIP3    H252645   4.465   2.247   1.832 -1.0658 -0.7447 -0.5249
 9484TIP3   OH252646   4.231   6.056   1.021 -0.3833  0.0414 -0.0717
 9484TIP3    H152647   4.148   6.035   1.065 -0.2804 -4.4605 -1.5643
 9484TIP3    H252648   4.214   6.038   0.928  2.0566 -0.3019 -0.5160
 9485TIP3   OH252649   4.356   0.166   2.418  0.4412 -0.0479  0.5788
 9485TIP3    H152650   4.270   0.139   2.387 -0.4729  0.9397  2.1798
 9485TIP3    H252651   4.408   0.086   2.418 -0.3060 -0.5582 -0.8788
 9486TIP3   OH252652   0.357   6.030   0.512 -0.2142  0.7674 -0.2996
 9486TIP3    H152653   0.364   6.032   0.417  0.6552 -1.6539 -0.3533
 9486TIP3    H252654   0.300   6.104   0.533 -0.8790  1.0374 -2.7268
 9487TIP3   OH252655   3.490   5.366   2.548  0.0134  0.2501  0.2535
 9487TIP3    H152656   3.499   5.452   2.590  0.6863 -0.2081  1.0757
 9487TIP3    H252657   3.408   5.372   2.499 -0.1159  1.2508  0.5589
 9488TIP3   OH252658   3.169   7.434   2.341 -0.5329 -0.5809 -0.3409
 9488TIP3    H152659   3.220   7.412   2.263 -1.6019 -0.1155 -1.1973
 9488TIP3    H252660   3.226   7.493   2.391  1.0740 -2.5921  0.3999
 9489TIP3   OH252661   3.707   1.357   2.759 -0.1121 -0.0418 -0.2749
 9489TIP3    H152662   3.620   1.327   2.783  0.1552 -0.5446  0.0822
 9489TIP3    H252663   3.762   1.335   2.835  0.0200  1.7124  0.2004
 9490TIP3   OH252664   5.111   0.408   0.821 -0.5041 -0.0708 -0.0913
 9490TIP3    H152665   5.203   0.432   0.830 -1.1601  2.9068 -0.3204
 9490TIP3    H252666   5.074   0.417   0.909 -1.3347  2.6603 -0.6491
 9491TIP3   OH252667   7.303   3.754   1.152 -0.6312  0.1372  0.0042
 9491TIP3    H152668   7.270   3.813   1.219 -1.8315  1.6569 -1.8086
 9491TIP3    H252669   7.227   3.732   1.098  0.4314 -0.2194 -1.4484
 9492TIP3   OH252670   1.864   6.134   1.530 -0.1863  0.3550 -0.5779
 9492TIP3    H152671   1.817   6.167   1.454 -1.1851 -0.1551 -0.2069
 9492TIP3    H252672   1.803   6.071   1.570  1.4897 -1.7377 -1.1025
 9493TIP3   OH252673   6.904   5.780   2.286 -0.3342 -0.2762 -0.0716
 9493TIP3    H152674   6.952   5.798   2.205 -1.6029  0.3660 -0.7043
 9493TIP3    H252675   6.970   5.745   2.346  0.9903  0.9059 -0.7925
 9494TIP3   OH252676   0.829   5.722   2.273 -0.3504 -0.4431  0.4658
 9494TIP3    H152677   0.840   5.735   2.179 -2.0105 -0.9622  0.1585
 9494TIP3    H252678   0.744   5.678   2.281  0.6173 -2.1632  2.0668
 9495TIP3   OH252679   2.728   1.206   1.421 -0.2340 -0.3766  0.6218
 9495TIP3    H152680   2.694   1.126   1.462  1.6886 -1.2321  0.6739
 9495TIP3    H252681   2.774   1.252   1.491  1.5030 -0.9315 -0.0857
 9496TIP3   OH252682   4.028   6.578   1.098 -0.5738  0.5889  0.3280
 9496TIP3    H152683   4.004   6.513   1.032  0.6337 -0.3931  0.7965
 9496TIP3    H252684   4.044   6.658   1.049 -2.3148  0.6330 -0.2424
 9497TIP3   OH252685   5.179   7.585   2.134 -0.2995 -0.1590 -0.5452
 9497TIP3    H152686   5.137   7.511   2.177 -1.3475  0.2130 -0.9152
 9497TIP3    H252687   5.176   7.564   2.041  2.1313 -1.0547 -0.5004
 9498TIP3   OH252688   6.201   0.709   1.322 -0.3054  0.5956 -0.2888
 9498TIP3    H152689   6.209   0.801   1.295 -0.3477  0.9322  0.7841
 9498TIP3    H252690   6.261   0.701   1.396 -2.2400  0.4725  1.3392
 9499TIP3   OH252691   3.457   7.294   1.657 -0.4982  0.0077 -0.2099
 9499TIP3    H152692   3.383   7.243   1.626  0.9915 -1.2427 -1.9009
 9499TIP3    H252693   3.435   7.385   1.636 -2.0382 -0.1813  0.4586
 9500TIP3   OH252694   4.583   7.206   2.807 -0.9978  0.2929 -0.3276
 9500TIP3    H152695   4.549   7.175   2.890 -1.6779  1.3400 -0.1973
 9500TIP3    H252696   4.618   7.128   2.764 -0.1076 -0.1656  1.1769
 9501TIP3   OH252697   0.358   4.813   1.496  0.1316  0.0146  0.1300
 9501TIP3    H152698   0.344   4.858   1.579 -0.5348  1.7123 -0.8587
 9501TIP3    H252699   0.360   4.720   1.520  0.3002  0.4676  2.0699
 9502TIP3   OH252700   6.273   6.473   1.038 -0.0069  0.0204 -0.2858
 9502TIP3    H152701   6.284   6.381   1.015 -0.2917 -0.2045  0.4210
 9502TIP3    H252702   6.361   6.503   1.059  0.1770  0.0875 -1.1233
 9503TIP3   OH252703   3.150   7.540   2.017 -0.1843 -0.3843 -0.3485
 9503TIP3    H152704   3.226   7.594   1.995 -0.5890  0.3336 -0.0373
 9503TIP3    H252705   3.076   7.587   1.979 -0.3920 -1.5290 -1.3996
 9504TIP3   OH252706   3.597   6.818   1.189 -0.6081 -0.0081 -0.0805
 9504TIP3    H152707   3.614   6.784   1.101 -0.4399  0.5128 -0.2496
 9504TIP3    H252708   3.529   6.884   1.176 -1.3143 -0.6351  0.3185
 9505TIP3   OH252709   4.627   6.662   2.307  0.2430 -0.1416  0.5332
 9505TIP3    H152710   4.715   6.624   2.299 -0.3612 -1.1658 -2.3969
 9505TIP3    H252711   4.588   6.615   2.381  1.1947 -1.8342  0.0219
 9506TIP3   OH252712   5.140   7.672   1.165  0.1293  0.9273 -0.3211
 9506TIP3    H152713   5.158   7.661   1.072 -2.3173  0.5819 -0.8239
 9506TIP3    H252714   5.072   7.608   1.184  0.0397  1.5154  1.5336
 9507TIP3   OH252715   7.581   5.597   1.279 -0.9032  0.1948  0.2040
 9507TIP3    H152716   7.549   5.579   1.190 -1.1729 -0.1883  0.3755
 9507TIP3    H252717   7.639   5.523   1.298  0.3923  1.0672 -0.2471
 9508TIP3   OH252718   2.724   5.822   1.749  0.2776  0.1341 -0.0468
 9508TIP3    H152719   2.693   5.824   1.659  0.7425  0.6229 -0.2054
 9508TIP3    H252720   2.813   5.787   1.743  0.2093 -0.0912  0.2522
 9509TIP3   OH252721   6.907   3.467   2.421  0.4853 -0.6553 -0.2037
 9509TIP3    H152722   6.931   3.375   2.437 -0.0887 -0.6617  0.6355
 9509TIP3    H252723   6.985   3.504   2.379  1.7098 -0.8957  1.7154
 9510TIP3   OH252724   6.390   4.620   0.947 -0.1290 -0.2593 -0.4654
 9510TIP3    H152725   6.340   4.543   0.973  1.4747 -0.7123  1.4161
 9510TIP3    H252726   6.435   4.593   0.866  0.8304 -1.5128  0.4521
 9511TIP3   OH252727   3.251   7.094   1.623  0.0669  0.1248  0.4107
 9511TIP3    H152728   3.157   7.107   1.618  0.0191 -0.5858 -1.1271
 9511TIP3    H252729   3.261   7.002   1.647  0.3528 -0.0148 -0.2199
 9512TIP3   OH252730   0.319   5.001   1.114  0.2723  0.2533  0.3105
 9512TIP3    H152731   0.240   4.949   1.125  0.2155  0.4924  1.1343
 9512TIP3    H252732   0.341   5.030   1.203  0.9459  0.6809  0.0151
 9513TIP3   OH252733   2.650   4.986   1.814  0.5378 -0.9938  0.7151
 9513TIP3    H152734   2.570   4.973   1.761 -0.4854  1.3607  1.5681
 9513TIP3    H252735   2.722   4.968   1.753 -0.5948  1.1595 -1.4101
 9514TIP3   OH252736   2.519   6.324   0.442 -0.8309  0.9440 -0.0528
 9514TIP3    H152737   2.508   6.366   0.357  0.3171  0.5684 -0.3952
 9514TIP3    H252738   2.436   6.278   0.456 -0.0304 -1.5047 -2.4013
 9515TIP3   OH252739   5.194   2.996   0.951 -0.4077  0.0045  0.8332
 9515TIP3    H152740   5.228   2.949   0.875 -0.8805 -0.3262  0.8189
 9515TIP3    H252741   5.243   3.078   0.952  0.0547 -0.2633  0.5486
 9516TIP3   OH252742   6.767   3.170   0.853 -0.3783 -0.2584 -0.1476
 9516TIP3    H152743   6.698   3.165   0.787  0.2216  0.3525 -0.8416
 9516TIP3    H252744   6.755   3.256   0.894  0.6663  0.3954 -1.1086
 9517TIP3   OH252745   1.923   0.600   1.138 -0.2040  0.6187 -0.3050
 9517TIP3    H152746   2.019   0.608   1.143 -0.0825 -0.6070 -0.3968
 9517TIP3    H252747   1.894   0.685   1.106  0.8089  1.2003  0.2353
 9518TIP3   OH252748   2.661   4.519   3.294  0.2479 -0.2279  0.0825
 9518TIP3    H152749   2.702   4.487   3.375 -0.7749  0.5194  0.9256
 9518TIP3    H252750   2.597   4.584   3.324 -1.5009 -1.2877 -1.1858
 9519TIP3   OH252751   5.345   3.241   2.501 -0.2006  0.4570  0.3323
 9519TIP3    H152752   5.291   3.229   2.579 -0.5230 -0.4050 -0.0130
 9519TIP3    H252753   5.434   3.252   2.534  0.0114 -2.0777  0.7640
 9520TIP3   OH252754   2.263   2.128   0.991  0.2094  0.0990 -0.0398
 9520TIP3    H152755   2.270   2.211   0.944  1.5398  0.3428  0.5470
 9520TIP3    H252756   2.291   2.062   0.928 -0.6566  0.0943 -0.4416
 9521TIP3   OH252757   3.686   0.871   2.413  0.4350 -0.2102  0.2564
 9521TIP3    H152758   3.674   0.851   2.320 -0.0167  1.3833 -0.0641
 9521TIP3    H252759   3.646   0.958   2.424  2.0576  0.4312  1.5541
 9522TIP3   OH252760   2.974   6.583   2.776  0.3578 -0.2883  0.1495
 9522TIP3    H152761   3.037   6.526   2.821 -0.1274 -1.2553 -0.3591
 9522TIP3    H252762   2.889   6.545   2.796  0.1323 -0.7898 -1.6148
 9523TIP3   OH252763   3.498   4.784   2.588 -0.2195 -0.4242  1.2065
 9523TIP3    H152764   3.466   4.698   2.613  1.1343 -0.5718  2.5582
 9523TIP3    H252765   3.558   4.809   2.658  3.0396 -0.3943 -1.3349
 9524TIP3   OH252766   0.113   4.686   2.321 -0.1745  0.0049 -0.0636
 9524TIP3    H152767   0.036   4.639   2.355  0.3007 -0.4206  0.4522
 9524TIP3    H252768   0.114   4.769   2.369 -1.3161  0.8006 -1.3519
 9525TIP3   OH252769   6.065   4.719   3.304  0.1168 -0.4004 -0.1130
 9525TIP3    H152770   6.156   4.690   3.297  0.6532  1.4942 -1.7401
 9525TIP3    H252771   6.070   4.806   3.344 -0.7665  0.5939 -2.0495
 9526TIP3   OH252772   5.469   3.345   1.079  0.1287  0.4576 -0.2244
 9526TIP3    H152773   5.547   3.390   1.047 -0.1125  0.6303 -0.5614
 9526TIP3    H252774   5.503   3.263   1.115  0.5886  0.9681  0.5423
 9527TIP3   OH252775   2.240   5.949   0.921  0.3264  0.1757 -0.4826
 9527TIP3    H152776   2.227   6.041   0.943  0.5336  0.2237 -0.5571
 9527TIP3    H252777   2.161   5.905   0.954  1.2381  0.0125  1.6483
 9528TIP3   OH252778   3.405   3.804   1.489 -0.2126  0.1615 -0.7038
 9528TIP3    H152779   3.388   3.852   1.570 -0.7403 -0.5032 -0.4054
 9528TIP3    H252780   3.470   3.857   1.443  1.4457 -0.3101  0.9476
 9529TIP3   OH252781   1.574   0.940   2.273  0.0726 -0.8518  0.0571
 9529TIP3    H152782   1.535   0.856   2.250  0.0837 -1.0370  0.6884
 9529TIP3    H252783   1.504   1.004   2.262 -0.1431 -1.0509  0.2770
 9530TIP3   OH252784   3.262   0.232   2.228  0.1245 -0.2934  0.1928
 9530TIP3    H152785   3.166   0.238   2.232  0.0120 -2.1876  1.9652
 9530TIP3    H252786   3.287   0.300   2.166 -2.4375 -0.5731 -1.3005
 9531TIP3   OH252787   1.880   0.772   0.870 -0.7718  0.0628  0.6913
 9531TIP3    H152788   1.792   0.740   0.851 -0.9151  1.8954 -2.3788
 9531TIP3    H252789   1.936   0.696   0.856 -1.5923 -0.3209 -0.6938
 9532TIP3   OH252790   2.298   5.955   2.888 -0.2387  0.1698  0.5039
 9532TIP3    H152791   2.322   5.863   2.878  0.3877  0.4091 -0.2812
 9532TIP3    H252792   2.363   5.991   2.948 -0.9818 -0.0854  1.4784
 9533TIP3   OH252793   0.259   0.239   2.053  0.3399 -0.7307 -0.5367
 9533TIP3    H152794   0.289   0.311   2.109 -2.4428 -0.0713  0.2318
 9533TIP3    H252795   0.267   0.161   2.108 -1.8438 -0.1658  0.6898
 9534TIP3   OH252796   0.118   7.179   1.904 -0.8630 -0.4709  0.2408
 9534TIP3    H152797   0.086   7.253   1.957 -2.2317 -0.5679 -0.4028
 9534TIP3    H252798   0.118   7.105   1.964  2.5103  0.3630  1.4994
 9535TIP3   OH252799   0.759   6.385   2.448  0.2922  0.1351 -0.5986
 9535TIP3    H152800   0.832   6.416   2.501 -0.4296  0.0991  0.4435
 9535TIP3    H252801   0.693   6.355   2.512  0.3503 -2.1795 -1.5279
 9536TIP3   OH252802   6.018   7.304   0.577 -0.2345 -0.4634  0.0623
 9536TIP3    H152803   6.089   7.335   0.633  0.0223 -2.0944  0.7070
 9536TIP3    H252804   6.030   7.350   0.495  0.3421  0.7968  0.8326
 9537TIP3   OH252805   6.805   1.661   2.162  0.2574  0.1285  0.1253
 9537TIP3    H152806   6.796   1.617   2.247  0.7254 -0.4724 -0.1297
 9537TIP3    H252807   6.897   1.651   2.139 -0.0050 -0.3253 -0.7767
 9538TIP3   OH252808   1.117   2.244   0.576 -0.1513 -0.3082 -0.0487
 9538TIP3    H152809   1.066   2.177   0.530  0.3366 -0.5065 -0.3110
 9538TIP3    H252810   1.208   2.215   0.568 -0.0708 -0.5131  1.3222
 9539TIP3   OH252811   4.765   1.820   2.205  0.5391 -0.1521  0.2865
 9539TIP3    H152812   4.726   1.896   2.162 -0.4334  1.1185  3.1911
 9539TIP3    H252813   4.694   1.756   2.211  0.7784 -0.4787 -0.2998
 9540TIP3   OH252814   3.259   2.817   1.707  0.5054  0.0419 -0.1615
 9540TIP3    H152815   3.230   2.825   1.616 -1.5029 -0.4270  0.4075
 9540TIP3    H252816   3.341   2.867   1.710 -0.5737  2.0483 -1.6983
 9541TIP3   OH252817   0.678   7.511   0.996  0.4005 -0.2815 -0.2800
 9541TIP3    H152818   0.668   7.418   1.018 -0.1764 -0.5225 -1.4616
 9541TIP3    H252819   0.651   7.517   0.904  1.6152  0.8550 -0.5969
 9542TIP3   OH252820   7.052   7.550   1.069 -0.8312  0.7567 -0.5035
 9542TIP3    H152821   7.029   7.608   0.996 -0.3297  2.1494  0.3954
 9542TIP3    H252822   6.980   7.562   1.131 -0.2694  1.1467  0.0860
 9543TIP3   OH252823   4.390   4.965   2.829 -0.3324 -0.5084 -0.2204
 9543TIP3    H152824   4.320   4.934   2.772  0.5619 -0.3621 -1.4434
 9543TIP3    H252825   4.444   4.887   2.846  1.2736  0.0336 -2.3640
 9544TIP3   OH252826   7.556   1.309   1.453  0.1294  0.0218  0.1694
 9544TIP3    H152827   7.493   1.267   1.511 -0.0757  1.8203  1.3457
 9544TIP3    H252828   7.642   1.279   1.484 -0.0536 -0.7111 -0.0155
 9545TIP3   OH252829   2.106   0.829   0.386 -0.1108 -0.0670 -0.6707
 9545TIP3    H152830   2.122   0.805   0.294 -0.7246 -3.7139  0.0530
 9545TIP3    H252831   2.025   0.784   0.409  0.8466 -0.5286  2.1118
 9546TIP3   OH252832   1.205   2.804   1.091 -0.8714 -0.0313  0.1595
 9546TIP3    H152833   1.250   2.883   1.122  1.2377 -1.3092  0.6196
 9546TIP3    H252834   1.204   2.812   0.996  5.0184 -1.9877 -0.5034
 9547TIP3   OH252835   2.511   1.636   0.393 -0.3587  0.2261  0.3917
 9547TIP3    H152836   2.518   1.699   0.464  0.7146 -1.0487  1.4779
 9547TIP3    H252837   2.602   1.618   0.368 -0.6986  0.0625 -0.7599
 9548TIP3   OH252838   5.399   0.115   1.644  0.0698 -0.0252  0.4673
 9548TIP3    H152839   5.304   0.109   1.654  0.1441  0.4485  1.5848
 9548TIP3    H252840   5.427   0.172   1.715  1.2271 -0.3606  0.3001
 9549TIP3   OH252841   1.283   2.002   1.575  0.1186 -0.5369  0.3541
 9549TIP3    H152842   1.374   2.030   1.568  0.1044 -0.6640 -0.3936
 9549TIP3    H252843   1.236   2.081   1.602  0.1728  0.0252 -1.1228
 9550TIP3   OH252844   6.541   0.211   2.028  0.0870 -0.1383  0.4210
 9550TIP3    H152845   6.600   0.246   1.962  1.0326 -0.0279  1.2982
 9550TIP3    H252846   6.463   0.266   2.022 -0.2765 -0.7812 -1.2924
 9551TIP3   OH252847   4.445   4.189   2.525 -0.1685 -0.2033  0.6967
 9551TIP3    H152848   4.421   4.233   2.444  0.0478  1.4749  1.4979
 9551TIP3    H252849   4.538   4.171   2.517 -0.3374 -0.8942  0.2075
 9552TIP3   OH252850   1.159   3.881   1.532  0.1695  0.0642 -0.7465
 9552TIP3    H152851   1.160   3.958   1.589 -1.1593 -0.1863 -0.3377
 9552TIP3    H252852   1.214   3.817   1.578  1.4762  0.8242 -1.2090
 9553TIP3   OH252853   1.216   3.703   1.010  0.2696  0.0163 -0.0837
 9553TIP3    H152854   1.137   3.711   1.064 -0.5886 -0.7542 -1.1764
 9553TIP3    H252855   1.186   3.661   0.929  2.0475 -1.7553  0.0785
 9554TIP3   OH252856   0.725   0.463   0.794  0.1319  0.1457 -0.5622
 9554TIP3    H152857   0.764   0.523   0.857  1.8074  0.3849 -1.7781
 9554TIP3    H252858   0.701   0.518   0.720  0.9771 -0.5456 -1.3739
 9555TIP3   OH252859   2.013   5.589   2.191  0.4567 -0.4242 -0.0130
 9555TIP3    H152860   1.978   5.635   2.115  1.7092  0.5925 -0.0216
 9555TIP3    H252861   1.965   5.624   2.265 -0.0947 -0.7012 -0.2374
 9556TIP3   OH252862   0.608   1.091   0.468  0.0184  0.2853  0.3454
 9556TIP3    H152863   0.602   1.174   0.515  0.1316 -0.4367  1.6718
 9556TIP3    H252864   0.562   1.107   0.386  1.5596  2.1981 -0.2366
 9557TIP3   OH252865   3.110   4.544   2.217  0.1158 -0.1802 -0.4364
 9557TIP3    H152866   3.200   4.533   2.186  1.1385  1.0089  1.8369
 9557TIP3    H252867   3.104   4.637   2.239 -1.8310 -0.1563 -0.8789
 9558TIP3   OH252868   7.093   7.599   1.954 -0.6576 -0.6866 -0.0160
 9558TIP3    H152869   7.087   7.691   1.980 -1.0298 -1.1748  1.7754
 9558TIP3    H252870   7.186   7.578   1.961 -0.2238  0.0853 -2.5708
 9559TIP3   OH252871   4.011   1.946   1.107 -0.9420  0.2117 -0.1593
 9559TIP3    H152872   3.959   1.876   1.146  0.9577 -1.3313 -0.2227
 9559TIP3    H252873   4.063   1.981   1.180 -0.0344 -0.2142 -0.5810
 9560TIP3   OH252874   2.449   6.426   0.990  0.5942 -0.1286  0.4200
 9560TIP3    H152875   2.453   6.473   0.907 -0.8946 -0.1065  0.3391
 9560TIP3    H252876   2.539   6.429   1.023  0.9185  1.1006 -0.4944
 9561TIP3   OH252877   3.731   5.774   0.963 -0.3719  0.2782  0.2922
 9561TIP3    H152878   3.821   5.789   0.935 -0.1769  0.2439  0.8872
 9561TIP3    H252879   3.692   5.861   0.969 -1.0891  0.1964 -2.2061
 9562TIP3   OH252880   3.333   1.954   0.891 -0.5325 -0.4008 -0.4460
 9562TIP3    H152881   3.418   1.914   0.910 -1.0224 -0.5094  1.7148
 9562TIP3    H252882   3.344   2.046   0.916 -0.6084 -0.0412 -1.6603
 9563TIP3   OH252883   3.386   1.669   2.701 -0.6014 -0.1013 -0.0979
 9563TIP3    H152884   3.329   1.616   2.756 -0.9089  0.4823  0.1586
 9563TIP3    H252885   3.463   1.615   2.687  1.0217  0.9505  3.6895
 9564TIP3   OH252886   3.781   3.697   2.559  0.0926  0.1433 -0.2759
 9564TIP3    H152887   3.747   3.672   2.646  1.6069  0.3411  0.4024
 9564TIP3    H252888   3.782   3.792   2.561  2.1945  0.1621  0.3819
 9565TIP3   OH252889   4.859   5.144   3.589 -0.2097  0.2253 -0.2192
 9565TIP3    H152890   4.942   5.103   3.563 -1.0911 -1.2346 -0.8705
 9565TIP3    H252891   4.851   5.220   3.531  0.8366  0.6134  0.1100
 9566TIP3   OH252892   1.150   0.012   1.478 -0.2431 -0.5687  0.0994
 9566TIP3    H152893   1.217  -0.012   1.413 -0.6063 -0.7814 -0.2006
 9566TIP3    H252894   1.200   0.036   1.556  0.3259  1.7852 -0.9144
 9567TIP3   OH252895   7.352   3.088   2.892  0.3577  0.3270  0.3662
 9567TIP3    H152896   7.278   3.066   2.836  1.7476  1.0414 -1.8527
 9567TIP3    H252897   7.422   3.029   2.864  1.8696  2.4386 -0.5382
 9568TIP3   OH252898   0.897   0.277   1.172  0.0621 -0.5556  0.1303
 9568TIP3    H152899   0.839   0.300   1.245  0.0971  0.9453 -0.2683
 9568TIP3    H252900   0.962   0.347   1.170 -0.9658  0.4826 -2.3950
 9569TIP3   OH252901   0.673   2.517   1.097 -0.4374 -0.5665 -0.6265
 9569TIP3    H152902   0.702   2.546   1.183 -0.0520 -1.5352 -0.4072
 9569TIP3    H252903   0.698   2.587   1.038  2.4039 -1.2838 -0.4522
 9570TIP3   OH252904   0.822   2.371   0.883  0.1931 -0.2257 -0.0010
 9570TIP3    H152905   0.867   2.455   0.895  0.1564 -0.3234  0.9382
 9570TIP3    H252906   0.754   2.371   0.951 -0.7463 -0.4059 -0.9174
 9571TIP3   OH252907   2.964   6.714   2.523 -0.4081 -0.6535 -0.5950
 9571TIP3    H152908   2.962   6.677   2.611 -1.0416  0.6107 -0.0444
 9571TIP3    H252909   2.874   6.703   2.490 -0.7380  0.7121 -0.2437
 9572TIP3   OH252910   6.926   2.676   2.843 -0.4211 -0.4253 -0.7403
 9572TIP3    H152911   6.863   2.606   2.859 -1.2417  0.4237 -0.1921
 9572TIP3    H252912   7.011   2.633   2.851 -0.9060 -1.3202 -0.2117
 9573TIP3   OH252913   2.107   2.707   2.586  0.2064 -0.1785  0.5053
 9573TIP3    H152914   2.062   2.686   2.668  0.1195  0.0158  0.5082
 9573TIP3    H252915   2.171   2.636   2.575  1.9167  1.0437  1.9902
 9574TIP3   OH252916   1.980   6.600   2.485 -0.5134 -0.6680 -0.3401
 9574TIP3    H152917   2.038   6.533   2.522 -0.5810 -0.1089  0.8528
 9574TIP3    H252918   1.892   6.571   2.507 -0.5365 -0.1331  0.3193
 9575TIP3   OH252919   6.774   2.489   3.016 -0.4760  0.5630 -0.4854
 9575TIP3    H152920   6.754   2.406   3.060  1.6501  0.8494  1.1820
 9575TIP3    H252921   6.689   2.532   3.007 -1.3280 -0.7087  0.9439
 9576TIP3   OH252922   5.712   7.439   1.470 -0.1226 -0.2475 -0.4111
 9576TIP3    H152923   5.797   7.396   1.455 -0.9454 -2.5034  0.8354
 9576TIP3    H252924   5.715   7.517   1.415  2.1350 -1.0789 -1.6284
 9577TIP3   OH252925   3.241   1.948   1.799 -0.2984  0.7737  0.0990
 9577TIP3    H152926   3.317   1.893   1.814 -0.8806 -1.0476 -2.8194
 9577TIP3    H252927   3.270   2.037   1.821  1.9208 -0.1416  1.1183
 9578TIP3   OH252928   3.164   1.629   2.050  0.7558  0.2892 -0.0336
 9578TIP3    H152929   3.253   1.649   2.022  0.5440  0.2398 -0.7855
 9578TIP3    H252930   3.113   1.706   2.022  0.7454  0.8539  1.4372
 9579TIP3   OH252931   5.286   6.050   3.078 -0.3411 -0.0168  0.7295
 9579TIP3    H152932   5.209   6.024   3.128 -0.9961 -0.2740 -0.3763
 9579TIP3    H252933   5.337   5.969   3.069  0.1135  0.1698  1.5293
 9580TIP3   OH252934   6.096   3.177   1.439 -0.3617  0.3436 -0.0121
 9580TIP3    H152935   6.164   3.166   1.372 -1.4312 -2.8675 -0.7603
 9580TIP3    H252936   6.137   3.149   1.520 -0.3531 -0.3331 -0.2349
 9581TIP3   OH252937   1.441   2.990   0.479  0.3550 -0.2724 -0.2230
 9581TIP3    H152938   1.393   3.046   0.541  0.5985 -0.8151  0.4664
 9581TIP3    H252939   1.469   3.050   0.410 -0.4899  0.2246 -0.1567
 9582TIP3   OH252940   2.816   4.421   1.932  0.3052 -0.0793 -0.5413
 9582TIP3    H152941   2.750   4.478   1.893 -0.7765  0.4286  1.8464
 9582TIP3    H252942   2.900   4.457   1.903 -0.3860 -0.0070 -2.6355
 9583TIP3   OH252943   5.349   0.639   0.636  0.3219 -0.0380  0.3897
 9583TIP3    H152944   5.395   0.723   0.622 -1.3869  1.1415  1.5477
 9583TIP3    H252945   5.261   0.664   0.664 -1.2189 -2.2029 -2.0175
 9584TIP3   OH252946   3.605   2.666   1.463 -0.0521  0.1527 -0.3107
 9584TIP3    H152947   3.584   2.576   1.490  0.2121 -0.0149 -0.6701
 9584TIP3    H252948   3.527   2.695   1.416 -0.7700  0.6548  1.1012
 9585TIP3   OH252949   3.648   4.339   2.015  0.3488 -1.1442 -0.0327
 9585TIP3    H152950   3.600   4.334   1.932  0.0869  0.8303 -0.0333
 9585TIP3    H252951   3.650   4.248   2.047 -0.2599 -1.8071 -1.7807
 9586TIP3   OH252952   2.192   7.055   2.531  0.2825  0.2925 -0.4864
 9586TIP3    H152953   2.270   7.002   2.517  0.7325  0.9358 -0.4362
 9586TIP3    H252954   2.211   7.107   2.609 -0.4755 -0.0515 -0.0524
 9587TIP3   OH252955   6.985   1.753   1.025 -0.3281 -0.0035  0.2237
 9587TIP3    H152956   6.900   1.709   1.015 -0.7020  0.8895 -0.7093
 9587TIP3    H252957   6.980   1.796   1.110 -0.5933 -0.4068  0.4170
 9588TIP3   OH252958   0.115   1.593   1.661 -0.5767  0.3319  0.3838
 9588TIP3    H152959   0.092   1.565   1.750  0.8366 -2.3357  0.0191
 9588TIP3    H252960   0.210   1.604   1.663 -0.5722  0.5933 -0.7087
 9589TIP3   OH252961   4.175   6.015   1.597  0.0945  0.1191  0.1269
 9589TIP3    H152962   4.268   6.007   1.618  0.6833  3.2833 -0.6166
 9589TIP3    H252963   4.135   6.049   1.677 -0.1207  0.2267 -0.0263
 9590TIP3   OH252964   0.555   0.445   1.168 -0.4356 -0.0315 -0.0411
 9590TIP3    H152965   0.532   0.363   1.123 -2.3122 -0.1063  0.9645
 9590TIP3    H252966   0.596   0.499   1.100 -1.8097 -0.7113 -1.4741
 9591TIP3   OH252967   1.790   3.198   3.404  0.3890  0.0233  0.1835
 9591TIP3    H152968   1.714   3.252   3.383  0.3920 -0.2326 -0.5156
 9591TIP3    H252969   1.795   3.200   3.500  0.7707  1.7982  0.1680
 9592TIP3   OH252970   4.191   0.842   0.475 -0.3122 -0.2860 -0.3365
 9592TIP3    H152971   4.198   0.747   0.482  0.1397 -0.1449  1.9319
 9592TIP3    H252972   4.097   0.859   0.472 -0.5223 -0.7527  1.7468
 9593TIP3   OH252973   7.117   6.883   1.342 -0.1846  0.0700  0.2106
 9593TIP3    H152974   7.141   6.956   1.285 -2.9018  1.3418  0.5486
 9593TIP3    H252975   7.195   6.867   1.395  1.0944  1.4733 -1.1636
 9594TIP3   OH252976   5.279   5.097   2.079  0.0353  0.5092  0.7350
 9594TIP3    H152977   5.267   5.158   2.006  0.1734 -1.1927 -0.7751
 9594TIP3    H252978   5.370   5.067   2.071 -0.2730 -0.5052  0.9755
 9595TIP3   OH252979   3.295   6.383   2.658  0.5522  0.0630  0.1427
 9595TIP3    H152980   3.274   6.372   2.751  1.4063  0.3043  0.3776
 9595TIP3    H252981   3.362   6.317   2.640  0.6322  0.2382 -0.2158
 9596TIP3   OH252982   4.786   6.968   0.945 -0.1258 -0.1627  0.5565
 9596TIP3    H152983   4.875   6.955   0.913 -0.0886  0.3844  0.4171
 9596TIP3    H252984   4.764   7.057   0.919 -1.1334 -0.6711 -0.3971
 9597TIP3   OH252985   1.581   6.635   0.402 -0.0808 -0.1880  0.4704
 9597TIP3    H152986   1.571   6.714   0.456  0.2782  0.6923 -0.7211
 9597TIP3    H252987   1.668   6.602   0.426 -0.3640 -0.4246  1.2112
 9598TIP3   OH252988   1.495   6.000   2.939 -0.2196  0.1018 -0.0007
 9598TIP3    H152989   1.507   6.094   2.929 -2.2191  0.3967 -0.0763
 9598TIP3    H252990   1.410   5.991   2.981  0.8237 -1.6319  1.9463
 9599TIP3   OH252991   0.018   3.963   1.334 -0.3400  0.2360 -0.2781
 9599TIP3    H152992   0.035   4.006   1.250  0.4625 -0.0128 -0.2498
 9599TIP3    H252993   0.004   3.871   1.310 -3.3481  0.6375 -0.4984
 9600TIP3   OH252994   4.563   5.160   2.420  0.7268 -0.0051 -0.4411
 9600TIP3    H152995   4.639   5.199   2.377 -0.5705 -0.5379 -3.4721
 9600TIP3    H252996   4.509   5.127   2.349 -3.4966  2.2833  1.2861
 9601TIP3   OH252997   5.238   0.496   1.904  0.1699  0.1901  0.2905
 9601TIP3    H152998   5.240   0.492   1.809  0.5324  1.0198  0.2546
 9601TIP3    H252999   5.149   0.469   1.928  0.4859 -1.3579 -0.2010
 9602TIP3   OH253000   0.795   0.533   0.399 -0.3851  0.0291  0.1934
 9602TIP3    H153001   0.786   0.555   0.306 -2.3326 -1.1532  0.0520
 9602TIP3    H253002   0.887   0.509   0.409 -0.3041 -0.5686 -1.6043
 9603TIP3   OH253003   0.795   0.776   1.622 -0.2831  0.0793 -0.9348
 9603TIP3    H153004   0.764   0.705   1.678 -1.5179  1.1999 -0.1356
 9603TIP3    H253005   0.867   0.816   1.670 -1.1138  0.8187 -0.2777
 9604TIP3   OH253006   2.821   0.157   1.785 -0.1907 -0.0123  0.1565
 9604TIP3    H153007   2.860   0.173   1.699  1.2619 -0.0318  0.7838
 9604TIP3    H253008   2.785   0.242   1.812  1.0446  0.4754  0.3359
 9605TIP3   OH253009   5.540   3.302   1.677  0.0275 -0.1234 -0.1226
 9605TIP3    H153010   5.455   3.342   1.696 -0.2860 -0.1005 -1.4707
 9605TIP3    H253011   5.526   3.208   1.689 -0.0687 -0.0816  0.0918
 9606TIP3   OH253012   3.327   0.061   1.878  0.0854 -0.5266 -0.4338
 9606TIP3    H153013   3.333   0.151   1.847 -1.3692  0.1885  1.1670
 9606TIP3    H253014   3.415   0.040   1.908  0.3519  0.5208 -0.4250
 9607TIP3   OH253015   5.830   4.175   3.274 -0.0668  0.7682 -0.4009
 9607TIP3    H153016   5.742   4.198   3.245 -0.1217  1.3040  0.1818
 9607TIP3    H253017   5.857   4.105   3.215 -1.0722  0.2565 -0.2659
 9608TIP3   OH253018   4.007   3.758   1.621  0.5105 -0.1084 -0.1652
 9608TIP3    H153019   3.942   3.809   1.574  2.0566  0.3237 -1.9808
 9608TIP3    H253020   4.049   3.820   1.681 -0.4278 -0.2957  0.7122
 9609TIP3   OH253021   4.683   7.412   0.780  0.1645  0.3694  0.2266
 9609TIP3    H153022   4.708   7.502   0.762 -0.3998  0.5152  0.1608
 9609TIP3    H253023   4.618   7.419   0.850  0.4354 -0.0191  0.5253
 9610TIP3   OH253024   4.083   3.998   1.739 -0.3854  0.1942 -0.2077
 9610TIP3    H153025   4.029   4.062   1.784 -0.8647  0.2405 -0.8353
 9610TIP3    H253026   4.116   4.044   1.662  0.0666 -0.0149 -0.1389
 9611TIP3   OH253027   5.669   3.665   1.864  0.2839  0.0202  0.7528
 9611TIP3    H153028   5.652   3.732   1.798 -0.5028  0.8263  1.7292
 9611TIP3    H253029   5.714   3.595   1.817 -0.3744  0.5070 -0.6478
 9612TIP3   OH253030   4.040   1.541   0.990 -0.1202 -0.5929  0.1462
 9612TIP3    H153031   3.952   1.511   0.965  0.3692 -0.2549 -2.2892
 9612TIP3    H253032   4.085   1.462   1.018 -0.0604 -1.5622 -2.3917
 9613TIP3   OH253033   6.725   7.674   2.801  0.1867  0.2598  0.4264
 9613TIP3    H153034   6.787   7.602   2.812 -2.3651 -2.3613 -0.9218
 9613TIP3    H253035   6.753   7.718   2.721  2.0312  1.1953  1.4968
 9614TIP3   OH253036   0.140   2.423   1.511 -0.7571 -0.2681  0.1576
 9614TIP3    H153037   0.053   2.462   1.496  0.1501  1.6014 -0.5667
 9614TIP3    H253038   0.134   2.336   1.473 -2.0827  0.1372 -0.6278
 9615TIP3   OH253039   2.393   7.361   0.709 -0.4242 -0.4572  0.0666
 9615TIP3    H153040   2.403   7.397   0.797 -1.0825  0.5308 -0.2491
 9615TIP3    H253041   2.465   7.298   0.701  0.0202 -0.1057  1.0820
 9616TIP3   OH253042   6.206   6.680   2.095  0.2674 -0.3303 -0.3463
 9616TIP3    H153043   6.168   6.598   2.127  0.7822 -0.6518 -0.5382
 9616TIP3    H253044   6.278   6.698   2.156  0.6746 -0.4611 -0.7818
 9617TIP3   OH253045   7.565   5.963   2.182  0.3789 -0.3900 -0.6827
 9617TIP3    H153046   7.581   5.972   2.088  3.2480 -1.3890 -0.3772
 9617TIP3    H253047   7.484   5.911   2.187  0.1455 -0.3064 -2.5726
 9618TIP3   OH253048   5.525   7.063   2.020 -0.0921 -0.3737 -0.0097
 9618TIP3    H153049   5.524   7.094   2.110 -0.4845 -0.6322  0.0752
 9618TIP3    H253050   5.444   7.096   1.982 -0.8188 -1.7741  0.2518
 9619TIP3   OH253051   0.133   5.165   2.597  0.0526  0.1522 -0.0128
 9619TIP3    H153052   0.044   5.195   2.614  0.6724  2.7203 -0.8955
 9619TIP3    H253053   0.176   5.167   2.683 -0.2443  0.6983  0.1239
 9620TIP3   OH253054   2.542   0.938   0.847 -0.8999 -0.3156  0.0526
 9620TIP3    H153055   2.543   0.962   0.940 -1.8779 -1.2247  0.3144
 9620TIP3    H253056   2.602   1.000   0.806  1.9504 -1.7349  1.7351
 9621TIP3   OH253057   1.948   5.386   0.676 -0.3336  0.1175 -0.3736
 9621TIP3    H153058   2.039   5.360   0.688 -0.0234  1.3467  0.0324
 9621TIP3    H253059   1.953   5.469   0.628 -1.2986 -0.6368 -1.8652
 9622TIP3   OH253060   6.058   7.526   1.324 -0.8440 -0.5521 -0.3317
 9622TIP3    H153061   6.035   7.466   1.253  0.5161  0.8754 -2.0702
 9622TIP3    H253062   6.031   7.612   1.293  0.8890  0.2667  0.3164
 9623TIP3   OH253063   7.239   1.866   2.310  0.1545  0.3447  0.0531
 9623TIP3    H153064   7.143   1.871   2.306  0.1522  1.2330  0.9505
 9623TIP3    H253065   7.261   1.893   2.399  1.0492 -3.2773  1.0894
 9624TIP3   OH253066   4.404   5.954   2.815 -0.4629 -0.5778 -0.2526
 9624TIP3    H153067   4.466   5.979   2.746  1.5067 -1.0582  1.2553
 9624TIP3    H253068   4.321   5.940   2.768  0.0572  1.8430 -2.0985
 9625TIP3   OH253069   6.665   7.478   2.569 -1.1473 -0.0350 -0.1940
 9625TIP3    H153070   6.746   7.462   2.619 -0.7748  2.4208  0.0873
 9625TIP3    H253071   6.627   7.390   2.558  1.5163 -1.2876 -0.3354
 9626TIP3   OH253072   1.378   1.211   0.720  0.0096  0.4809 -0.4748
 9626TIP3    H153073   1.426   1.129   0.706  1.0172  0.7615  1.0517
 9626TIP3    H253074   1.419   1.249   0.798  0.2935  2.9867 -1.7552
 9627TIP3   OH253075   2.993   0.863   1.806 -0.3209 -0.0981  0.3199
 9627TIP3    H153076   3.001   0.931   1.873  0.6430  1.5132 -1.3556
 9627TIP3    H253077   2.978   0.910   1.725  1.0195 -1.8337 -1.0280
 9628TIP3   OH253078   0.696   4.192   0.901 -0.3463  0.9175 -0.5340
 9628TIP3    H153079   0.717   4.139   0.824  0.9376 -1.0996  1.0976
 9628TIP3    H253080   0.778   4.235   0.924 -0.8975  2.0774 -0.6879
 9629TIP3   OH253081   2.928   2.168   3.158  0.5774 -0.2546  0.1945
 9629TIP3    H153082   2.866   2.184   3.087 -0.3384  2.1427  1.4034
 9629TIP3    H253083   2.992   2.107   3.121  0.6772  1.5441 -3.0338
 9630TIP3   OH253084   2.469   2.462   2.268  0.4953 -0.1682 -0.2053
 9630TIP3    H153085   2.413   2.530   2.233  1.5747  0.8337 -0.0344
 9630TIP3    H253086   2.558   2.498   2.263  1.0533 -1.4169  0.2088
 9631TIP3   OH253087   2.037   2.593   2.214  0.0181 -0.0125 -0.2765
 9631TIP3    H153088   2.085   2.525   2.167  0.9474  0.2949  0.2148
 9631TIP3    H253089   1.991   2.546   2.283  0.3792 -0.1900 -0.1523
 9632TIP3   OH253090   4.259   4.126   0.365 -0.0920  0.6410  0.3448
 9632TIP3    H153091   4.218   4.139   0.280 -0.2584 -1.3110  0.0657
 9632TIP3    H253092   4.206   4.059   0.407  2.9204 -2.4397 -0.2615
 9633TIP3   OH253093   7.200   2.114   1.522  0.1545 -0.1030  0.0507
 9633TIP3    H153094   7.131   2.175   1.548 -1.0035 -0.4105 -2.0488
 9633TIP3    H253095   7.277   2.143   1.570 -0.7391  2.0243  0.3226
 9634TIP3   OH253096   1.610   4.348   3.001  0.5157  0.0652  0.0527
 9634TIP3    H153097   1.684   4.356   2.940  0.8609  0.9065  0.5622
 9634TIP3    H253098   1.638   4.282   3.063  0.7915  0.2789  0.1611
 9635TIP3   OH253099   0.116   5.511   1.470  0.2264  0.3845 -0.5164
 9635TIP3    H153100   0.163   5.485   1.550 -0.6725  2.0926  0.6267
 9635TIP3    H253101   0.033   5.465   1.476 -0.8183  2.2968  0.8259
 9636TIP3   OH253102   2.871   0.962   2.321  0.2019  0.6736 -0.3997
 9636TIP3    H153103   2.932   0.935   2.390 -0.9726 -0.5178  0.2132
 9636TIP3    H253104   2.872   1.058   2.323  0.0817  0.6618  1.3766
 9637TIP3   OH253105   6.552   6.499   1.058 -0.2855 -0.2299  0.0916
 9637TIP3    H153106   6.580   6.508   0.967 -0.1378 -0.1340  0.1458
 9637TIP3    H253107   6.593   6.572   1.103 -1.0363  0.2166  0.0754
 9638TIP3   OH253108   3.882   0.334   2.099  0.3742 -0.3203 -0.1825
 9638TIP3    H153109   3.967   0.294   2.082  1.2307  1.0105  0.7614
 9638TIP3    H253110   3.902   0.416   2.145 -1.3566  0.6749 -1.0797
 9639TIP3   OH253111   2.231   5.736   3.238  0.0519  0.1075 -0.3806
 9639TIP3    H153112   2.247   5.678   3.312 -0.3776  0.4408 -0.0196
 9639TIP3    H253113   2.291   5.705   3.170  0.2000 -0.4228 -0.0168
 9640TIP3   OH253114   4.356   5.376   2.307  0.5660 -0.0524  0.0851
 9640TIP3    H153115   4.333   5.342   2.221 -2.1342 -1.6490  1.2873
 9640TIP3    H253116   4.357   5.471   2.296 -1.3799 -0.1447 -1.4100
 9641TIP3   OH253117   5.137   5.702   1.545  0.1226 -0.3714 -0.0182
 9641TIP3    H153118   5.172   5.762   1.479  0.5101  0.6753  1.1207
 9641TIP3    H253119   5.045   5.690   1.519  0.3703 -0.2940 -0.9694
 9642TIP3   OH253120   6.356   4.592   2.244  0.3861 -0.4198  0.6770
 9642TIP3    H153121   6.404   4.616   2.164 -0.6045  0.2814  0.2747
 9642TIP3    H253122   6.286   4.534   2.213 -0.9740  1.1159  0.7908
 9643TIP3   OH253123   3.031   0.009   1.692  0.4377 -0.4414 -0.4857
 9643TIP3    H153124   2.979  -0.026   1.764  2.1401 -0.4166  0.8257
 9643TIP3    H253125   3.085   0.076   1.732  0.3400  0.6654 -2.1233
 9644TIP3   OH253126   3.620   6.287   0.788 -0.7781 -0.0693  0.4954
 9644TIP3    H153127   3.572   6.324   0.714 -1.4515 -3.0511 -0.7280
 9644TIP3    H253128   3.552   6.268   0.853 -0.7653 -0.8834  0.2883
 9645TIP3   OH253129   4.526   7.595   2.975 -0.8486  0.0005 -0.0462
 9645TIP3    H153130   4.442   7.549   2.975 -1.2461  0.4763  2.9417
 9645TIP3    H253131   4.586   7.534   3.018  0.0366  0.1651 -1.0216
 9646TIP3   OH253132   5.050   4.807   0.874 -0.2048 -0.5502 -0.1916
 9646TIP3    H153133   5.123   4.786   0.816  0.9176  1.9212  0.2061
 9646TIP3    H253134   5.054   4.740   0.943  1.7724 -0.4227 -0.1238
 9647TIP3   OH253135   7.087   1.116   0.887 -0.2609  0.3820  0.1955
 9647TIP3    H153136   7.110   1.145   0.976 -0.6311 -0.8130  0.6980
 9647TIP3    H253137   7.154   1.155   0.831 -0.2589  1.4941  0.9390
 9648TIP3   OH253138   4.395   0.880   1.447 -0.2846  0.1023 -0.2179
 9648TIP3    H153139   4.473   0.892   1.502  0.5385  2.1270 -1.6611
 9648TIP3    H253140   4.324   0.917   1.498  0.3089  1.1797 -0.1413
 9649TIP3   OH253141   5.440   1.880   2.815  0.6109  0.2074  0.5603
 9649TIP3    H153142   5.394   1.963   2.829  0.9808  0.2544  1.5637
 9649TIP3    H253143   5.381   1.813   2.849  0.2260  0.0220 -0.4305
 9650TIP3   OH253144   4.552   4.906   1.977 -0.5534  0.0751  0.2884
 9650TIP3    H153145   4.504   4.914   1.895 -1.4550  0.0406  0.7924
 9650TIP3    H253146   4.644   4.905   1.952 -0.6150  3.2981 -0.5181
 9651TIP3   OH253147   1.050   2.601   1.203  0.4714 -0.0621 -0.1790
 9651TIP3    H153148   0.974   2.632   1.253 -0.3780 -0.5924 -1.0925
 9651TIP3    H253149   1.116   2.668   1.216 -0.4116  0.7971  0.0297
 9652TIP3   OH253150   6.975   6.898   2.733  0.0670 -0.0296  0.4403
 9652TIP3    H153151   7.064   6.903   2.698  0.3128 -3.2316  0.2585
 9652TIP3    H253152   6.937   6.984   2.716  1.7013  0.1109 -3.5097
 9653TIP3   OH253153   4.992   0.360   1.977 -0.2972 -0.1233  0.4318
 9653TIP3    H153154   4.908   0.400   2.001 -0.7211 -0.6629 -0.1205
 9653TIP3    H253155   4.970   0.296   1.910  0.3681 -1.2394  1.2332
 9654TIP3   OH253156   6.504   2.891   1.038  0.1559 -0.3100 -0.0390
 9654TIP3    H153157   6.595   2.873   1.013 -0.1801 -0.8092 -0.9486
 9654TIP3    H253158   6.459   2.909   0.955 -0.0539  2.5576  0.5948
 9655TIP3   OH253159   4.603   1.528   1.621 -0.4288  0.2361  0.0750
 9655TIP3    H153160   4.698   1.534   1.623 -0.4343  0.1370  0.7028
 9655TIP3    H253161   4.582   1.509   1.530  0.1992 -0.6039  0.0962
 9656TIP3   OH253162   2.635   4.244   2.114  0.1209 -0.3880  0.1714
 9656TIP3    H153163   2.627   4.150   2.100 -0.1726  0.0099 -3.2244
 9656TIP3    H253164   2.730   4.260   2.115  0.1687 -0.6727  0.3675
 9657TIP3   OH253165   5.073   4.707   2.399  0.0847  0.3127  0.5870
 9657TIP3    H153166   5.021   4.764   2.456 -1.1395 -1.2793  1.1237
 9657TIP3    H253167   5.014   4.687   2.326  0.8375  0.4639 -0.0765
 9658TIP3   OH253168   6.837   5.084   2.996 -0.6705 -0.2527 -0.6054
 9658TIP3    H153169   6.833   5.056   3.088  2.5275 -1.1788 -0.6274
 9658TIP3    H253170   6.822   5.178   3.000  0.2824 -0.1231  1.0147
 9659TIP3   OH253171   0.710   6.839   0.782 -0.1574  0.3127 -0.3117
 9659TIP3    H153172   0.737   6.786   0.707 -1.7097  0.0980 -0.7575
 9659TIP3    H253173   0.614   6.831   0.784 -0.1212 -0.9829  2.6202
 9660TIP3   OH253174   4.778   0.486   0.957  0.1480 -0.1836  0.1786
 9660TIP3    H153175   4.817   0.399   0.952 -1.7877 -1.1397  0.8026
 9660TIP3    H253176   4.768   0.503   1.051  1.3554  1.1305  0.0914
 9661TIP3   OH253177   2.204   4.187   1.580  0.5677 -0.3712 -0.1041
 9661TIP3    H153178   2.162   4.273   1.575 -1.2789 -1.3035 -1.7361
 9661TIP3    H253179   2.183   4.154   1.667 -1.9042 -0.6689 -0.7540
 9662TIP3   OH253180   5.425   7.639   1.252  0.5624 -0.1425  0.0752
 9662TIP3    H153181   5.416   7.551   1.213  1.0737 -0.6119  0.9846
 9662TIP3    H253182   5.341   7.655   1.294  1.1558 -1.1395  1.7536
 9663TIP3   OH253183   4.801   2.097   0.943  0.4202  0.1262  0.0423
 9663TIP3    H153184   4.778   2.077   1.034  1.2207 -0.5103  0.1129
 9663TIP3    H253185   4.839   2.185   0.946 -2.4370  1.4879 -0.1628
 9664TIP3   OH253186   4.625   7.469   2.012  0.3303  0.5958 -0.1733
 9664TIP3    H153187   4.545   7.484   1.961  0.7894  1.0149 -0.7777
 9664TIP3    H253188   4.689   7.437   1.948  0.9409  1.2190  0.1161
 9665TIP3   OH253189   5.037   1.957   0.786 -0.4607  0.1705 -0.0071
 9665TIP3    H153190   4.965   2.019   0.798 -0.9938 -0.1795 -1.1995
 9665TIP3    H253191   5.006   1.876   0.825 -0.0976  0.4215  0.8155
 9666TIP3   OH253192   1.230   1.731   2.304  0.4396  0.0186 -0.0331
 9666TIP3    H153193   1.152   1.694   2.264 -0.0783  0.3147  0.6837
 9666TIP3    H253194   1.203   1.816   2.338  1.2812  0.4794 -0.4808
 9667TIP3   OH253195   7.375   3.520   1.717 -0.0946  0.2756 -0.2410
 9667TIP3    H153196   7.412   3.506   1.805 -1.5800  0.1454  0.3945
 9667TIP3    H253197   7.342   3.609   1.719  1.0177  0.7297 -1.1374
 9668TIP3   OH253198   1.129   7.268   1.258  0.5985 -0.1351  0.2557
 9668TIP3    H153199   1.130   7.340   1.195  1.0917 -0.4145 -0.0602
 9668TIP3    H253200   1.126   7.311   1.344 -0.3740  0.2413  0.0427
 9669TIP3   OH253201   2.580   5.500   1.544  0.4202  0.1002 -0.7132
 9669TIP3    H153202   2.540   5.545   1.619  0.1071  0.0869 -0.8718
 9669TIP3    H253203   2.541   5.542   1.467 -1.6584 -1.9486 -0.8954
 9670TIP3   OH253204   3.329   2.492   1.171  0.1650 -0.3835 -0.1689
 9670TIP3    H153205   3.243   2.484   1.129  0.1835  1.0965 -0.5427
 9670TIP3    H253206   3.391   2.480   1.100  0.1976  1.9651 -0.6181
 9671TIP3   OH253207   1.770   1.215   2.609  0.4958 -0.1329 -0.7892
 9671TIP3    H153208   1.784   1.240   2.700 -3.0288 -1.3765  0.2651
 9671TIP3    H253209   1.799   1.124   2.604  2.4426  0.4819 -1.4933
 9672TIP3   OH253210   1.623   0.753   1.035 -0.1483 -0.5174 -0.1288
 9672TIP3    H153211   1.633   0.660   1.055 -0.2558 -0.5880 -0.4050
 9672TIP3    H253212   1.549   0.781   1.090 -0.7436 -0.8189 -0.7605
 9673TIP3   OH253213   6.740   7.398   2.086  0.3229  0.2332  0.1476
 9673TIP3    H153214   6.665   7.417   2.030 -0.4077 -0.2544  0.9236
 9673TIP3    H253215   6.716   7.316   2.131  1.0069  0.4554  0.9480
 9674TIP3   OH253216   6.818   4.356   1.392  0.2370 -0.0780  0.2002
 9674TIP3    H153217   6.825   4.440   1.347 -0.1794 -0.4921 -0.6503
 9674TIP3    H253218   6.726   4.350   1.419 -0.6431 -1.7127 -2.7148
 9675TIP3   OH253219   2.855   5.173   2.700  0.5663  0.2768  0.2043
 9675TIP3    H153220   2.893   5.107   2.757  0.8884  0.2442 -0.0486
 9675TIP3    H253221   2.825   5.242   2.759 -0.9037 -0.6408  0.5886
 9676TIP3   OH253222   0.654   0.462   2.734  0.9108  0.4594  0.1461
 9676TIP3    H153223   0.709   0.428   2.804 -2.2934  1.1327  3.2593
 9676TIP3    H253224   0.676   0.555   2.729  0.6653  0.5604  0.8237
 9677TIP3   OH253225   7.598   5.705   2.703  0.1282  0.2435 -0.0158
 9677TIP3    H153226   7.689   5.725   2.724  0.2046 -0.2290  0.1284
 9677TIP3    H253227   7.597   5.609   2.694 -0.6330  0.1117  1.3093
 9678TIP3   OH253228   4.438   0.187   2.936 -0.0555  0.4800 -0.1107
 9678TIP3    H153229   4.429   0.093   2.951  0.0165  0.8107  2.4401
 9678TIP3    H253230   4.349   0.220   2.929 -0.1619  0.4899  1.1368
 9679TIP3   OH253231   4.320   6.693   2.477  0.1925 -0.0088  0.2737
 9679TIP3    H153232   4.234   6.713   2.516  0.3006  0.8384  0.0942
 9679TIP3    H253233   4.383   6.734   2.535  0.3310  1.7830 -1.0761
 9680TIP3   OH253234   3.012   2.913   0.513  0.2868  0.3451 -0.2462
 9680TIP3    H153235   3.036   2.822   0.499 -1.4413  0.0811 -1.9022
 9680TIP3    H253236   3.065   2.941   0.588  0.1318 -2.2892  0.9383
 9681TIP3   OH253237   4.282   4.432   1.037 -0.5866  0.4565 -0.0822
 9681TIP3    H153238   4.197   4.388   1.037  0.0223 -0.8005  1.0073
 9681TIP3    H253239   4.340   4.372   0.991  0.0107  0.6444  0.4173
 9682TIP3   OH253240   7.422   0.393   2.975 -0.0399  0.2460  0.0436
 9682TIP3    H153241   7.329   0.413   2.969  0.0196  0.9508  1.1684
 9682TIP3    H253242   7.428   0.321   3.038  0.2291  0.7751  0.6365
 9683TIP3   OH253243   1.005   7.010   2.092  0.1049 -0.5890 -0.1119
 9683TIP3    H153244   1.024   7.098   2.123  2.5703 -1.0819  0.0214
 9683TIP3    H253245   0.960   7.022   2.009  1.4912  0.8537 -0.7146
 9684TIP3   OH253246   7.049   0.323   0.805  0.6524 -0.3039 -0.0191
 9684TIP3    H153247   7.050   0.419   0.799 -1.8197 -0.1875  0.5969
 9684TIP3    H253248   7.079   0.304   0.894  2.7953 -0.2525 -0.6676
 9685TIP3   OH253249   7.267   1.818   0.803 -0.2589 -0.4257 -0.1930
 9685TIP3    H153250   7.344   1.870   0.782 -0.9147  0.1008 -1.3699
 9685TIP3    H253251   7.199   1.884   0.821 -0.0490 -0.8388  2.5320
 9686TIP3   OH253252   7.510   6.296   1.507  0.2318  0.1012 -0.3689
 9686TIP3    H153253   7.453   6.373   1.502 -0.5665 -0.4473  0.1432
 9686TIP3    H253254   7.453   6.226   1.538  0.9197 -0.7352 -0.9588
 9687TIP3   OH253255   6.744   0.302   2.434 -0.2974 -0.2195  0.2708
 9687TIP3    H153256   6.830   0.342   2.418  0.0681 -1.2302 -0.4163
 9687TIP3    H253257   6.763   0.208   2.444 -1.4249 -0.6194 -0.9985
 9688TIP3   OH253258   5.878   6.636   2.686  0.1479  0.2753  0.2747
 9688TIP3    H153259   5.889   6.596   2.600 -2.9934  2.2915 -1.2550
 9688TIP3    H253260   5.952   6.697   2.694  0.7911 -0.3408 -0.7437
 9689TIP3   OH253261   4.726   0.065   2.028  0.2723 -1.2916  0.2230
 9689TIP3    H153262   4.756   0.083   1.939  0.6756 -1.5366  0.3027
 9689TIP3    H253263   4.692  -0.024   2.024 -0.8664 -0.8609  0.0356
 9690TIP3   OH253264   0.264   2.252   0.920 -0.6928  0.0976 -0.3300
 9690TIP3    H153265   0.327   2.266   0.991  1.5943 -2.7724 -1.5755
 9690TIP3    H253266   0.192   2.203   0.961 -0.6414  0.6721  0.4709
 9691TIP3   OH253267   6.718   5.975   2.351 -0.2388  0.2683 -0.2638
 9691TIP3    H153268   6.780   5.908   2.322 -0.9603 -0.4182 -0.2473
 9691TIP3    H253269   6.635   5.928   2.361 -0.6881  1.1101  0.0227
 9692TIP3   OH253270   2.650   4.809   1.083  0.0962 -0.3016  0.6987
 9692TIP3    H153271   2.687   4.750   1.018 -1.0518 -0.9664  0.6221
 9692TIP3    H253272   2.694   4.786   1.165  0.6846 -0.2814  0.3881
 9693TIP3   OH253273   2.392   6.000   1.196  0.1127 -0.0562  0.8799
 9693TIP3    H153274   2.352   5.916   1.218 -2.2016  0.3118 -1.4992
 9693TIP3    H253275   2.462   5.979   1.134 -1.9119 -0.1727 -1.4904
 9694TIP3   OH253276   1.768   1.825   2.684  0.1600  0.2121 -0.0721
 9694TIP3    H153277   1.744   1.900   2.630 -0.4715  0.7892  1.0017
 9694TIP3    H253278   1.686   1.796   2.724  0.5993 -0.2793  0.4954
 9695TIP3   OH253279   2.757   4.559   2.768 -0.5669 -0.6284  0.9818
 9695TIP3    H153280   2.848   4.588   2.762 -1.2313  1.9844  2.5195
 9695TIP3    H253281   2.756   4.499   2.843 -0.3004  0.2188  1.6773
 9696TIP3   OH253282   7.436   3.144   1.900  0.0490 -0.5110 -0.3047
 9696TIP3    H153283   7.451   3.056   1.866  0.3413 -0.2121 -0.9717
 9696TIP3    H253284   7.524   3.181   1.910 -0.0168 -0.6154  0.8812
 9697TIP3   OH253285   0.022   3.722   2.348 -0.1310 -0.2433  0.1857
 9697TIP3    H153286  -0.055   3.666   2.344 -0.1957 -0.4289  2.6414
 9697TIP3    H253287  -0.005   3.796   2.402  0.8152  0.7309 -0.6312
 9698TIP3   OH253288   1.349   3.745   1.709 -0.1125  0.1490  0.3658
 9698TIP3    H153289   1.424   3.739   1.769  0.1130 -1.1818 -0.0172
 9698TIP3    H253290   1.285   3.683   1.745 -0.1836 -0.2669 -0.4551
 9699TIP3   OH253291   6.636   7.002   2.320  0.2160 -0.0422  0.0453
 9699TIP3    H153292   6.544   7.025   2.337  0.7463  1.1840  1.5174
 9699TIP3    H253293   6.678   7.009   2.405  1.4443 -1.8734 -0.3669
 9700TIP3   OH253294   4.298   4.179   2.079 -0.2334  0.3186  0.1478
 9700TIP3    H153295   4.249   4.239   2.134 -2.4428 -0.3884 -0.9059
 9700TIP3    H253296   4.344   4.235   2.017 -1.8131  0.9862 -0.4693
 9701TIP3   OH253297   2.125   4.606   2.535  0.0576  0.2087 -0.0472
 9701TIP3    H153298   2.050   4.664   2.545  0.5533  0.7052  0.8938
 9701TIP3    H253299   2.120   4.547   2.611  0.2604 -0.1581 -0.3171
 9702TIP3   OH253300   3.625   0.640   0.515 -0.8240 -0.1754 -0.3688
 9702TIP3    H153301   3.679   0.659   0.592 -1.5279  1.9363 -0.3395
 9702TIP3    H253302   3.681   0.586   0.459  0.3455 -0.2549  0.8299
 9703TIP3   OH253303   4.549   1.338   1.903  0.1081 -0.2503  0.9243
 9703TIP3    H153304   4.478   1.298   1.953  0.1204 -0.5100  0.7324
 9703TIP3    H253305   4.525   1.325   1.811  0.2650 -0.0915  0.8592
 9704TIP3   OH253306   5.274   1.954   3.140  0.5270  0.8178 -0.4015
 9704TIP3    H153307   5.208   2.013   3.103 -0.7310 -0.5768 -0.4750
 9704TIP3    H253308   5.273   1.878   3.081  0.9864  0.0490  0.5661
 9705TIP3   OH253309   3.289   1.484   1.731 -0.3024  0.1906 -0.5765
 9705TIP3    H153310   3.240   1.501   1.650 -2.5966 -0.2549  0.6422
 9705TIP3    H253311   3.298   1.569   1.773  0.5089  0.3566 -1.0636
 9706TIP3   OH253312   2.650   6.616   1.590  0.2414  0.3402  0.1320
 9706TIP3    H153313   2.648   6.712   1.586  0.5648  0.5187  2.6589
 9706TIP3    H253314   2.568   6.593   1.635  1.4362 -0.3044  2.0892
 9707TIP3   OH253315   4.843   0.072   1.745 -0.3125 -0.0841 -0.2338
 9707TIP3    H153316   4.819  -0.015   1.716 -0.8305 -0.0851  0.1778
 9707TIP3    H253317   4.798   0.131   1.684 -1.0620 -0.0920  0.2967
 9708TIP3   OH253318   1.967   0.802   1.520  0.0328  0.0334  0.8661
 9708TIP3    H153319   1.913   0.844   1.453  1.3217 -1.5323 -1.2944
 9708TIP3    H253320   1.913   0.728   1.551  0.4308 -0.8832 -0.5073
 9709TIP3   OH253321   7.177   0.851   0.882  0.3943  0.2347  0.0729
 9709TIP3    H153322   7.264   0.844   0.842  0.4922  1.6544 -0.0049
 9709TIP3    H253323   7.151   0.942   0.868 -1.5654 -0.3972 -0.8031
 9710TIP3   OH253324   0.280   0.283   0.806  0.1245 -0.7046  0.3521
 9710TIP3    H153325   0.358   0.307   0.756  0.9907 -0.5933  1.7079
 9710TIP3    H253326   0.313   0.232   0.879 -1.2931 -2.4539 -0.1568
 9711TIP3   OH253327   3.642   0.431   2.257  0.2248  0.0964  0.0574
 9711TIP3    H153328   3.677   0.355   2.210 -2.9716 -1.3246 -0.3265
 9711TIP3    H253329   3.656   0.504   2.197  1.2889 -0.6099 -0.5958
 9712TIP3   OH253330   6.610   4.021   1.897 -0.2913  0.4340  0.3763
 9712TIP3    H153331   6.524   4.055   1.921  0.5499  1.2866  2.3964
 9712TIP3    H253332   6.672   4.084   1.934  1.2218 -0.4211 -0.5960
 9713TIP3   OH253333   6.461   4.713   2.458 -0.5140 -0.3094  0.1685
 9713TIP3    H153334   6.496   4.640   2.509  0.4410 -0.2502 -0.3815
 9713TIP3    H253335   6.428   4.673   2.377  0.1064 -0.1273 -0.1791
 9714TIP3   OH253336   2.020   5.294   1.278 -0.1382 -0.1395 -0.0281
 9714TIP3    H153337   2.076   5.254   1.345 -0.3595 -0.5788 -0.0978
 9714TIP3    H253338   1.937   5.247   1.286  0.1172 -0.8293 -1.2196
 9715TIP3   OH253339   2.320   3.067   1.669  0.2698  0.2614  0.0423
 9715TIP3    H153340   2.339   3.156   1.697 -1.1475  0.6827 -0.2466
 9715TIP3    H253341   2.255   3.077   1.599  1.9681 -0.8750 -1.8015
 9716TIP3   OH253342   2.776   0.380   1.591  0.2789  0.7691 -0.6754
 9716TIP3    H153343   2.718   0.414   1.659  0.7643  0.2969 -0.0142
 9716TIP3    H253344   2.721   0.376   1.512  0.5270  4.3562 -1.1872
 9717TIP3   OH253345   5.871   0.906   0.980  0.2734  0.4765 -0.1576
 9717TIP3    H153346   5.963   0.887   0.960  0.8286  1.0521  1.6651
 9717TIP3    H253347   5.834   0.822   1.006 -0.3258 -0.1829 -2.8074
 9718TIP3   OH253348   7.528   1.155   1.801 -0.8637 -0.1040  0.2013
 9718TIP3    H153349   7.488   1.115   1.879 -0.6858 -1.0764 -0.1849
 9718TIP3    H253350   7.567   1.081   1.754 -0.1408  0.5940 -0.3298
 9719TIP3   OH253351   6.323   0.244   3.059  0.6074  0.0080  0.2175
 9719TIP3    H153352   6.356   0.289   3.137  0.4545  1.1108 -0.3451
 9719TIP3    H253353   6.399   0.197   3.024  1.2154  1.2429 -0.1648
 9720TIP3   OH253354   0.158   4.955   3.098 -0.8556 -0.3205 -0.2979
 9720TIP3    H153355   0.102   5.019   3.141  0.4923 -0.6342  2.0836
 9720TIP3    H253356   0.098   4.888   3.065 -1.9393 -1.3383  3.3272
 9721TIP3   OH253357   5.164   2.165   2.563 -0.2964 -0.4166 -0.5658
 9721TIP3    H153358   5.152   2.092   2.502  0.9050 -1.2739  0.1735
 9721TIP3    H253359   5.219   2.227   2.515  1.3885 -1.4849 -0.1073
 9722TIP3   OH253360   1.556   5.611   0.710 -0.3116  0.3839 -0.5343
 9722TIP3    H153361   1.462   5.598   0.723 -0.2464  0.5505  0.1555
 9722TIP3    H253362   1.567   5.706   0.714  0.0353  0.3119  0.5252
 9723TIP3   OH253363   0.458   7.317   1.496  0.1126 -0.2466 -0.3837
 9723TIP3    H153364   0.391   7.290   1.557 -1.4129 -0.2265 -1.9698
 9723TIP3    H253365   0.514   7.377   1.546 -0.0533 -1.5466  1.4247
 9724TIP3   OH253366   5.898   4.800   1.004 -0.0813  1.1137 -0.1143
 9724TIP3    H153367   5.930   4.797   1.093 -1.1380 -0.0935  0.2583
 9724TIP3    H253368   5.973   4.829   0.952  0.5444  1.8407  1.1385
 9725TIP3   OH253369   2.481   1.719   2.418  0.0651  0.1781 -0.1788
 9725TIP3    H153370   2.411   1.695   2.358  0.3372  2.0742 -1.3663
 9725TIP3    H253371   2.470   1.813   2.431  0.5713 -0.0189  2.0670
 9726TIP3   OH253372   2.139   0.068   1.754  0.1324  0.0631 -0.2302
 9726TIP3    H153373   2.140   0.139   1.690  1.7507  0.6708  0.4153
 9726TIP3    H253374   2.047   0.042   1.760 -0.4035  1.6857 -0.9407
 9727TIP3   OH253375   4.080   2.652   2.079  0.2030 -0.3219  0.0313
 9727TIP3    H153376   4.055   2.562   2.100  0.1170 -0.6469 -1.3563
 9727TIP3    H253377   4.157   2.669   2.133 -0.2916 -0.9157  0.9481
 9728TIP3   OH253378   6.452   5.688   0.850 -0.0750  0.0186 -0.0036
 9728TIP3    H153379   6.536   5.722   0.820 -0.1600  0.1793 -0.0577
 9728TIP3    H253380   6.387   5.742   0.806 -0.1953  0.8079  1.0947
 9729TIP3   OH253381   5.407   6.206   0.735 -0.1570 -0.2856 -0.3573
 9729TIP3    H153382   5.353   6.127   0.725 -0.0742 -0.2169 -1.5463
 9729TIP3    H253383   5.497   6.174   0.737 -0.1370 -0.2454 -0.5785
 9730TIP3   OH253384   3.601   4.259   1.139 -0.0669 -0.1364  0.1696
 9730TIP3    H153385   3.513   4.251   1.104  0.3976 -0.4331 -0.9669
 9730TIP3    H253386   3.589   4.254   1.234 -1.2790 -0.0294  0.0392
 9731TIP3   OH253387   0.856   5.139   0.726 -0.1450 -0.3672 -0.3740
 9731TIP3    H153388   0.908   5.168   0.801  0.5404 -0.6807 -0.7219
 9731TIP3    H253389   0.847   5.044   0.739 -0.7836 -0.2927 -0.2275
 9732TIP3   OH253390   6.806   3.886   2.786  0.0349 -0.2142  0.3233
 9732TIP3    H153391   6.806   3.793   2.764 -0.9184  0.0811 -0.9745
 9732TIP3    H253392   6.727   3.898   2.839 -0.1634 -0.0205 -0.0191
 9733TIP3   OH253393   3.123   3.468   1.960  0.2126 -0.2065  0.0686
 9733TIP3    H153394   3.089   3.549   1.922  1.1165  0.5298  0.7642
 9733TIP3    H253395   3.141   3.490   2.051  0.0610 -1.3319  0.3816
 9734TIP3   OH253396   0.623   4.707   1.951  0.2393  0.2910 -0.4012
 9734TIP3    H153397   0.592   4.634   1.896 -0.3995 -0.4593  0.9136
 9734TIP3    H253398   0.594   4.685   2.039 -0.1274  2.2480  0.0156
 9735TIP3   OH253399   4.962   3.976   1.405 -0.2083  0.9892  0.3994
 9735TIP3    H153400   4.940   4.059   1.447 -0.2444  1.8690 -1.2939
 9735TIP3    H253401   4.880   3.943   1.369  0.0409  0.9023 -0.1036
 9736TIP3   OH253402   4.041   6.098   1.362  0.2280 -0.9292 -0.3685
 9736TIP3    H153403   4.102   6.066   1.429  0.9722  0.6142 -0.2577
 9736TIP3    H253404   3.954   6.084   1.399  0.6090 -0.7753  0.6050
 9737TIP3   OH253405   1.524   2.047   0.517 -0.3950 -0.4290 -0.0819
 9737TIP3    H153406   1.534   2.006   0.431 -0.9476 -2.3172  0.6935
 9737TIP3    H253407   1.604   2.024   0.564 -0.6612 -0.5480  0.3243
 9738TIP3   OH253408   4.389   2.733   1.934 -0.3048  0.1962  0.0185
 9738TIP3    H153409   4.361   2.742   2.025 -3.7084 -1.5877 -0.6901
 9738TIP3    H253410   4.373   2.641   1.912  1.7053  0.2349 -2.0485
 9739TIP3   OH253411   2.975   0.948   1.545 -0.1552  0.2522  0.0066
 9739TIP3    H153412   3.010   0.893   1.474  1.4316  1.9425 -0.6146
 9739TIP3    H253413   3.004   1.036   1.523 -1.7966  1.2281  1.4712
 9740TIP3   OH253414   5.443   6.697   2.518  0.0013 -0.0314  0.1189
 9740TIP3    H153415   5.373   6.688   2.583  0.7345  1.1107  1.0988
 9740TIP3    H253416   5.513   6.640   2.551  1.3441  2.3920  1.7557
 9741TIP3   OH253417   6.674   5.641   1.228  0.2198  0.5823 -0.2226
 9741TIP3    H153418   6.579   5.655   1.235  0.1793 -0.1755  1.3258
 9741TIP3    H253419   6.698   5.601   1.312  1.7381 -0.2246 -0.9952
 9742TIP3   OH253420   0.374   4.171   2.515 -0.6410 -0.4974  0.1340
 9742TIP3    H153421   0.349   4.204   2.601  0.0273 -1.6789  0.8189
 9742TIP3    H253422   0.296   4.127   2.482 -1.0434  0.3620 -0.0864
 9743TIP3   OH253423   2.036   4.459   1.132 -0.0704  0.0703 -0.0837
 9743TIP3    H153424   1.952   4.476   1.174  1.4839  0.0558  3.3255
 9743TIP3    H253425   2.087   4.539   1.148  0.7857 -0.1438 -1.5729
 9744TIP3   OH253426   1.877   2.219   1.335  0.1964 -0.3962  0.1537
 9744TIP3    H153427   1.792   2.261   1.321  0.2594 -0.0858  0.6794
 9744TIP3    H253428   1.900   2.181   1.250 -0.2878 -0.1496 -0.0867
 9745TIP3   OH253429   4.691   3.860   2.657  0.4380 -0.3917 -0.2496
 9745TIP3    H153430   4.656   3.784   2.611  1.3584 -0.2891 -1.1608
 9745TIP3    H253431   4.642   3.863   2.739  1.4734 -2.9459  0.5856
 9746TIP3   OH253432   1.221   2.358   3.281 -0.3757 -0.4126 -0.0836
 9746TIP3    H153433   1.176   2.335   3.362 -0.4873  3.7133  1.2203
 9746TIP3    H253434   1.313   2.360   3.305 -0.4908  2.0355  0.4512
 9747TIP3   OH253435   3.800   4.684   1.229  0.4839 -0.2028 -0.4364
 9747TIP3    H153436   3.753   4.759   1.263 -0.0351 -1.0712  0.8030
 9747TIP3    H253437   3.887   4.719   1.206 -0.3393  1.1570 -1.6863
 9748TIP3   OH253438   3.038   4.833   2.275 -0.1668 -0.7664  0.0331
 9748TIP3    H153439   3.009   4.809   2.187 -0.6419  0.0314 -0.0298
 9748TIP3    H253440   2.957   4.843   2.325  0.0614 -0.0682  0.2647
 9749TIP3   OH253441   7.529   3.561   3.067 -0.5678 -0.0955 -0.2650
 9749TIP3    H153442   7.584   3.546   2.990  0.3988 -0.1723  0.4263
 9749TIP3    H253443   7.582   3.532   3.141 -2.2055 -1.9088  0.3055
 9750TIP3   OH253444   5.661   1.127   2.024  0.2238 -0.7207  0.3929
 9750TIP3    H153445   5.619   1.211   2.005 -2.2404 -1.5721  1.6456
 9750TIP3    H253446   5.732   1.120   1.960 -0.1372  1.8346 -0.3883
 9751TIP3   OH253447   4.948   0.265   0.992  0.2334  0.2761 -0.4460
 9751TIP3    H153448   4.923   0.273   1.084 -1.6454  1.4581 -1.0002
 9751TIP3    H253449   4.923   0.176   0.968  1.8396 -0.4721  0.4316
 9752TIP3   OH253450   6.357   0.615   1.590  0.2556  0.1849  0.4277
 9752TIP3    H153451   6.441   0.661   1.584 -0.3086  1.4988  1.8087
 9752TIP3    H253452   6.374   0.544   1.652 -0.4901  2.8983  4.1687
 9753TIP3   OH253453   6.107   6.596   1.228  0.1333 -0.1590 -0.9682
 9753TIP3    H153454   6.154   6.679   1.218 -0.6756  0.3497 -0.5788
 9753TIP3    H253455   6.170   6.530   1.198  1.0968  0.5086 -0.4744
 9754TIP3   OH253456   2.565   7.031   3.014  0.0989 -0.3004 -0.0977
 9754TIP3    H153457   2.548   7.113   2.966 -2.1474 -0.6046  0.0634
 9754TIP3    H253458   2.626   7.056   3.084  0.2846  0.9941 -0.6919
 9755TIP3   OH253459   6.046   0.297   2.254 -0.1654  0.1095  0.0827
 9755TIP3    H153460   6.004   0.224   2.299 -0.6716  1.1876  1.4312
 9755TIP3    H253461   6.132   0.263   2.228 -0.1370 -0.7671  1.2529
 9756TIP3   OH253462   1.051   1.052   2.205  0.3459 -0.3452  0.2218
 9756TIP3    H153463   1.090   1.139   2.199 -1.0867  0.3079  0.0904
 9756TIP3    H253464   0.965   1.061   2.164  0.8491 -2.2611 -1.3580
 9757TIP3   OH253465   1.596   4.038   1.656 -0.3145 -0.1360 -0.2539
 9757TIP3    H153466   1.647   4.096   1.599 -0.5256  2.5853  2.0498
 9757TIP3    H253467   1.505   4.048   1.626 -0.5091  1.7710  0.7878
 9758TIP3   OH253468   3.524   1.938   1.501 -0.2265 -0.2437  0.2560
 9758TIP3    H153469   3.587   2.010   1.504 -0.6463  0.0925  1.9274
 9758TIP3    H253470   3.442   1.980   1.475  0.3563 -0.8499 -3.0332
 9759TIP3   OH253471   0.616   3.497   2.509 -0.1984 -0.2165  0.0241
 9759TIP3    H153472   0.597   3.515   2.417  0.8594 -1.6653 -0.5188
 9759TIP3    H253473   0.597   3.404   2.519  0.6202 -0.2951  1.0142
 9760TIP3   OH253474   2.828   5.185   2.419 -0.5262 -0.1990  0.2239
 9760TIP3    H153475   2.852   5.201   2.510  0.4891  1.8748 -0.3457
 9760TIP3    H253476   2.905   5.212   2.369 -1.4060 -0.4087 -1.2994
 9761TIP3   OH253477   7.521   1.984   0.732 -0.5453  0.7484 -0.0222
 9761TIP3    H153478   7.580   2.060   0.738 -0.4803  0.6346  1.1871
 9761TIP3    H253479   7.558   1.921   0.794 -0.7796 -0.1533 -0.7826
 9762TIP3   OH253480   6.071   4.876   2.284  0.1284 -0.1940 -0.2724
 9762TIP3    H153481   5.998   4.937   2.278 -0.7817 -1.2908 -0.5106
 9762TIP3    H253482   6.044   4.811   2.349  0.5914 -0.9913 -0.8500
 9763TIP3   OH253483   5.148   6.851   1.430 -0.4068  0.3620  0.1134
 9763TIP3    H153484   5.240   6.875   1.414 -0.6351  0.5891 -0.9416
 9763TIP3    H253485   5.138   6.767   1.384 -0.7952  0.4657  0.0112
 9764TIP3   OH253486   6.280   0.078   1.054 -0.0383 -0.5382 -0.2518
 9764TIP3    H153487   6.228   0.149   1.092 -1.6231 -1.5082 -0.5027
 9764TIP3    H253488   6.335   0.047   1.126  0.2072  0.5123  0.0264
 9765TIP3   OH253489   1.093   0.781   2.836 -0.4580 -0.0382  0.1060
 9765TIP3    H153490   1.011   0.732   2.840 -1.6430  1.9317  1.4193
 9765TIP3    H253491   1.124   0.785   2.926 -0.4778  1.6962  0.0768
 9766TIP3   OH253492   4.035   3.981   2.407  0.3624  0.6697 -0.0550
 9766TIP3    H153493   3.957   3.996   2.461 -0.1737  1.0524 -0.9216
 9766TIP3    H253494   4.099   3.944   2.468 -1.2908 -2.0431  0.1660
 9767TIP3   OH253495   3.052   2.496   1.143  0.4322  0.3973 -0.4104
 9767TIP3    H153496   2.966   2.535   1.162 -0.0472 -0.5395 -0.5849
 9767TIP3    H253497   3.041   2.403   1.165  1.4489  0.2952 -0.3060
 9768TIP3   OH253498   0.636   4.882   1.376  0.0380  0.0599  0.2429
 9768TIP3    H153499   0.546   4.851   1.363  0.1780  0.1700 -1.1100
 9768TIP3    H253500   0.680   4.808   1.417 -0.0751 -0.9436 -1.3432
 9769TIP3   OH253501   4.303   1.141   2.858 -0.5156 -0.1710  0.4202
 9769TIP3    H153502   4.310   1.231   2.825 -0.8141 -0.5731 -0.8231
 9769TIP3    H253503   4.225   1.142   2.914 -1.1950  0.1026 -0.5016
 9770TIP3   OH253504   3.428   5.069   1.818 -0.1213  0.1447  0.0565
 9770TIP3    H153505   3.364   5.022   1.872  1.2725 -1.0154  0.7535
 9770TIP3    H253506   3.386   5.077   1.733 -0.2718 -2.8151 -0.2494
 9771TIP3   OH253507   2.301   1.463   2.624 -0.3348 -0.1284 -0.1723
 9771TIP3    H153508   2.267   1.448   2.535 -1.4644 -0.2202  0.2541
 9771TIP3    H253509   2.394   1.443   2.618 -0.3528  0.0796 -1.3882
 9772TIP3   OH253510   6.002   0.335   1.504  0.5442  0.9408  0.2844
 9772TIP3    H153511   5.990   0.256   1.556 -1.1358  0.8396 -0.1864
 9772TIP3    H253512   6.074   0.314   1.445  0.5423 -0.0028  0.6070
 9773TIP3   OH253513   3.903   1.881   2.035 -0.0385 -0.5809 -0.2405
 9773TIP3    H153514   3.913   1.936   2.113 -2.3832 -1.7826  1.0058
 9773TIP3    H253515   3.872   1.940   1.967  1.5212  0.3796 -0.1759
 9774TIP3   OH253516   3.014   4.100   2.924  0.2880 -0.0589 -0.7518
 9774TIP3    H153517   3.079   4.170   2.933  0.7155 -0.4323 -0.8993
 9774TIP3    H253518   3.024   4.047   3.003  1.0259 -0.8262 -1.3435
 9775TIP3   OH253519   5.025   3.066   1.140  0.0819  0.1669  0.0294
 9775TIP3    H153520   5.084   3.035   1.072  0.6831  1.4682 -0.0863
 9775TIP3    H253521   4.937   3.059   1.102  0.3528  0.1832 -0.6052
 9776TIP3   OH253522   0.506   4.120   1.094 -0.5954 -0.1485  0.0259
 9776TIP3    H153523   0.493   4.026   1.081 -0.8467  0.0053 -0.9429
 9776TIP3    H253524   0.569   4.145   1.026 -0.5905  0.4028  0.2255
 9777TIP3   OH253525   5.408   1.561   0.666  0.1820 -0.4194  0.0099
 9777TIP3    H153526   5.398   1.635   0.725  2.2617  1.0172 -1.3035
 9777TIP3    H253527   5.486   1.582   0.614  0.0386 -2.8924 -1.3578
 9778TIP3   OH253528   5.166   0.738   0.801  0.9810  0.4271 -0.2856
 9778TIP3    H153529   5.155   0.829   0.828  3.4696  0.3051  1.5192
 9778TIP3    H253530   5.097   0.691   0.848  1.3324  1.0747  0.9249
 9779TIP3   OH253531   0.178   2.353   2.490 -0.2769  0.4882  0.2881
 9779TIP3    H153532   0.088   2.386   2.495  0.0810  1.7999 -1.2845
 9779TIP3    H253533   0.171   2.276   2.433 -0.5746 -0.1794  1.1979
 9780TIP3   OH253534   2.413   6.603   2.294 -0.0471 -0.2970 -0.3061
 9780TIP3    H153535   2.388   6.584   2.384  0.4656 -1.1101 -0.3259
 9780TIP3    H253536   2.425   6.517   2.253  2.6138 -0.0163 -0.3108
 9781TIP3   OH253537   1.089   1.269   1.562 -0.0715 -0.2157 -0.0386
 9781TIP3    H153538   1.042   1.285   1.645 -0.8515  0.6874 -0.6277
 9781TIP3    H253539   1.148   1.344   1.553 -0.5592  0.1017 -0.6756
 9782TIP3   OH253540   5.344   6.272   1.867  0.2327  0.5301 -0.0088
 9782TIP3    H153541   5.290   6.287   1.789  1.1081  0.9967 -0.5355
 9782TIP3    H253542   5.292   6.211   1.920 -0.4328  0.2973 -0.8951
 9783TIP3   OH253543   0.967   2.592   2.962 -0.3331  0.4262  0.5609
 9783TIP3    H153544   1.054   2.591   3.001  0.2647 -0.2128 -0.7332
 9783TIP3    H253545   0.918   2.655   3.014  1.0701  1.2157  0.9690
 9784TIP3   OH253546   3.467   2.376   2.121  0.3868  0.1498 -0.0932
 9784TIP3    H153547   3.388   2.355   2.171  0.4235  1.2552  0.4653
 9784TIP3    H253548   3.502   2.454   2.164  1.4205  0.0617 -0.7471
 9785TIP3   OH253549   2.133   1.068   2.025 -0.2410 -0.6596  0.2159
 9785TIP3    H153550   2.086   1.072   2.108 -0.5953  2.9255 -0.0023
 9785TIP3    H253551   2.109   1.148   1.980  2.2562 -1.0657 -2.0935
 9786TIP3   OH253552   2.456   4.724   3.360  0.4282  0.0882 -0.5671
 9786TIP3    H153553   2.458   4.806   3.409 -0.7999  0.3083 -0.8493
 9786TIP3    H253554   2.374   4.683   3.385  1.4931 -1.6060  0.3887
 9787TIP3   OH253555   1.917   6.296   1.943  0.0075  0.2156  0.1707
 9787TIP3    H153556   1.834   6.284   1.990 -0.3520 -0.5065 -0.6227
 9787TIP3    H253557   1.943   6.385   1.963 -2.1075  1.2564 -1.3198
 9788TIP3   OH253558   7.069   0.990   1.560 -0.1521  0.3224  0.4751
 9788TIP3    H153559   7.109   0.921   1.613 -1.8380 -0.9912  0.1154
 9788TIP3    H253560   7.048   1.059   1.623  0.5739  0.0599  1.0220
 9789TIP3   OH253561   1.612   7.124   1.558  0.1069 -0.4198 -0.0547
 9789TIP3    H153562   1.660   7.181   1.617  0.5571  1.8198 -2.4062
 9789TIP3    H253563   1.522   7.126   1.590  0.4640  0.1381  0.9461
 9790TIP3   OH253564   2.453   3.928   1.871  0.1503 -0.0198 -0.5574
 9790TIP3    H153565   2.474   3.910   1.779  1.9249 -0.7951 -0.0453
 9790TIP3    H253566   2.454   4.024   1.878  1.1338  0.0229 -1.1206
 9791TIP3   OH253567   3.958   4.860   2.463  0.2582 -1.1287 -1.3111
 9791TIP3    H153568   4.031   4.867   2.400 -0.0022 -1.5901 -1.6692
 9791TIP3    H253569   3.956   4.945   2.506  0.9431 -1.0718 -1.3779
 9792TIP3   OH253570   1.540   3.377   0.748 -0.0764 -0.1290 -0.5875
 9792TIP3    H153571   1.532   3.308   0.814  0.8136  1.1505  0.9130
 9792TIP3    H253572   1.479   3.351   0.678 -1.4446 -1.2523  0.9629
 9793TIP3   OH253573   0.740   5.646   1.081  0.2536  0.0084 -0.1976
 9793TIP3    H153574   0.808   5.611   1.138 -0.1849 -0.4657  0.0389
 9793TIP3    H253575   0.669   5.671   1.140  0.6862  1.6546 -0.3149
 9794TIP3   OH253576   6.347   0.641   3.137 -0.4175 -0.4904 -0.0809
 9794TIP3    H153577   6.431   0.675   3.105  0.1473 -0.7026  1.1116
 9794TIP3    H253578   6.289   0.646   3.062  1.0714 -1.7482 -1.3923
 9795TIP3   OH253579   7.068   2.283   0.580 -0.3772 -0.0345  0.4838
 9795TIP3    H153580   6.987   2.329   0.604 -0.8776 -0.4012 -0.4507
 9795TIP3    H253581   7.102   2.249   0.662 -0.1160  1.7797  1.1860
 9796TIP3   OH253582   6.139   2.331   0.814  0.1109 -0.3026  0.3653
 9796TIP3    H153583   6.181   2.253   0.777  0.0233 -0.4482  0.5701
 9796TIP3    H253584   6.208   2.372   0.867  0.3108  0.0400 -0.1504
 9797TIP3   OH253585   3.250   2.230   3.039 -0.1643  0.2456 -0.2866
 9797TIP3    H153586   3.235   2.317   3.075 -2.2494  0.0505 -0.5669
 9797TIP3    H253587   3.254   2.244   2.944 -0.7048  0.0338 -0.3456
 9798TIP3   OH253588   5.372   1.024   0.685 -0.6876  0.5364  0.3082
 9798TIP3    H153589   5.457   1.023   0.730  0.8811 -0.9934 -2.3869
 9798TIP3    H253590   5.367   1.110   0.645 -0.0890  0.4407  0.0107
 9799TIP3   OH253591   1.751   4.899   2.195  0.1221 -1.0027  0.4316
 9799TIP3    H153592   1.760   4.993   2.212  0.5923 -0.8566 -0.5391
 9799TIP3    H253593   1.787   4.857   2.273 -0.8783 -0.3909  1.2532
 9800TIP3   OH253594   1.807   3.776   2.005  0.2477 -0.4069  0.5641
 9800TIP3    H153595   1.841   3.855   1.963  1.0111 -0.0889  1.7162
 9800TIP3    H253596   1.716   3.770   1.977 -0.3736  1.8890  1.8136
 9801TIP3   OH253597   5.106   2.514   2.403 -0.2955 -0.0057  0.0127
 9801TIP3    H153598   5.063   2.560   2.331 -0.6361  0.6348  0.6120
 9801TIP3    H253599   5.083   2.564   2.481  0.4770 -0.4031  0.5122
 9802TIP3   OH253600   2.405   3.041   1.980  0.3983  0.2725 -0.0439
 9802TIP3    H153601   2.355   3.103   2.034  1.4143  0.1365  1.1070
 9802TIP3    H253602   2.340   2.977   1.950  0.0550 -0.7793  2.6580
 9803TIP3   OH253603   3.263   6.173   1.886  0.6845  0.5801 -0.1155
 9803TIP3    H153604   3.224   6.261   1.896  0.7555  0.7546 -1.2542
 9803TIP3    H253605   3.325   6.182   1.814  1.9034 -0.0271  0.8208
 9804TIP3   OH253606   2.450   4.185   3.543 -0.2409  0.0859 -0.2708
 9804TIP3    H153607   2.404   4.181   3.460  0.7201 -0.4733 -0.7953
 9804TIP3    H253608   2.462   4.094   3.569 -0.1014  0.2401  0.2299
 9805TIP3   OH253609   1.076   0.735   2.273  0.5127 -0.3106 -0.5923
 9805TIP3    H153610   1.090   0.783   2.354 -0.4626  0.0870 -0.6419
 9805TIP3    H253611   1.111   0.648   2.289  0.3425 -0.2286  0.2480
 9806TIP3   OH253612   0.673   0.131   0.388  0.0646 -0.2672 -0.7790
 9806TIP3    H153613   0.628   0.055   0.351 -1.9887  0.3760  0.2633
 9806TIP3    H253614   0.745   0.094   0.439  0.1596 -1.3936 -1.7023
 9807TIP3   OH253615   3.455   2.699   2.018 -0.2817  0.9495 -0.6143
 9807TIP3    H153616   3.519   2.769   2.006 -0.8341  1.8886  1.4953
 9807TIP3    H253617   3.481   2.657   2.100 -2.2001  1.2031  0.1604
 9808TIP3   OH253618   1.657   3.020   1.812 -0.0719 -0.4324 -0.4179
 9808TIP3    H153619   1.621   3.027   1.901 -1.0116 -0.5793 -0.7767
 9808TIP3    H253620   1.733   3.078   1.813  1.5712 -2.4715  1.2607
 9809TIP3   OH253621   5.866   5.777   0.748  0.1867  0.0572  0.7213
 9809TIP3    H153622   5.815   5.797   0.670 -2.5787 -0.3259  2.3003
 9809TIP3    H253623   5.868   5.682   0.753  2.2828  0.0030  0.0266
 9810TIP3   OH253624   2.900   4.365   2.210  0.5097  0.5014  0.0762
 9810TIP3    H153625   2.870   4.383   2.121  1.0726  1.0637 -0.0052
 9810TIP3    H253626   2.986   4.407   2.215 -0.4084  2.3568  1.5613
 9811TIP3   OH253627   7.643   7.582   0.940  0.3649 -0.4813 -0.4547
 9811TIP3    H153628   7.634   7.487   0.944 -1.6103 -0.3123  0.9254
 9811TIP3    H253629   7.699   7.598   0.865  0.4418 -2.7231 -0.9472
 9812TIP3   OH253630   3.538   2.376   1.019  0.2058  0.2568  0.3580
 9812TIP3    H153631   3.568   2.364   0.929  0.1328 -0.7449  0.4474
 9812TIP3    H253632   3.600   2.325   1.072  0.6392  1.3746  0.9503
 9813TIP3   OH253633   1.871   1.696   1.855 -0.1053  0.1992  0.3131
 9813TIP3    H153634   1.787   1.739   1.833  0.6315  0.6120 -2.0375
 9813TIP3    H253635   1.932   1.769   1.864  0.2046 -0.1519  1.0340
 9814TIP3   OH253636   0.856   7.074   1.867  0.1798 -0.2500 -0.5485
 9814TIP3    H153637   0.815   6.990   1.846  2.0686 -1.1593 -0.8234
 9814TIP3    H253638   0.874   7.113   1.781  0.4772 -0.1695 -0.4500
 9815TIP3   OH253639   2.236   7.147   2.812 -0.1038  0.0161  0.0398
 9815TIP3    H153640   2.244   7.061   2.853 -0.2679 -0.0840 -0.1341
 9815TIP3    H253641   2.318   7.191   2.833 -0.2389  0.0130  0.5756
 9816TIP3   OH253642   1.454   4.775   1.247  0.2533  0.3718 -0.1661
 9816TIP3    H153643   1.495   4.800   1.165  0.6486  0.2432 -0.0112
 9816TIP3    H253644   1.523   4.727   1.294 -0.6202 -1.4744 -0.6748
 9817TIP3   OH253645   0.995   6.089   1.003 -0.0705  0.3357 -0.0673
 9817TIP3    H153646   0.992   6.060   1.094 -1.2816  1.7563  0.3907
 9817TIP3    H253647   1.007   6.009   0.953  0.6502 -0.4774  1.3327
 9818TIP3   OH253648   4.681   6.467   1.983 -0.0840  0.3084  0.3426
 9818TIP3    H153649   4.611   6.416   1.942  0.4060 -0.4617  0.4408
 9818TIP3    H253650   4.637   6.519   2.050 -0.5230 -0.4062  0.6257
 9819TIP3   OH253651   6.118   0.764   1.680 -0.5372  0.0427 -0.7558
 9819TIP3    H153652   6.186   0.704   1.648  0.2437 -0.1248  1.0980
 9819TIP3    H253653   6.144   0.849   1.647  0.9037  0.0606  0.3123
 9820TIP3   OH253654   4.244   3.993   2.586 -0.1292  0.5899  0.3244
 9820TIP3    H153655   4.213   4.071   2.632  0.2928  0.7805  0.2806
 9820TIP3    H253656   4.328   4.018   2.548  1.2325 -0.6022  2.3563
 9821TIP3   OH253657   1.671   3.273   1.537 -0.5600  0.2666  0.5556
 9821TIP3    H153658   1.625   3.350   1.572 -0.5551  0.2229  0.6579
 9821TIP3    H253659   1.753   3.271   1.586  0.7733  1.8937 -1.4205
 9822TIP3   OH253660   2.607   5.886   0.595 -0.0672 -0.0469 -0.3735
 9822TIP3    H153661   2.641   5.798   0.579 -1.5401 -0.3038 -2.5988
 9822TIP3    H253662   2.526   5.872   0.644  0.1819  0.1556  0.1046
 9823TIP3   OH253663   4.087   5.597   2.023 -0.3666 -0.2148 -0.5562
 9823TIP3    H153664   4.124   5.542   1.954  0.0583  0.4569 -0.8751
 9823TIP3    H253665   4.104   5.686   1.994  0.3383  0.0806  0.6890
 9824TIP3   OH253666   5.417   5.978   2.166 -0.2138  0.6944  0.4001
 9824TIP3    H153667   5.330   5.981   2.125 -0.6829 -2.0341  0.9728
 9824TIP3    H253668   5.474   5.940   2.099 -0.4136 -1.2852  1.2614
 9825TIP3   OH253669   6.405   4.958   1.929 -0.2857  0.0580 -0.0963
 9825TIP3    H153670   6.426   4.892   1.995 -0.5545 -0.6675 -0.7212
 9825TIP3    H253671   6.480   5.017   1.929 -0.0819 -0.1964  0.5363
 9826TIP3   OH253672   0.541   2.496   1.988 -0.1366 -0.2291 -0.5278
 9826TIP3    H153673   0.628   2.529   1.967  0.0980  0.2777  1.0753
 9826TIP3    H253674   0.480   2.559   1.949  0.2807  0.8155  0.4396
 9827TIP3   OH253675   2.789   4.622   0.929 -0.4470  0.3738 -0.1667
 9827TIP3    H153676   2.795   4.542   0.980  1.3370 -0.4205 -1.5181
 9827TIP3    H253677   2.880   4.644   0.908 -1.0542  1.1070 -2.2705
 9828TIP3   OH253678   4.362   4.920   0.934 -0.5656 -0.6077 -0.0304
 9828TIP3    H153679   4.280   4.914   0.884 -1.3546 -0.9445  1.2634
 9828TIP3    H253680   4.357   4.848   0.997 -0.4679  0.9294  1.8009
 9829TIP3   OH253681   2.451   3.202   3.523 -0.0801 -0.2777  0.3765
 9829TIP3    H153682   2.534   3.242   3.501 -0.8289  1.7314  1.0021
 9829TIP3    H253683   2.446   3.124   3.467  1.2905  0.6611 -1.1368
 9830TIP3   OH253684   2.537   2.761   0.832  0.5080 -0.2819  0.0444
 9830TIP3    H153685   2.473   2.832   0.830  1.8885  0.9993 -0.6163
 9830TIP3    H253686   2.546   2.733   0.741  1.1657 -0.1741  0.0700
 9831TIP3   OH253687   6.231   3.496   0.990 -0.4089 -0.2918  0.1239
 9831TIP3    H153688   6.197   3.552   1.060  0.1893  0.1015  0.1082
 9831TIP3    H253689   6.186   3.526   0.911  0.5836  0.8159 -0.0511
 9832TIP3   OH253690   1.578   4.232   2.151  0.2108  0.2380 -0.3652
 9832TIP3    H153691   1.604   4.157   2.098  1.9165  1.1114 -0.8206
 9832TIP3    H253692   1.626   4.222   2.232 -0.5873  0.1552  0.1085
 9833TIP3   OH253693   3.454   3.185   1.298  0.0728 -0.6090  0.6496
 9833TIP3    H153694   3.509   3.114   1.264  1.9291  0.3333  1.5470
 9833TIP3    H253695   3.458   3.176   1.393  1.0691  1.1749  0.8228
 9834TIP3   OH253696   4.543   2.335   0.454 -0.0627 -0.3424 -0.1446
 9834TIP3    H153697   4.561   2.285   0.375  0.5347 -1.9217  0.9492
 9834TIP3    H253698   4.449   2.325   0.468 -0.6651  1.9467 -1.9079
 9835TIP3   OH253699   5.963   4.273   1.989  0.2551  0.4595  0.1946
 9835TIP3    H153700   5.994   4.224   1.913 -2.2526  1.7898 -1.9017
 9835TIP3    H253701   5.872   4.294   1.968 -1.1628 -0.5084  4.3922
 9836TIP3   OH253702   6.860   3.355   2.746 -0.0869  0.2224 -0.1068
 9836TIP3    H153703   6.841   3.266   2.716  0.1761  0.2620 -0.3893
 9836TIP3    H253704   6.804   3.366   2.823 -1.5530  0.4822 -1.1572
 9837TIP3   OH253705   5.683   4.323   1.357  0.0059  0.6757 -0.6088
 9837TIP3    H153706   5.677   4.381   1.434 -0.6607 -0.4145  0.1974
 9837TIP3    H253707   5.774   4.296   1.354  0.1686  1.2094 -0.5677
 9838TIP3   OH253708   0.968   3.686   1.465  0.2981 -0.5804  0.9787
 9838TIP3    H153709   1.039   3.749   1.481  1.1944 -1.0662 -0.8074
 9838TIP3    H253710   1.004   3.602   1.493  0.2343 -0.7397  0.5929
 9839TIP3   OH253711   1.796   0.479   1.358  0.1740  0.4570 -0.0960
 9839TIP3    H153712   1.861   0.408   1.363 -1.0691 -0.7240 -0.1468
 9839TIP3    H253713   1.832   0.540   1.293  0.9060 -0.5119 -0.6283
 9840TIP3   OH253714   1.185   5.011   2.603 -0.2793 -0.0813  0.8886
 9840TIP3    H153715   1.181   4.924   2.642 -1.0684 -0.4495  0.0213
 9840TIP3    H253716   1.277   5.037   2.610  0.0821 -1.2587  0.5446
 9841TIP3   OH253717   5.916   1.344   3.162  0.8737  0.2099 -0.7325
 9841TIP3    H153718   5.986   1.299   3.115 -0.5908 -0.8054 -2.0709
 9841TIP3    H253719   5.858   1.376   3.093  1.1059  3.0130  0.2395
 9842TIP3   OH253720   3.610   3.324   2.774 -0.5658  0.0425 -0.6040
 9842TIP3    H153721   3.538   3.338   2.836 -0.3710  1.6863 -0.7103
 9842TIP3    H253722   3.617   3.229   2.767 -1.4248 -0.1640  0.9223
 9843TIP3   OH253723   5.143   5.080   1.125  0.0987 -0.2148  0.0546
 9843TIP3    H153724   5.099   5.165   1.124  0.2287 -0.1505 -0.2198
 9843TIP3    H253725   5.116   5.037   1.044 -0.1561 -0.5354  0.3057
 9844TIP3   OH253726   0.148   3.094   0.788  0.4218 -0.7114 -0.1987
 9844TIP3    H153727   0.151   3.104   0.692  1.4912  1.1511 -0.0290
 9844TIP3    H253728   0.211   3.159   0.820 -0.3877 -0.8631  1.8134
 9845TIP3   OH253729   4.934   2.414   1.892  1.0718 -0.4085  0.5620
 9845TIP3    H153730   4.938   2.488   1.832 -3.0307  0.3671  0.9357
 9845TIP3    H253731   4.972   2.446   1.973  0.2571  0.9927  0.4152
 9846TIP3   OH253732   5.808   0.807   2.339  0.5720 -0.2902 -0.1864
 9846TIP3    H153733   5.717   0.810   2.311  0.9836  1.8597 -1.5875
 9846TIP3    H253734   5.807   0.759   2.421 -1.6674 -1.1517 -0.6547
 9847TIP3   OH253735   3.197   2.631   1.938  0.3328 -0.4059  0.1822
 9847TIP3    H153736   3.287   2.657   1.958 -0.1439  0.9694  0.6548
 9847TIP3    H253737   3.183   2.663   1.849  0.3639 -0.7630  0.0494
 9848TIP3   OH253738   1.150   5.567   2.064  0.6653  0.5819 -0.1378
 9848TIP3    H153739   1.231   5.600   2.102  1.3503 -0.4459 -0.6485
 9848TIP3    H253740   1.104   5.645   2.033  2.1992  1.0797 -1.2645
 9849TIP3   OH253741   2.559   2.588   2.585  0.3666 -0.0130 -0.3400
 9849TIP3    H153742   2.545   2.682   2.578 -1.2990  0.0133  2.1103
 9849TIP3    H253743   2.581   2.574   2.677 -2.6764 -2.3190  0.1759
 9850TIP3   OH253744   5.124   2.951   2.603 -0.2876  0.0897  0.2549
 9850TIP3    H153745   5.142   3.021   2.666  0.4866  0.6048 -0.5297
 9850TIP3    H253746   5.204   2.942   2.552 -0.8674 -0.3851 -0.6050
 9851TIP3   OH253747   3.695   5.350   2.186 -0.1017  0.0201 -0.2250
 9851TIP3    H153748   3.739   5.295   2.250  0.8779  0.1891 -0.7367
 9851TIP3    H253749   3.637   5.290   2.139  0.0867 -0.3441  0.0058
 9852TIP3   OH253750   2.070   0.193   2.692 -0.6838  0.3768 -0.4457
 9852TIP3    H153751   2.088   0.284   2.717 -0.0597  0.2687 -0.4657
 9852TIP3    H253752   2.007   0.163   2.757 -0.4397  0.6490 -0.0721
 9853TIP3   OH253753   7.384   2.582   0.433  0.3886  0.4712 -0.2405
 9853TIP3    H153754   7.477   2.567   0.416  0.1878  0.1822 -1.1300
 9853TIP3    H253755   7.365   2.527   0.509  1.4804  2.3650  1.5130
 9854TIP3   OH253756   3.402   5.627   2.684 -0.5321 -0.4448 -0.0364
 9854TIP3    H153757   3.415   5.688   2.756 -0.5444  0.2274 -0.5929
 9854TIP3    H253758   3.456   5.663   2.613  0.2125 -1.5946 -0.0772
 9855TIP3   OH253759   5.016   4.411   1.352 -0.0644 -0.1663 -0.0000
 9855TIP3    H153760   4.946   4.370   1.302 -0.7260  0.4228  0.4214
 9855TIP3    H253761   5.097   4.375   1.315 -0.6025 -1.3256 -0.0855
 9856TIP3   OH253762   1.093   0.073   0.822 -0.0727 -0.3088 -0.1063
 9856TIP3    H153763   1.062  -0.012   0.793 -1.6693 -0.2520  1.3175
 9856TIP3    H253764   1.108   0.063   0.916 -1.0627  1.1630  0.2486
 9857TIP3   OH253765   1.865   1.445   0.943  0.0622  0.4605 -0.3355
 9857TIP3    H153766   1.802   1.398   0.998  1.8217 -0.3050  1.1202
 9857TIP3    H253767   1.877   1.529   0.986  0.7162  0.2415 -0.0784
 9858TIP3   OH253768   3.506   1.368   1.878  0.1871  0.4711 -0.9897
 9858TIP3    H153769   3.510   1.275   1.899 -0.0089  0.8689  1.0226
 9858TIP3    H253770   3.422   1.379   1.832 -1.2098  0.0624  1.3283
 9859TIP3   OH253771   3.872   2.729   1.421  0.2641 -0.4071 -0.5693
 9859TIP3    H153772   3.888   2.683   1.339 -0.7485 -0.8949 -0.5149
 9859TIP3    H253773   3.788   2.695   1.452  1.4935 -1.6760  1.6558
 9860TIP3   OH253774   2.365   2.151   2.058 -0.4542  0.1599 -0.0144
 9860TIP3    H153775   2.336   2.164   1.967 -0.7718  1.7531  0.2882
 9860TIP3    H253776   2.460   2.144   2.052 -0.3846  1.2282 -0.3938
 9861TIP3   OH253777   0.468   0.639   1.596  0.2920 -0.7785 -0.8073
 9861TIP3    H153778   0.535   0.651   1.664  0.0901  1.0878 -0.8902
 9861TIP3    H253779   0.394   0.601   1.642  1.0828 -2.0464 -0.5379
 9862TIP3   OH253780   6.252   5.982   2.997  0.0879 -0.4544  0.5111
 9862TIP3    H153781   6.251   5.937   3.082  2.5435 -2.5149 -0.3991
 9862TIP3    H253782   6.332   5.950   2.955 -0.9427  0.6413 -2.5092
 9863TIP3   OH253783   5.998   3.913   1.235 -0.5017 -0.4614 -0.0449
 9863TIP3    H153784   5.966   3.992   1.277 -0.3277 -1.0662  1.2744
 9863TIP3    H253785   6.076   3.889   1.285  0.2769 -0.6894 -1.3201
 9864TIP3   OH253786   5.719   3.671   1.421  0.1896 -0.3438 -0.1534
 9864TIP3    H153787   5.634   3.630   1.435 -0.7143  1.0419 -1.3136
 9864TIP3    H253788   5.699   3.756   1.382  2.0667  0.4775  0.5419
 9865TIP3   OH253789   2.993   1.644   0.820 -0.6825  0.8415  0.2306
 9865TIP3    H153790   3.057   1.575   0.836 -0.7582  0.0076 -2.5541
 9865TIP3    H253791   3.043   1.715   0.780 -1.0609  1.3172  0.5816
 9866TIP3   OH253792   0.707   6.698   2.498  0.2664  0.1584  0.1490
 9866TIP3    H153793   0.656   6.760   2.550  1.8797  1.1904  0.5820
 9866TIP3    H253794   0.736   6.632   2.561 -2.0282 -1.5247 -0.4315
 9867TIP3   OH253795   3.946   3.046   2.073  0.2437  0.0175 -0.5128
 9867TIP3    H153796   3.989   3.008   1.997 -1.2798 -2.0394 -0.4441
 9867TIP3    H253797   3.853   3.041   2.052 -0.5100 -3.6543  2.6307
 9868TIP3   OH253798   6.659   2.373   1.240 -0.0495 -0.3654 -0.0622
 9868TIP3    H153799   6.748   2.341   1.256 -0.7611 -2.1912  0.4845
 9868TIP3    H253800   6.629   2.324   1.164 -0.4896  0.4703 -0.4322
 9869TIP3   OH253801   4.247   0.653   2.074 -0.0043  0.4202 -0.0882
 9869TIP3    H153802   4.293   0.571   2.056  0.3644  0.6000  0.0352
 9869TIP3    H253803   4.308   0.703   2.128  0.3413  1.3293 -1.2752
 9870TIP3   OH253804   2.098   3.408   2.333 -0.2708  0.4695 -0.3619
 9870TIP3    H153805   2.181   3.449   2.309  0.2595  0.3445  1.1412
 9870TIP3    H253806   2.031   3.466   2.296  0.4735  0.7750 -1.2575
 9871TIP3   OH253807   6.223   7.414   0.717 -0.5929 -0.3026 -0.9993
 9871TIP3    H153808   6.216   7.509   0.718  1.7050 -0.0793 -1.1773
 9871TIP3    H253809   6.298   7.395   0.773 -1.3724 -2.0596 -0.5000
 9872TIP3   OH253810   1.726   7.187   2.968  0.2849 -0.2065 -0.2536
 9872TIP3    H153811   1.808   7.216   2.930 -0.8100  2.0688 -1.0664
 9872TIP3    H253812   1.734   7.207   3.061  0.5288  0.3544 -0.3891
 9873TIP3   OH253813   2.187   7.291   1.024  0.4421  0.0061  0.5030
 9873TIP3    H153814   2.177   7.197   1.009 -2.1862  0.5315 -1.8066
 9873TIP3    H253815   2.115   7.331   0.975  1.9101  3.2982  0.7908
 9874TIP3   OH253816   4.634   4.952   2.583 -0.4642  0.2383  0.2132
 9874TIP3    H153817   4.608   5.018   2.519 -0.4608 -1.1996 -1.3412
 9874TIP3    H253818   4.554   4.933   2.632 -1.0966 -0.3584 -1.0025
 9875TIP3   OH253819   1.717   7.606   0.439 -0.1592 -0.0616  0.1945
 9875TIP3    H153820   1.724   7.598   0.344 -1.5347  0.2456  0.0538
 9875TIP3    H253821   1.796   7.654   0.464  0.0465  0.1683 -0.8418
 9876TIP3   OH253822   2.771   3.784   2.823  0.2804  0.1571 -0.6346
 9876TIP3    H153823   2.799   3.701   2.785  0.3964  0.9770 -2.4598
 9876TIP3    H253824   2.719   3.759   2.899  1.9189 -1.5158  0.0215
 9877TIP3   OH253825   3.643   3.418   1.899 -0.2890 -0.5197  0.1723
 9877TIP3    H153826   3.598   3.380   1.974  1.1692 -0.4138  1.1448
 9877TIP3    H253827   3.669   3.506   1.929 -1.2890  0.2502 -1.1109
 9878TIP3   OH253828   4.403   6.774   2.170  0.2186 -0.2955  0.6281
 9878TIP3    H153829   4.361   6.704   2.120 -0.8877 -0.7579  2.1405
 9878TIP3    H253830   4.428   6.733   2.253  0.7867  0.7664  0.9991
 9879TIP3   OH253831   1.626   7.050   2.569  0.4617  0.3802 -0.0812
 9879TIP3    H153832   1.618   7.082   2.659  0.2654 -1.3111  0.5418
 9879TIP3    H253833   1.720   7.040   2.555  0.4796  0.3772  0.0389
 9880TIP3   OH253834   6.337   3.186   0.467 -0.0297  0.1641 -0.1074
 9880TIP3    H153835   6.396   3.213   0.396  0.3863  0.3815  0.3196
 9880TIP3    H253836   6.319   3.267   0.515  1.2694 -0.2942  1.2102
 9881TIP3   OH253837   6.718   0.214   1.090 -0.1448  0.8689 -0.2672
 9881TIP3    H153838   6.697   0.140   1.033  0.5762  0.7391 -0.3705
 9881TIP3    H253839   6.633   0.245   1.122 -0.3949 -0.7004  0.6684
 9882TIP3   OH253840   0.394   1.683   1.664  0.1412 -0.1820  0.0760
 9882TIP3    H153841   0.489   1.694   1.653  0.1584  2.1570  1.8476
 9882TIP3    H253842   0.356   1.721   1.585  0.6590 -0.3054 -0.2375
 9883TIP3   OH253843   1.778   2.052   2.517 -0.3474 -0.5252  0.7719
 9883TIP3    H153844   1.839   2.051   2.443 -1.1309 -1.6346  0.1086
 9883TIP3    H253845   1.705   2.108   2.487 -1.5858 -2.4955 -0.1332
 9884TIP3   OH253846   0.588   6.602   2.778  0.4142 -0.1572  0.5808
 9884TIP3    H153847   0.505   6.554   2.772 -0.7064  1.7363 -0.3557
 9884TIP3    H253848   0.569   6.675   2.836  0.2654  2.2562 -2.2330
 9885TIP3   OH253849   4.244   2.319   0.550  0.1402 -0.3046  0.6600
 9885TIP3    H153850   4.223   2.228   0.529  0.6162 -0.1883 -0.3860
 9885TIP3    H253851   4.175   2.346   0.611 -0.8619 -0.9008 -0.1764
 9886TIP3   OH253852   1.039   5.955   1.806  0.0699 -0.4082 -0.4286
 9886TIP3    H153853   1.085   5.922   1.729 -0.3908 -1.4934 -0.2543
 9886TIP3    H253854   0.960   5.996   1.771  0.9446  1.1116 -0.6962
 9887TIP3   OH253855   1.241   2.554   3.095  0.5350 -0.3543  0.1240
 9887TIP3    H153856   1.237   2.483   3.159  2.5418  0.6517  1.4686
 9887TIP3    H253857   1.314   2.608   3.124  0.7166  0.8512 -2.3384
 9888TIP3   OH253858   7.265   7.393   0.649 -0.2945  0.9458 -0.6155
 9888TIP3    H153859   7.185   7.437   0.678 -1.7767 -1.3957 -0.8837
 9888TIP3    H253860   7.257   7.391   0.554 -0.4852 -0.2144 -0.5923
 9889TIP3   OH253861   0.186   5.749   2.690 -0.1026 -0.3696  0.3617
 9889TIP3    H153862   0.272   5.755   2.732 -1.6054  0.3124  3.5911
 9889TIP3    H253863   0.164   5.839   2.667 -1.0375 -0.1590  1.9889
 9890TIP3   OH253864   1.407   3.903   2.277  0.1037  0.0599 -0.2677
 9890TIP3    H153865   1.321   3.939   2.297 -0.7807 -1.8271 -0.4326
 9890TIP3    H253866   1.421   3.922   2.184 -0.3210  0.0427 -0.3372
 9891TIP3   OH253867   6.596   6.357   3.183  0.2022 -0.6024  0.0385
 9891TIP3    H153868   6.531   6.426   3.197 -0.4129 -1.6469  2.9148
 9891TIP3    H253869   6.569   6.287   3.242  0.1302 -3.8975 -3.5518
 9892TIP3   OH253870   1.453   0.691   1.655 -0.0846 -0.5787 -0.1203
 9892TIP3    H153871   1.505   0.771   1.653  0.4078 -0.8972 -0.9111
 9892TIP3    H253872   1.504   0.630   1.708 -0.5367 -0.3240  0.6153
 9893TIP3   OH253873   6.572   2.481   2.092 -0.6507  0.1831 -0.4164
 9893TIP3    H153874   6.554   2.517   2.005  0.3651 -0.6157 -0.9874
 9893TIP3    H253875   6.536   2.392   2.089  0.7174 -0.3878 -0.5729
 9894TIP3   OH253876   6.803   0.544   1.345  0.4095  0.0918  0.1369
 9894TIP3    H153877   6.722   0.504   1.378  0.6965 -0.1342  0.5860
 9894TIP3    H253878   6.806   0.631   1.385  0.2055  0.2373 -0.1679
 9895TIP3   OH253879   2.414   3.748   1.189 -0.3664  0.4658  0.1814
 9895TIP3    H153880   2.390   3.839   1.176 -0.0687  0.1219 -4.2758
 9895TIP3    H253881   2.508   3.749   1.205 -0.5207  0.9434  1.1087
 9896TIP3   OH253882   1.396   1.790   0.572  0.0127  0.4634  0.1825
 9896TIP3    H153883   1.446   1.727   0.624  1.3339  1.6969  0.4816
 9896TIP3    H253884   1.445   1.872   0.580 -1.9811  1.7224  0.3479
 9897TIP3   OH253885   2.698   0.499   2.797 -0.3122 -0.3792 -0.0246
 9897TIP3    H153886   2.736   0.578   2.758  0.3870 -1.1488 -0.9724
 9897TIP3    H253887   2.633   0.531   2.859  0.9294  0.9765  0.6313
 9898TIP3   OH253888   4.313   1.610   1.985  0.4585 -0.3094 -0.2987
 9898TIP3    H153889   4.292   1.546   2.053 -1.6635  0.7513  0.1425
 9898TIP3    H253890   4.276   1.572   1.905 -2.8826  1.1729  0.3326
 9899TIP3   OH253891   5.621   4.107   1.535  0.0097 -0.1380  0.1452
 9899TIP3    H153892   5.680   4.039   1.505 -0.9169 -1.0819  0.3953
 9899TIP3    H253893   5.626   4.175   1.468  1.8226  0.0954  0.4759
 9900TIP3   OH253894   6.350   7.452   1.440  0.3833  0.0895 -0.0135
 9900TIP3    H153895   6.279   7.401   1.401  0.6777 -0.8990  0.7145
 9900TIP3    H253896   6.386   7.395   1.507  1.1833  0.9987  0.3429
 9901TIP3   OH253897   6.992   5.808   1.802  0.0830  0.0771 -0.8351
 9901TIP3    H153898   6.980   5.721   1.764  1.2470 -0.0579 -0.9246
 9901TIP3    H253899   6.942   5.805   1.884 -2.9595  0.5696 -2.5204
 9902TIP3   OH253900   2.490   3.494   0.454  0.4737  0.3716 -0.0125
 9902TIP3    H153901   2.477   3.569   0.512  1.2491  0.8859 -0.4820
 9902TIP3    H253902   2.585   3.489   0.443  0.4103 -0.5250 -0.1956
 9903TIP3   OH253903   5.115   0.103   1.722 -0.2356 -0.4328 -0.3000
 9903TIP3    H153904   5.044   0.089   1.785 -0.0480  0.5065  0.1522
 9903TIP3    H253905   5.090   0.051   1.646 -0.4119 -1.6930  0.5854
 9904TIP3   OH253906   2.984   4.798   2.017  0.5592 -0.1516 -0.0516
 9904TIP3    H153907   2.952   4.886   1.997  0.5622  0.1213  1.1187
 9904TIP3    H253908   2.916   4.739   1.983 -0.0142  0.3397  0.2458
 9905TIP3   OH253909   6.290   7.125   2.621 -0.3985  0.2110 -0.0591
 9905TIP3    H153910   6.312   7.188   2.690  0.4856  1.3429 -1.3178
 9905TIP3    H253911   6.304   7.039   2.661 -0.4016  0.8200  1.3162
 9906TIP3   OH253912   4.013   5.788   1.574 -0.4047 -0.2539  0.6435
 9906TIP3    H153913   4.074   5.716   1.589 -0.8790 -1.0300 -0.9795
 9906TIP3    H253914   4.068   5.867   1.577  0.4302 -0.8252  0.6656
 9907TIP3   OH253915   7.153   6.337   2.134  0.4021 -0.2320 -0.3447
 9907TIP3    H153916   7.162   6.414   2.078  1.4022  0.1110  0.2553
 9907TIP3    H253917   7.103   6.275   2.082 -1.8930  1.4013 -0.2342
 9908TIP3   OH253918   3.860   3.914   3.075 -0.0211 -0.2647  0.0712
 9908TIP3    H153919   3.921   3.843   3.098 -1.2475 -1.0369  1.1192
 9908TIP3    H253920   3.774   3.881   3.104 -0.7429  1.2987 -0.2217
 9909TIP3   OH253921   0.606   6.200   0.705  0.3622  0.3365  0.6226
 9909TIP3    H153922   0.694   6.215   0.739  1.1630 -1.2013 -0.6413
 9909TIP3    H253923   0.604   6.107   0.683 -1.5729  0.3503  0.5647
 9910TIP3   OH253924   4.282   4.063   1.286 -0.4786 -0.3766 -1.2875
 9910TIP3    H153925   4.205   4.013   1.315 -0.0331  0.0229  0.7063
 9910TIP3    H253926   4.250   4.116   1.213 -2.4189  0.5967  0.1865
 9911TIP3   OH253927   0.817   2.130   0.756  0.0782 -0.0903  0.1701
 9911TIP3    H153928   0.813   2.215   0.799  0.7463 -0.5182  1.1042
 9911TIP3    H253929   0.728   2.094   0.766  0.2140 -0.1647  1.1616
 9912TIP3   OH253930   0.992   6.972   0.706 -0.2078  0.3660  0.6390
 9912TIP3    H153931   1.005   6.883   0.673 -1.6560 -0.0869  1.1830
 9912TIP3    H253932   0.930   7.012   0.644 -0.8418  0.4188  1.2884
 9913TIP3   OH253933   0.375   1.270   1.632  0.0113  0.4219  0.0137
 9913TIP3    H153934   0.425   1.274   1.713  1.1574 -1.2627 -0.5582
 9913TIP3    H253935   0.440   1.251   1.564 -1.2188 -0.4691 -0.9649
 9914TIP3   OH253936   5.928   0.244   0.940  0.7882 -0.4140  0.0995
 9914TIP3    H153937   6.010   0.271   0.980  0.8525  0.4235 -0.5794
 9914TIP3    H253938   5.891   0.324   0.904 -0.0830 -0.8704 -0.0534
 9915TIP3   OH253939   6.344   3.222   1.618  0.3642 -0.1345 -0.0707
 9915TIP3    H153940   6.334   3.254   1.708 -0.7032 -0.7891  0.0528
 9915TIP3    H253941   6.411   3.155   1.623  2.4500  1.8163 -0.2844
 9916TIP3   OH253942   5.611   6.728   1.145 -0.5104  0.0703  0.2617
 9916TIP3    H153943   5.706   6.740   1.143 -0.1999 -2.0902 -1.0032
 9916TIP3    H253944   5.579   6.779   1.070 -0.2657  0.1976  0.2421
 9917TIP3   OH253945   0.821   1.881   1.554 -0.3590 -0.0213 -0.3971
 9917TIP3    H153946   0.796   1.800   1.510  2.2723 -0.9776 -0.3145
 9917TIP3    H253947   0.896   1.913   1.504  0.2810  0.9583  1.1251
 9918TIP3   OH253948   2.827   2.563   2.449 -0.2414  0.0826 -0.2694
 9918TIP3    H153949   2.850   2.649   2.413 -0.7123 -0.2273 -1.3480
 9918TIP3    H253950   2.737   2.574   2.480 -0.7752 -0.3353 -1.5711
 9919TIP3   OH253951   0.528   4.960   0.959  0.1862  0.1991  0.4685
 9919TIP3    H153952   0.521   4.873   0.919  2.1727 -0.4585  1.3738
 9919TIP3    H253953   0.450   4.968   1.013 -0.3810 -0.7195 -0.1893
 9920TIP3   OH253954   5.520   7.533   1.651 -0.0386  0.3776 -0.3672
 9920TIP3    H153955   5.561   7.617   1.628 -1.5239  0.7627 -1.8132
 9920TIP3    H253956   5.574   7.467   1.608  0.2467  0.7173 -0.5363
 9921TIP3   OH253957   0.701   1.523   1.798  0.0040 -0.1842  0.5679
 9921TIP3    H153958   0.688   1.615   1.821 -1.1505  0.0168 -0.7547
 9921TIP3    H253959   0.616   1.481   1.815  0.0410 -0.6566 -0.3283
 9922TIP3   OH253960   6.714   2.731   1.440 -0.1635  0.8451 -0.3918
 9922TIP3    H153961   6.665   2.656   1.406 -1.3627  1.4361 -0.0520
 9922TIP3    H253962   6.683   2.805   1.388  1.2928  1.0627 -0.9883
 9923TIP3   OH253963   0.442   6.441   0.672  0.1665  0.3305 -0.0510
 9923TIP3    H153964   0.427   6.437   0.766 -2.5251 -1.9187 -0.4580
 9923TIP3    H253965   0.493   6.363   0.652 -3.1735 -1.8621 -0.8770
 9924TIP3   OH253966   6.281   4.613   1.219 -0.1777  0.2855 -0.0510
 9924TIP3    H153967   6.333   4.687   1.188  2.4268 -1.9771 -1.5355
 9924TIP3    H253968   6.222   4.594   1.147 -0.9560  0.9594  0.3928
 9925TIP3   OH253969   1.078   3.422   1.235 -0.5075 -0.4245 -0.1053
 9925TIP3    H153970   1.090   3.430   1.330  0.2551  2.2266 -0.3360
 9925TIP3    H253971   1.010   3.486   1.214 -0.4881 -0.7949 -1.3882
 9926TIP3   OH253972   4.921   7.386   2.887  0.1711 -0.0581 -0.3676
 9926TIP3    H153973   4.992   7.324   2.901 -0.8140 -0.9819  0.7010
 9926TIP3    H253974   4.851   7.357   2.945 -1.2810  0.5243 -1.7553
 9927TIP3   OH253975   0.936   3.376   2.597  0.5442  0.5591  0.2802
 9927TIP3    H153976   0.896   3.463   2.602  0.3360  0.5686 -1.2261
 9927TIP3    H253977   0.991   3.379   2.519  0.5462 -0.6543  0.2187
 9928TIP3   OH253978   2.279   2.509   2.576 -0.6387  0.0211  0.1293
 9928TIP3    H153979   2.259   2.464   2.494 -0.3851  0.1106  0.0178
 9928TIP3    H253980   2.370   2.538   2.566 -2.0958  4.9479 -1.8856
 9929TIP3   OH253981   5.737   5.237   0.798 -0.0061 -0.5611  0.6540
 9929TIP3    H153982   5.715   5.145   0.809  0.0909 -0.4250  2.2310
 9929TIP3    H253983   5.665   5.284   0.841 -1.8143  0.2899 -2.9296
 9930TIP3   OH253984   4.106   1.709   1.236  0.3800 -0.3584 -0.1292
 9930TIP3    H153985   4.018   1.673   1.243  1.2931 -2.7783  0.0656
 9930TIP3    H253986   4.141   1.673   1.154  0.6987  1.8028 -0.9950
 9931TIP3   OH253987   0.194   4.432   2.157  0.4873 -0.5103 -0.2660
 9931TIP3    H153988   0.220   4.428   2.065 -3.5832 -2.1747 -1.5620
 9931TIP3    H253989   0.186   4.525   2.176 -0.3904 -0.1392 -2.2395
 9932TIP3   OH253990   3.308   7.594   2.540  0.8065  0.4266 -0.4321
 9932TIP3    H153991   3.374   7.587   2.609 -0.0975  1.2397  0.5550
 9932TIP3    H253992   3.325   7.679   2.499 -0.6849  1.4996  1.0295
 9933TIP3   OH253993   0.537   0.934   1.583 -0.3255 -0.0848 -0.2379
 9933TIP3    H153994   0.495   0.850   1.569 -0.8590  0.2522 -0.6881
 9933TIP3    H253995   0.630   0.914   1.593 -0.5192 -0.7764  0.2000
 9934TIP3   OH253996   3.682   4.964   1.091 -0.1451 -0.7303 -0.0927
 9934TIP3    H153997   3.600   4.973   1.043 -0.1490 -1.8870 -0.3202
 9934TIP3    H253998   3.658   4.977   1.182 -0.0136  2.2911 -0.3857
 9935TIP3   OH253999   1.319   2.215   3.014 -0.3260  0.1979  0.6775
 9935TIP3    H154000   1.325   2.221   3.109 -0.6704  0.9066  0.6648
 9935TIP3    H254001   1.402   2.252   2.982 -0.9429  1.6582  0.6799
 9936TIP3   OH254002   2.595   2.360   0.437 -0.5567  0.1968 -0.0573
 9936TIP3    H154003   2.531   2.292   0.417 -1.3274  0.8874 -0.0050
 9936TIP3    H254004   2.597   2.415   0.358 -0.5384  0.5624  0.1949
 9937TIP3   OH254005   0.734   4.840   1.125  0.6454 -0.3038  0.4647
 9937TIP3    H154006   0.723   4.870   1.215  0.0908 -0.5665  0.4894
 9937TIP3    H254007   0.661   4.879   1.077  0.1240 -1.2854  0.4218
 9938TIP3   OH254008   6.640   0.598   2.413  0.4385 -0.7694  0.6531
 9938TIP3    H154009   6.697   0.521   2.419  1.2835 -0.1164  1.0979
 9938TIP3    H254010   6.665   0.652   2.488  1.1075  0.7749 -0.6347
 9939TIP3   OH254011   0.998   1.719   1.317  0.9321 -0.1476 -0.7846
 9939TIP3    H154012   1.003   1.814   1.306  0.5818 -0.1509 -0.9966
 9939TIP3    H254013   0.905   1.698   1.304  0.3737 -0.1378  2.4715
 9940TIP3   OH254014   2.885   4.198   1.100  0.0499  0.2213 -0.3956
 9940TIP3    H154015   2.920   4.253   1.171  1.1434 -0.4027 -0.4420
 9940TIP3    H254016   2.841   4.260   1.042 -0.6464  0.7781  0.6776
 9941TIP3   OH254017   3.728   7.182   1.333  0.3848 -0.3676  0.4613
 9941TIP3    H154018   3.820   7.207   1.340  0.8502 -2.3073  2.4726
 9941TIP3    H254019   3.729   7.104   1.276  0.0247 -0.5424  0.6901
 9942TIP3   OH254020   4.569   1.692   1.236 -0.5540  0.7224  0.4049
 9942TIP3    H154021   4.558   1.771   1.288 -1.7896  0.5152  0.4714
 9942TIP3    H254022   4.525   1.711   1.154  1.5122  1.1092 -0.6979
 9943TIP3   OH254023   4.889   4.754   1.204  0.0207 -0.6365  0.2705
 9943TIP3    H154024   4.851   4.701   1.275 -1.5613 -0.4310 -0.3679
 9943TIP3    H254025   4.983   4.742   1.213 -0.2286 -2.2986  1.1117
 9944TIP3   OH254026   5.409   0.422   0.935 -0.1378  0.7054  0.0412
 9944TIP3    H154027   5.451   0.475   0.867  1.2197  0.0596  0.3260
 9944TIP3    H254028   5.373   0.485   0.997  1.3988  1.3388  0.3484
 9945TIP3   OH254029   5.674   4.389   0.837  0.1440 -0.1759 -1.1185
 9945TIP3    H154030   5.655   4.321   0.902 -0.9900 -0.3314 -1.5890
 9945TIP3    H254031   5.674   4.471   0.887  0.8000 -0.4396 -0.6744
 9946TIP3   OH254032   6.013   0.261   3.533 -0.4337  0.2358 -0.0928
 9946TIP3    H154033   5.918   0.247   3.535 -0.2935 -0.8029 -0.4655
 9946TIP3    H254034   6.027   0.313   3.454 -0.8156  1.4995  0.6392
 9947TIP3   OH254035   0.146   0.993   0.533  0.1843  0.1915 -0.1018
 9947TIP3    H154036   0.219   0.973   0.475  0.2489  1.0806 -0.3336
 9947TIP3    H254037   0.181   0.982   0.621  0.4195  0.0163 -0.2164
 9948TIP3   OH254038   3.084   0.307   1.699 -0.2678 -0.0166 -0.0651
 9948TIP3    H154039   3.134   0.329   1.621 -0.4779  2.1623  0.3441
 9948TIP3    H254040   2.993   0.303   1.669 -0.3126  0.4799  0.0017
 9949TIP3   OH254041   1.005   0.324   0.892 -0.2536 -0.5638  0.0384
 9949TIP3    H154042   0.913   0.308   0.912 -0.2528  0.2815  0.7960
 9949TIP3    H254043   1.040   0.239   0.867 -1.3631 -0.7974 -0.7811
 9950TIP3   OH254044   5.203   3.514   0.880  0.0331  0.0596  0.0227
 9950TIP3    H154045   5.228   3.513   0.973 -0.5684 -0.6364  0.1808
 9950TIP3    H254046   5.161   3.430   0.865  1.3558 -0.4163 -1.2399
 9951TIP3   OH254047   4.250   2.885   1.695 -0.1457 -0.2668 -0.2236
 9951TIP3    H154048   4.342   2.873   1.718  0.0237  2.2998  0.7758
 9951TIP3    H254049   4.238   2.833   1.616  1.9768 -1.2093  0.0123
 9952TIP3   OH254050   5.960   2.647   1.667  0.3013 -0.4619 -0.0446
 9952TIP3    H154051   5.974   2.693   1.749  0.3448  0.5624 -0.6148
 9952TIP3    H254052   5.874   2.606   1.677 -0.6176  1.3349 -0.2300
 9953TIP3   OH254053   1.756   3.832   1.323 -0.1551  0.6848 -0.1915
 9953TIP3    H154054   1.704   3.752   1.319 -0.8403  1.0917  0.1826
 9953TIP3    H254055   1.806   3.825   1.405  0.0092  0.5083 -0.3072
 9954TIP3   OH254056   7.561   2.708   1.949  0.3920 -0.0119  0.3272
 9954TIP3    H154057   7.466   2.711   1.935  0.4272  0.3478  0.1347
 9954TIP3    H254058   7.598   2.724   1.862  0.6321 -0.6856  0.3056
 9955TIP3   OH254059   2.262   7.197   1.857 -0.1965  0.1460 -0.0946
 9955TIP3    H154060   2.271   7.286   1.891  0.5304  0.6544 -1.5378
 9955TIP3    H254061   2.332   7.148   1.900 -0.9357  0.1093  1.1209
 9956TIP3   OH254062   3.984   4.911   3.218  0.1967 -0.1167 -0.0592
 9956TIP3    H154063   4.009   4.999   3.191 -1.5613  0.7413  0.9474
 9956TIP3    H254064   4.029   4.898   3.302  1.9196 -0.9443 -1.0629
 9957TIP3   OH254065   0.643   6.785   2.119  0.3821 -0.1026  0.2245
 9957TIP3    H154066   0.696   6.708   2.139  1.2631  0.0872 -1.2754
 9957TIP3    H254067   0.665   6.808   2.029 -0.3507  1.5253  0.4137
 9958TIP3   OH254068   1.405   0.588   2.790  0.0723  0.3171  0.1638
 9958TIP3    H154069   1.339   0.638   2.838  0.1014 -0.3722  0.9431
 9958TIP3    H254070   1.481   0.646   2.785 -0.2527  0.7435  0.1228
 9959TIP3   OH254071   7.088   2.393   2.593  0.5066 -0.0304 -0.2364
 9959TIP3    H154072   7.103   2.430   2.680  1.1993 -0.3637 -0.2072
 9959TIP3    H254073   7.018   2.447   2.556  0.3210  0.2165  0.4619
 9960TIP3   OH254074   5.535   2.089   2.490 -0.1944  0.1226  0.3034
 9960TIP3    H154075   5.456   2.081   2.437 -1.4242 -0.3578  2.1011
 9960TIP3    H254076   5.563   1.998   2.504  2.3267  0.3091 -2.5127
 9961TIP3   OH254077   6.192   6.362   1.501 -0.3841 -0.5911 -0.0744
 9961TIP3    H154078   6.224   6.425   1.565  0.3757  0.8014 -1.7452
 9961TIP3    H254079   6.097   6.377   1.498 -0.0619  1.7150 -1.5799
 9962TIP3   OH254080   7.549   7.412   1.790  0.5754 -0.1359 -0.4359
 9962TIP3    H154081   7.479   7.354   1.762 -0.1289  1.1127 -1.3772
 9962TIP3    H254082   7.579   7.455   1.709  0.6921  1.1904  0.2767
 9963TIP3   OH254083   6.347   6.994   2.369  0.2253 -0.1142  0.0170
 9963TIP3    H154084   6.311   7.010   2.457 -2.4603 -3.3128 -0.2588
 9963TIP3    H254085   6.300   7.054   2.312 -0.7008 -0.4591  0.3909
 9964TIP3   OH254086   3.162   0.809   1.354  0.2554 -0.5844  0.0026
 9964TIP3    H154087   3.245   0.771   1.325  1.3892  0.7431  1.3048
 9964TIP3    H254088   3.143   0.765   1.437  0.2605 -0.1045  0.2653
 9965TIP3   OH254089   2.537   7.140   0.760 -0.1817 -0.3706 -0.9464
 9965TIP3    H154090   2.484   7.081   0.815 -0.7763 -2.5192 -3.6175
 9965TIP3    H254091   2.627   7.116   0.779 -0.4010 -1.6175 -1.4028
 9966TIP3   OH254092   0.764   3.231   0.831 -0.1004  0.1686 -0.3100
 9966TIP3    H154093   0.779   3.295   0.901  2.5967 -0.9522  0.2900
 9966TIP3    H254094   0.672   3.206   0.840  0.1812 -0.1507  3.1079
 9967TIP3   OH254095   5.714   4.974   1.746 -0.3303 -0.0710  0.5303
 9967TIP3    H154096   5.679   5.007   1.828  3.0144  2.6899  1.0523
 9967TIP3    H254097   5.692   5.041   1.682  0.5112 -0.2471  0.0390
 9968TIP3   OH254098   6.131   4.728   2.061 -0.1402  0.0896  0.9399
 9968TIP3    H154099   6.128   4.775   2.145 -1.9089  1.1253  0.3474
 9968TIP3    H254100   6.086   4.785   2.000  2.1792 -0.0817 -1.0826
 9969TIP3   OH254101   5.201   0.139   0.532 -0.0504 -0.5309  0.2288
 9969TIP3    H154102   5.277   0.195   0.550 -0.2256 -0.2805  0.2106
 9969TIP3    H254103   5.138   0.162   0.601 -0.4366 -0.1114 -0.2578
 9970TIP3   OH254104   3.445   4.072   2.593  0.3062 -0.1163 -0.3923
 9970TIP3    H154105   3.451   4.107   2.504 -0.7008 -0.9415 -0.8045
 9970TIP3    H254106   3.414   3.982   2.581 -2.4264  0.5292  0.8705
 9971TIP3   OH254107   1.684   7.498   2.950 -0.3111  0.0056  0.4419
 9971TIP3    H154108   1.762   7.553   2.962 -0.0893 -0.0430 -0.6082
 9971TIP3    H254109   1.701   7.452   2.867 -1.1708 -0.4953  0.5377
 9972TIP3   OH254110   4.739   2.908   1.980  0.5339  0.1955 -0.3873
 9972TIP3    H154111   4.780   2.925   2.065 -0.5354  0.2293  0.1439
 9972TIP3    H254112   4.750   2.814   1.966  0.0949  0.0582  0.1415
 9973TIP3   OH254113   6.593   2.363   1.822 -0.0078  0.5674  0.2470
 9973TIP3    H154114   6.642   2.281   1.830 -0.4025  0.2900 -0.1187
 9973TIP3    H254115   6.501   2.336   1.826 -0.1626  0.8744 -0.8461
 9974TIP3   OH254116   0.318   1.664   1.108  0.2267 -0.3499  0.4904
 9974TIP3    H154117   0.394   1.627   1.063 -0.2450  0.5491 -1.0841
 9974TIP3    H254118   0.254   1.593   1.107  0.8086 -0.9206  1.3281
 9975TIP3   OH254119   6.953   2.127   0.970  0.2858  0.5016  0.6534
 9975TIP3    H154120   6.866   2.095   0.943 -0.1844  2.9337 -1.0486
 9975TIP3    H254121   6.937   2.174   1.051  0.4429 -0.8457  1.4980
 9976TIP3   OH254122   0.364   5.070   1.394  0.2812  0.0410  0.0596
 9976TIP3    H154123   0.366   4.975   1.411  0.5090 -0.0051 -0.2183
 9976TIP3    H254124   0.400   5.109   1.473  1.2252 -0.1673 -0.2496
 9977TIP3   OH254125   5.273   6.426   1.614  0.0616 -1.0914 -0.3143
 9977TIP3    H154126   5.317   6.396   1.534  1.3254 -2.3666  0.7982
 9977TIP3    H254127   5.336   6.486   1.654  0.5570 -2.3548  0.9169
 9978TIP3   OH254128   2.428   6.031   2.243 -0.0896 -0.4087  0.2598
 9978TIP3    H154129   2.343   6.004   2.209 -0.4102  0.1468  0.6048
 9978TIP3    H254130   2.408   6.073   2.327  0.7515 -2.5384  1.6028
 9979TIP3   OH254131   2.873   3.808   0.855  0.6910 -0.1651 -0.3294
 9979TIP3    H154132   2.786   3.773   0.836 -0.1273  1.6843 -0.1433
 9979TIP3    H254133   2.894   3.775   0.942  0.6097 -1.3770 -0.7421
 9980TIP3   OH254134   2.609   4.465   1.289 -0.4518 -0.3084  0.0153
 9980TIP3    H154135   2.642   4.440   1.375 -2.2565 -0.7745  0.6101
 9980TIP3    H254136   2.564   4.387   1.256 -1.3381  0.4044 -0.5458
 9981TIP3   OH254137   1.958   5.482   2.658 -0.1815  0.3037  0.4992
 9981TIP3    H154138   2.024   5.525   2.712 -0.3758  0.6372  0.4738
 9981TIP3    H254139   2.006   5.412   2.612 -0.1994 -0.5959  1.7951
 9982TIP3   OH254140   2.619   0.967   1.122  0.7245  0.6135  0.6563
 9982TIP3    H154141   2.708   0.931   1.128 -0.4042 -2.6864 -0.1772
 9982TIP3    H254142   2.583   0.954   1.210  0.8799  1.4415  0.8455
 9983TIP3   OH254143   3.996   6.223   1.643  0.3080  0.5222 -0.0810
 9983TIP3    H154144   3.922   6.220   1.704  1.2651  1.8157  1.1978
 9983TIP3    H254145   3.968   6.285   1.576 -0.1593  0.2179 -0.1803
 9984TIP3   OH254146   6.370   0.428   3.303 -0.5747 -0.7346 -0.3622
 9984TIP3    H154147   6.354   0.516   3.268  0.3207 -0.2094  0.5240
 9984TIP3    H254148   6.287   0.404   3.345 -0.0437  0.7896  1.7044
 9985TIP3   OH254149   6.109   0.374   0.719  0.3377 -0.9894  0.3704
 9985TIP3    H154150   6.080   0.449   0.770  1.1077 -1.1573  1.0725
 9985TIP3    H254151   6.028   0.338   0.682 -0.0272  0.2538 -0.1043
 9986TIP3   OH254152   0.980   3.677   1.185  0.1297  0.1356  0.4209
 9986TIP3    H154153   0.919   3.747   1.165  0.5644  0.0800 -1.2558
 9986TIP3    H254154   0.979   3.671   1.280  0.4280  2.7231  0.6681
 9987TIP3   OH254155   2.322   6.724   2.862  0.5726  0.0093 -0.0521
 9987TIP3    H154156   2.328   6.631   2.881  0.8025  0.2517  1.1098
 9987TIP3    H254157   2.240   6.752   2.903  0.1622  0.1946 -0.9755
 9988TIP3   OH254158   0.090   6.247   1.449  0.0197 -0.1698  0.4009
 9988TIP3    H154159   0.074   6.160   1.414 -0.9206 -0.4043  1.3706
 9988TIP3    H254160   0.004   6.278   1.477  0.4182  0.8796  0.5055
 9989TIP3   OH254161   6.563   6.407   0.380  0.5474 -0.3002 -0.2787
 9989TIP3    H154162   6.658   6.419   0.388  0.3765  0.1119  1.4787
 9989TIP3    H254163   6.529   6.495   0.364  0.4544 -0.4848 -1.1918
 9990TIP3   OH254164   6.329   3.723   2.289  0.7797 -0.1876  0.1713
 9990TIP3    H154165   6.238   3.731   2.317 -0.4884 -0.3675 -3.3966
 9990TIP3    H254166   6.377   3.786   2.343 -1.6658  0.8077  1.2986
 9991TIP3   OH254167   1.426   6.428   1.085  0.0244 -0.5282 -0.2369
 9991TIP3    H154168   1.418   6.517   1.050 -0.1103 -0.3152  0.3274
 9991TIP3    H254169   1.347   6.384   1.057  0.1127 -0.4856 -0.5597
 9992TIP3   OH254170   5.510   6.501   0.618 -0.2392 -0.0223 -0.2006
 9992TIP3    H154171   5.443   6.566   0.599  1.1692  0.9183 -2.2974
 9992TIP3    H254172   5.488   6.427   0.562 -0.3698 -0.3429  0.2637
 9993TIP3   OH254173   2.579   0.370   1.374  0.1835  0.3310 -0.2186
 9993TIP3    H154174   2.646   0.417   1.324 -0.1671  0.3778 -0.6450
 9993TIP3    H254175   2.556   0.295   1.319 -0.1337  0.3261 -0.0823
 9994TIP3   OH254176   4.985   7.660   1.449 -0.2335  0.2307 -0.3000
 9994TIP3    H154177   5.069   7.615   1.449 -0.5272 -0.4220  1.6417
 9994TIP3    H254178   4.930   7.608   1.508 -1.6921  1.1854 -0.7642
 9995TIP3   OH254179   2.268   4.464   2.313 -0.1451  0.3974  0.0607
 9995TIP3    H154180   2.238   4.394   2.371  1.3270 -0.7263 -0.4477
 9995TIP3    H254181   2.331   4.513   2.365  0.6528 -0.1869 -0.3185
 9996TIP3   OH254182   5.597   1.055   0.866 -0.5175 -0.0365  0.3779
 9996TIP3    H154183   5.663   1.114   0.829 -0.6152 -0.2830 -0.2053
 9996TIP3    H254184   5.648   0.988   0.911 -0.3491 -0.3540 -0.2659
 9997TIP3   OH254185   4.357   3.044   2.011 -0.2707  0.5153 -0.2090
 9997TIP3    H154186   4.417   3.023   1.939  0.0551  0.9712 -0.0821
 9997TIP3    H254187   4.313   3.124   1.982  0.1936  0.9627  0.2786
 9998TIP3   OH254188   3.650   3.362   3.128  0.3356 -0.1991 -0.0803
 9998TIP3    H154189   3.568   3.339   3.083 -0.9511  1.2344  1.3716
 9998TIP3    H254190   3.661   3.293   3.193 -0.1291 -0.0225  0.1933
 9999TIP3   OH254191   1.728   5.707   2.245 -0.1280 -0.0293  0.3943
 9999TIP3    H154192   1.674   5.651   2.302  0.5361 -0.6113  0.4736
 9999TIP3    H254193   1.803   5.729   2.299  1.5610 -2.2910 -0.8629
10000TIP3   OH254194   6.558   7.188   2.844 -0.2687 -0.2991 -0.3430
10000TIP3    H154195   6.557   7.093   2.860  1.0862 -0.3488 -0.5130
10000TIP3    H254196   6.467   7.215   2.860 -0.1403 -1.1637  2.4356
10001TIP3   OH254197   4.504   3.444   1.383 -0.2254 -0.2156  0.1116
10001TIP3    H154198   4.567   3.395   1.330 -0.0439  0.8105 -0.6530
10001TIP3    H254199   4.425   3.449   1.329 -0.6423 -0.6663  0.6697
10002TIP3   OH254200   6.924   6.774   1.782  0.2898  0.5070  0.1059
10002TIP3    H154201   6.862   6.701   1.779  0.7453  0.0798  0.9021
10002TIP3    H254202   6.949   6.787   1.690 -0.7984  0.5408 -0.1991
10003TIP3   OH254203   5.301   6.696   0.993  0.0266 -0.1181  0.3372
10003TIP3    H154204   5.318   6.617   1.043 -1.6202 -0.6749  0.0938
10003TIP3    H254205   5.383   6.715   0.948  0.9734 -0.6788  1.7430
10004TIP3   OH254206   1.214   2.627   2.442  0.0413 -0.1443 -0.1920
10004TIP3    H154207   1.146   2.569   2.477  0.0774 -0.4280 -0.5805
10004TIP3    H254208   1.166   2.699   2.401 -0.0148 -0.1023 -0.0509
10005TIP3   OH254209   1.181   4.021   1.294 -0.1033 -0.1328  0.1421
10005TIP3    H154210   1.270   3.988   1.309  0.1800 -0.4555 -1.9074
10005TIP3    H254211   1.131   3.992   1.370  1.4990 -0.0864  1.2629
10006TIP3   OH254212   5.212   2.560   0.687 -0.3677 -0.0627 -0.2490
10006TIP3    H154213   5.203   2.495   0.756 -1.9665 -1.2272 -1.4654
10006TIP3    H254214   5.260   2.514   0.618 -1.6856 -0.0635 -1.1988
10007TIP3   OH254215   3.285   3.309   1.786  0.9965  0.5421  0.2171
10007TIP3    H154216   3.364   3.258   1.807  1.4685  1.0842 -0.2118
10007TIP3    H254217   3.242   3.322   1.870  0.1951 -1.6214  0.2206
10008TIP3   OH254218   6.019   7.187   2.599 -0.0561 -0.2023 -0.2613
10008TIP3    H154219   6.002   7.238   2.678 -0.9722  0.8354 -1.1057
10008TIP3    H254220   6.110   7.159   2.607 -0.8962 -2.7102  2.6081
10009TIP3   OH254221   0.299   0.265   1.327 -0.1006  0.2134 -0.0224
10009TIP3    H154222   0.324   0.298   1.241  0.4427 -0.3420 -0.0894
10009TIP3    H254223   0.365   0.301   1.386 -1.0618  1.4237  0.3288
10010TIP3   OH254224   5.465   4.468   2.183  0.0682 -0.4923  0.5874
10010TIP3    H154225   5.413   4.548   2.186 -0.4671 -0.5610 -2.7352
10010TIP3    H254226   5.556   4.498   2.183 -0.1285  0.1582 -0.4549
10011TIP3   OH254227   0.398   2.578   3.494 -0.2530  0.0331 -0.7111
10011TIP3    H154228   0.487   2.563   3.527 -1.1274 -0.2860  1.6923
10011TIP3    H254229   0.376   2.665   3.525 -0.9327 -0.0529 -0.9464
10012TIP3   OH254230   3.067   5.810   0.946 -0.4471  0.8395 -0.3533
10012TIP3    H154231   2.988   5.757   0.959 -1.4002  2.3625  0.3481
10012TIP3    H254232   3.139   5.752   0.971 -1.3442 -0.4853 -0.6911
10013TIP3   OH254233   4.651   1.367   0.551  0.0986 -0.2464  0.2402
10013TIP3    H154234   4.569   1.410   0.528 -1.3543 -3.2202 -0.7547
10013TIP3    H254235   4.714   1.438   0.563 -2.2539  2.0864 -0.3759
10014TIP3   OH254236   4.333   4.049   1.002 -0.3359 -0.0487 -0.0461
10014TIP3    H154237   4.244   4.036   0.968  0.8531 -3.4975 -2.4729
10014TIP3    H254238   4.359   4.135   0.968 -2.9370  1.4526  1.4677
10015TIP3   OH254239   6.564   0.806   2.246  0.0765  0.4292 -0.4687
10015TIP3    H154240   6.477   0.821   2.283  0.4624  1.1204  0.1810
10015TIP3    H254241   6.609   0.752   2.311  1.7273  3.9201  1.6336
10016TIP3   OH254242   1.213   5.835   1.049  0.1462 -0.1544  0.1401
10016TIP3    H154243   1.261   5.752   1.044  0.2186 -0.0529 -1.0259
10016TIP3    H254244   1.123   5.812   1.026 -0.2055 -0.1755  1.4089
10017TIP3   OH254245   1.410   4.524   1.055  0.1807  0.2873 -0.6954
10017TIP3    H154246   1.337   4.579   1.083 -0.7634  0.3098 -2.9869
10017TIP3    H254247   1.418   4.541   0.961  2.6780 -0.2907 -0.6502
10018TIP3   OH254248   0.980   4.669   2.531 -0.4917 -0.1979 -0.1402
10018TIP3    H154249   0.913   4.642   2.594 -0.6872  0.4195 -0.0739
10018TIP3    H254250   1.062   4.641   2.571 -0.7018 -0.9313 -0.2063
10019TIP3   OH254251   3.860   5.414   2.527 -0.5599  0.1346  0.0715
10019TIP3    H154252   3.938   5.375   2.488 -0.9864 -0.3314 -0.3333
10019TIP3    H254253   3.793   5.347   2.518 -1.2093  0.8109 -0.2681
10020TIP3   OH254254   4.553   5.289   1.624  0.1569 -0.2051 -0.2706
10020TIP3    H154255   4.615   5.361   1.636 -1.9444  1.6560  0.0523
10020TIP3    H254256   4.547   5.277   1.530  1.9819 -1.3812 -0.2891
10021TIP3   OH254257   2.795   2.812   2.264 -0.0869 -0.3996  0.0960
10021TIP3    H154258   2.879   2.854   2.245  0.3495 -1.6227 -0.8147
10021TIP3    H254259   2.729   2.877   2.237  0.5615  0.0650 -0.3969
10022TIP3   OH254260   1.213   7.158   2.330 -0.7849  0.2649  0.1389
10022TIP3    H154261   1.248   7.082   2.284  0.1842  0.3886  0.6355
10022TIP3    H254262   1.162   7.205   2.265  0.9774  0.7176 -0.9737
10023TIP3   OH254263   0.865   7.337   0.769 -0.3948 -0.3319 -0.2843
10023TIP3    H154264   0.874   7.355   0.863  0.5489 -0.4439 -0.3355
10023TIP3    H254265   0.822   7.252   0.765 -2.4037  0.6231 -0.0007
10024TIP3   OH254266   3.265   3.867   1.723 -0.0372 -0.5267 -0.1520
10024TIP3    H154267   3.175   3.863   1.692  0.1286  0.2306 -0.7446
10024TIP3    H254268   3.286   3.776   1.747 -0.6289 -0.8776 -0.9361
10025TIP3   OH254269   1.397   0.294   2.170 -0.4447  0.2318 -0.3409
10025TIP3    H154270   1.385   0.204   2.140  0.3945  0.1188 -0.3710
10025TIP3    H254271   1.492   0.305   2.175 -0.5399  1.0775 -0.2170
10026TIP3   OH254272   1.154   2.208   1.670  0.2391 -0.7890 -0.6805
10026TIP3    H154273   1.060   2.223   1.682  0.6448  0.6667  1.0689
10026TIP3    H254274   1.195   2.254   1.743  2.3369 -1.2597 -1.5042
10027TIP3   OH254275   2.679   2.818   3.300  0.2653 -0.1896  0.1853
10027TIP3    H154276   2.705   2.744   3.355  0.5329 -2.0769 -2.3324
10027TIP3    H254277   2.635   2.778   3.225 -1.4227  2.3675 -0.3037
10028TIP3   OH254278   3.394   3.549   1.410 -0.3524  0.0888  0.1040
10028TIP3    H154279   3.391   3.644   1.412 -1.3580  0.0632  0.7446
10028TIP3    H254280   3.485   3.527   1.431 -0.5134  0.8851  1.7517
10029TIP3   OH254281   5.636   5.610   0.882 -0.0431  0.1480  0.5884
10029TIP3    H154282   5.609   5.561   0.960 -1.3025  2.8159  1.9470
10029TIP3    H254283   5.632   5.702   0.908  0.4252  1.1244 -2.3675
10030TIP3   OH254284   0.393   6.371   2.745 -0.9477 -0.2903 -0.0604
10030TIP3    H154285   0.306   6.394   2.713 -1.9145 -2.0340  1.1116
10030TIP3    H254286   0.378   6.295   2.802  1.4113 -0.9782 -0.2375
10031TIP3   OH254287   6.812   7.638   2.253 -0.1277 -0.6792  0.5380
10031TIP3    H154288   6.722   7.667   2.263 -0.3236 -0.5343 -1.3211
10031TIP3    H254289   6.805   7.550   2.217  0.4406 -0.0548 -1.1809
10032TIP3   OH254290   1.233   1.597   1.340 -0.2063 -0.3167 -0.4296
10032TIP3    H154291   1.260   1.636   1.424 -0.0847  1.1704 -1.1151
10032TIP3    H254292   1.142   1.625   1.330 -0.3630 -0.8758 -0.5960
10033TIP3   OH254293   1.781   2.276   1.995 -0.0587 -0.2003 -0.8128
10033TIP3    H154294   1.849   2.265   2.061 -1.6422 -2.3204  0.6051
10033TIP3    H254295   1.749   2.188   1.978 -1.3166  0.5404 -2.7040
10034TIP3   OH254296   1.027   7.442   0.533  0.6290 -0.2393 -0.2237
10034TIP3    H154297   1.079   7.458   0.611 -0.5284  1.7855  0.2100
10034TIP3    H254298   0.969   7.369   0.557  1.5199 -0.8503  0.1331
10035TIP3   OH254299   6.948   6.499   1.291  0.1113 -0.1259  0.4956
10035TIP3    H154300   6.892   6.455   1.227  0.5627 -1.7781  1.1891
10035TIP3    H254301   6.930   6.592   1.278 -0.2781 -0.4402 -1.5902
10036TIP3   OH254302   1.772   4.565   2.874  0.1340 -1.2068  0.4805
10036TIP3    H154303   1.719   4.581   2.951 -0.6414  0.3613 -0.3352
10036TIP3    H254304   1.862   4.578   2.904 -0.0735 -1.7424  1.3686
10037TIP3   OH254305   5.328   1.527   1.653  0.4918 -0.5407  0.4186
10037TIP3    H154306   5.287   1.573   1.726 -0.3018 -1.8830  0.8424
10037TIP3    H254307   5.400   1.585   1.626 -0.8659  1.2500  0.4890
10038TIP3   OH254308   7.387   6.543   1.470  0.0116  0.0863 -0.3047
10038TIP3    H154309   7.425   6.631   1.473 -0.0303  0.1208 -0.7756
10038TIP3    H254310   7.292   6.558   1.469  0.0005  0.0274 -0.1765
10039TIP3   OH254311   6.509   4.696   1.745 -0.0405 -0.4641 -0.2012
10039TIP3    H154312   6.481   4.781   1.711  2.9272  0.3417 -0.9830
10039TIP3    H254313   6.511   4.708   1.840 -2.7921 -0.8258 -0.0208
10040TIP3   OH254314   0.963   0.815   0.757 -0.5680 -0.1162  0.5072
10040TIP3    H154315   0.978   0.722   0.736 -1.0911 -0.2194  0.5696
10040TIP3    H254316   0.891   0.841   0.700 -0.0394  0.4176  0.0776
10041TIP3   OH254317   2.406   1.221   1.508  0.4187 -0.7105  0.3601
10041TIP3    H154318   2.322   1.201   1.468  0.3097  1.1615 -0.4630
10041TIP3    H254319   2.470   1.176   1.452  0.0129 -1.8493  0.7860
10042TIP3   OH254320   2.148   2.334   2.795 -0.0777 -0.1270  0.1739
10042TIP3    H154321   2.145   2.341   2.890 -0.0424  1.4829  0.0856
10042TIP3    H254322   2.116   2.419   2.763  0.9651 -0.2191 -1.2379
10043TIP3   OH254323   0.511   0.324   1.803 -0.3775 -0.4289 -0.2323
10043TIP3    H154324   0.582   0.275   1.761 -1.3202 -1.3939 -0.7564
10043TIP3    H254325   0.530   0.318   1.897 -0.8704 -2.5403 -0.2124
10044TIP3   OH254326   7.542   4.905   1.794 -0.3973 -0.6123 -0.5357
10044TIP3    H154327   7.488   4.913   1.715 -0.7758 -2.6574 -0.5223
10044TIP3    H254328   7.627   4.878   1.762  0.3378  1.4013 -0.4413
10045TIP3   OH254329   3.368   6.603   3.026 -0.0371  0.0874  0.1251
10045TIP3    H154330   3.417   6.542   2.970 -2.5650 -1.4964 -0.5214
10045TIP3    H254331   3.363   6.558   3.111 -0.3970  0.2397  0.1833
10046TIP3   OH254332   5.261   7.131   2.284 -0.1870 -0.1372  0.1403
10046TIP3    H154333   5.291   7.042   2.303  0.3949  0.2588  1.1800
10046TIP3    H254334   5.341   7.183   2.279 -0.4775  0.2011 -1.2516
10047TIP3   OH254335   1.113   6.077   2.480  0.6857 -0.0530  0.6254
10047TIP3    H154336   1.160   6.081   2.397  0.4294 -0.0850  0.4772
10047TIP3    H254337   1.161   6.137   2.538  0.9747 -0.1730  0.5116
10048TIP3   OH254338   2.115   2.033   1.431 -0.1328  0.4605 -0.0628
10048TIP3    H154339   2.045   2.079   1.384  0.0950  1.1350  0.2497
10048TIP3    H254340   2.152   2.099   1.490  1.4929  0.4276 -0.9824
10049TIP3   OH254341   4.629   0.593   2.266  0.3525 -1.0423 -0.4760
10049TIP3    H154342   4.643   0.516   2.210  1.6289 -1.1818  0.0136
10049TIP3    H254343   4.692   0.583   2.337  0.9048  0.7177 -0.6745
10050TIP3   OH254344   5.365   2.236   0.696  0.4695  0.2652 -0.0277
10050TIP3    H154345   5.321   2.185   0.764  0.3130 -0.4569 -0.6550
10050TIP3    H254346   5.329   2.202   0.614  1.5806  0.2390 -0.5178
10051TIP3   OH254347   3.384   0.868   1.059  0.0316  0.2164 -0.4016
10051TIP3    H154348   3.409   0.845   1.148  1.2012  1.5993 -0.3368
10051TIP3    H254349   3.316   0.935   1.069  0.8572  1.0999 -0.5019
10052TIP3   OH254350   4.108   3.257   2.981 -0.1524 -0.0263  0.0449
10052TIP3    H154351   4.146   3.319   3.043  1.7765  1.2282 -2.1983
10052TIP3    H254352   4.014   3.268   2.991  0.0320  3.9517 -0.7375
10053TIP3   OH254353   2.856   5.859   0.410 -0.1495 -0.6815 -0.1963
10053TIP3    H154354   2.851   5.830   0.319 -1.6400  0.3367 -0.4811
10053TIP3    H254355   2.830   5.951   0.407  0.8037 -0.3372  1.1401
10054TIP3   OH254356   0.905   4.019   2.718 -0.0298 -0.4199  0.1123
10054TIP3    H154357   0.991   4.061   2.726 -1.0337  2.4770 -2.2621
10054TIP3    H254358   0.909   3.973   2.634 -1.3059  1.4856 -1.0941
10055TIP3   OH254359   7.545   2.508   2.166  0.3523 -0.6269 -0.2403
10055TIP3    H154360   7.508   2.585   2.123  1.0551 -1.0882 -1.7241
10055TIP3    H254361   7.484   2.437   2.144 -0.1041 -0.5881  0.8316
10056TIP3   OH254362   2.481   0.249   2.379  0.1577  0.0720  0.1500
10056TIP3    H154363   2.469   0.325   2.323  1.7984 -0.9160 -1.6688
10056TIP3    H254364   2.566   0.213   2.352  0.2851 -1.3446  2.2336
10057TIP3   OH254365   5.530   1.260   1.208 -0.3010  0.2789  0.5084
10057TIP3    H154366   5.601   1.223   1.260  0.1977  1.5106  0.7520
10057TIP3    H254367   5.482   1.315   1.269 -1.1682 -0.1351  0.2175
10058TIP3   OH254368   1.175   3.555   1.786  0.3255 -0.2861 -0.0969
10058TIP3    H154369   1.163   3.494   1.859  0.4699 -0.1661  0.0303
10058TIP3    H254370   1.190   3.499   1.710 -1.1108 -0.4413 -0.2888
10059TIP3   OH254371   1.275   1.443   1.652 -0.2562  0.4260 -0.0231
10059TIP3    H154372   1.280   1.534   1.622 -0.2058  0.3208 -0.3356
10059TIP3    H254373   1.362   1.408   1.635 -0.7114 -0.1230 -1.3319
10060TIP3   OH254374   6.223   4.516   0.602  0.4265 -0.7602  0.0333
10060TIP3    H154375   6.168   4.494   0.527  0.0394  0.6923 -0.1422
10060TIP3    H254376   6.253   4.605   0.584  2.1172 -1.1990  0.5611
10061TIP3   OH254377   4.210   5.938   3.357 -0.2034 -0.0146 -0.4748
10061TIP3    H154378   4.275   5.989   3.406  0.3144 -0.6196 -0.5283
10061TIP3    H254379   4.131   5.941   3.412  0.1662 -0.1098  0.0657
10062TIP3   OH254380   3.788   4.514   1.698  0.0079 -0.0726 -0.6631
10062TIP3    H154381   3.790   4.587   1.760  2.5031 -1.8240  1.5396
10062TIP3    H254382   3.874   4.517   1.655 -0.3374 -1.0087 -1.4603
10063TIP3   OH254383   0.997   6.726   3.056  0.3153 -0.3458  0.2911
10063TIP3    H154384   1.042   6.783   3.118  1.9043  0.2363 -1.3290
10063TIP3    H254385   0.935   6.784   3.012  0.6707 -0.2673 -0.1109
10064TIP3   OH254386   6.889   5.474   1.458 -0.1430 -0.6298 -0.6366
10064TIP3    H154387   6.912   5.420   1.534  3.3716  2.1968  0.5891
10064TIP3    H254388   6.897   5.415   1.383  1.5544 -2.3082  0.7636
10065TIP3   OH254389   4.311   1.937   2.451  0.5800  0.1491  0.4729
10065TIP3    H154390   4.388   1.969   2.405  0.6786  0.9752  1.1965
10065TIP3    H254391   4.288   2.007   2.513 -0.8374  0.0034  0.1667
10066TIP3   OH254392   6.793   3.141   2.580  0.7106 -0.3958  0.2460
10066TIP3    H154393   6.719   3.144   2.520  1.1952  0.5941 -0.3258
10066TIP3    H254394   6.830   3.053   2.569  0.1013 -0.6232 -0.0374
10067TIP3   OH254395   7.033   1.667   3.045  0.4080  0.3714 -0.3165
10067TIP3    H154396   6.966   1.613   3.003  1.6025 -1.3152 -0.1116
10067TIP3    H254397   7.111   1.655   2.992  1.6041 -0.7985  1.5829
10068TIP3   OH254398   6.103   4.905   3.003  0.1924 -0.0655 -0.0758
10068TIP3    H154399   6.122   4.816   2.971 -3.0429 -1.0163  0.2711
10068TIP3    H254400   6.096   4.895   3.098 -0.7209  0.4076 -0.0790
10069TIP3   OH254401   4.854   1.447   3.337  0.2766  0.2400  0.3304
10069TIP3    H154402   4.877   1.513   3.402  0.0338  0.5336  0.1217
10069TIP3    H254403   4.920   1.457   3.268 -0.0280  0.5767  0.0841
10070TIP3   OH254404   0.194   4.657   0.783 -0.1968 -0.4723 -0.0627
10070TIP3    H154405   0.119   4.609   0.819  0.2354 -0.6731  0.5886
10070TIP3    H254406   0.159   4.702   0.706 -1.1364 -0.0681  0.5792
10071TIP3   OH254407   5.361   4.607   1.505 -0.0548 -0.3360  0.4470
10071TIP3    H154408   5.275   4.634   1.540  0.2252  0.6682  0.3975
10071TIP3    H254409   5.409   4.689   1.495  0.9395 -0.8981  0.5175
10072TIP3   OH254410   1.849   1.667   2.474  0.5405  0.2091 -0.1809
10072TIP3    H154411   1.801   1.587   2.499 -0.4769  0.3778 -1.4977
10072TIP3    H254412   1.856   1.716   2.556  2.0099 -1.6091  0.8559
10073TIP3   OH254413   6.517   2.616   1.819  0.1745 -0.2565 -0.6105
10073TIP3    H154414   6.498   2.636   1.727 -0.4259  1.3296 -0.1871
10073TIP3    H254415   6.557   2.529   1.818 -0.6283 -0.6382 -2.2798
10074TIP3   OH254416   4.869   0.781   1.244  0.3212  0.1674 -0.5726
10074TIP3    H154417   4.837   0.853   1.190 -0.0302 -0.6081 -1.4167
10074TIP3    H254418   4.953   0.812   1.278 -0.8956  1.9417  1.0678
10075TIP3   OH254419   5.602   6.080   2.884  0.0784  0.1347 -0.4154
10075TIP3    H154420   5.667   6.129   2.835 -0.3667 -1.1709 -2.4384
10075TIP3    H254421   5.602   5.993   2.844 -1.0713 -0.6839  1.2440
10076TIP3   OH254422   4.170   6.889   2.299 -0.2700  0.5808  0.7530
10076TIP3    H154423   4.201   6.921   2.384  2.2190  0.7199 -0.1137
10076TIP3    H254424   4.227   6.815   2.279 -0.3344  0.9852 -1.0954
10077TIP3   OH254425   1.607   5.798   2.010  0.5148 -0.0674  0.2770
10077TIP3    H154426   1.657   5.760   2.083 -2.9230 -0.3215  2.7430
10077TIP3    H254427   1.610   5.893   2.026 -2.1337 -0.2274  2.2883
10078TIP3   OH254428   4.679   0.174   2.313 -0.2153  0.4061  0.0458
10078TIP3    H154429   4.620   0.103   2.338 -1.3372  0.6346 -1.7843
10078TIP3    H254430   4.683   0.230   2.390  1.0791 -1.8043  1.7231
10079TIP3   OH254431   5.293   2.875   1.593 -0.2906 -0.2772 -0.5628
10079TIP3    H154432   5.263   2.842   1.509 -0.8049 -1.2917 -0.0102
10079TIP3    H254433   5.370   2.821   1.614 -1.3783 -1.4807  0.5360
10080TIP3   OH254434   4.819   5.084   2.116 -0.5955 -0.1344 -0.4051
10080TIP3    H154435   4.795   5.156   2.174 -0.1719  0.2366 -0.6853
10080TIP3    H254436   4.788   5.112   2.030 -0.7982 -0.4715 -0.4440
10081TIP3   OH254437   2.153   6.207   1.343 -0.0387  0.0381  0.1771
10081TIP3    H154438   2.218   6.265   1.304  0.0959 -0.2797 -0.0780
10081TIP3    H254439   2.165   6.216   1.437 -0.4285  0.8896  0.1561
10082TIP3   OH254440   6.833   3.290   0.550  0.2160 -0.5372 -0.1723
10082TIP3    H154441   6.781   3.251   0.620  0.1755  0.0470  0.1238
10082TIP3    H254442   6.779   3.362   0.518 -0.2204 -1.4069 -1.4855
10083TIP3   OH254443   5.728   4.075   2.098 -0.5189  0.2704 -0.0253
10083TIP3    H154444   5.795   4.020   2.058  1.2404  1.4932  1.0739
10083TIP3    H254445   5.718   4.149   2.038  0.0333  0.6876  0.3838
10084TIP3   OH254446   2.573   3.855   3.059 -0.3233 -0.1027  0.3081
10084TIP3    H154447   2.614   3.769   3.044  0.2904  0.5839 -2.4386
10084TIP3    H254448   2.629   3.897   3.125 -0.0933 -1.4382  0.9971
10085TIP3   OH254449   0.255   7.220   1.658 -0.0313 -0.1691 -0.3508
10085TIP3    H154450   0.193   7.169   1.605 -1.7258  1.4334  0.0131
10085TIP3    H254451   0.221   7.215   1.747  0.9637 -0.1068  0.0453
10086TIP3   OH254452   1.205   0.965   1.411  0.2826 -0.9558 -0.5732
10086TIP3    H154453   1.192   1.044   1.359 -1.0589 -0.9569 -0.2812
10086TIP3    H254454   1.298   0.965   1.433  0.2751  0.6117 -0.4708
10087TIP3   OH254455   3.835   6.867   1.335  0.0820 -0.3720  0.0225
10087TIP3    H154456   3.796   6.910   1.412  0.2076  0.1581 -0.2055
10087TIP3    H254457   3.760   6.826   1.290 -0.2716  0.8843 -0.5675
10088TIP3   OH254458   4.106   0.096   3.374 -0.3412 -0.3956  0.1684
10088TIP3    H154459   4.125   0.034   3.304 -1.9614  0.3265 -0.9599
10088TIP3    H254460   4.114   0.045   3.454  1.8666 -1.1612 -0.4836
10089TIP3   OH254461   4.690   6.893   2.215  0.7439 -0.4553 -0.1211
10089TIP3    H154462   4.646   6.821   2.261  0.6652  0.3035  1.0152
10089TIP3    H254463   4.783   6.881   2.234  0.8140 -0.7209 -0.6126
10090TIP3   OH254464   6.875   1.356   1.014 -0.2594 -0.1505 -0.1382
10090TIP3    H154465   6.876   1.447   1.045 -0.1011  0.0664 -0.7752
10090TIP3    H254466   6.968   1.334   1.003 -0.3136 -0.2216 -0.4657
10091TIP3   OH254467   3.859   2.812   1.733  0.0639  0.0201 -0.3125
10091TIP3    H154468   3.865   2.884   1.670 -0.5436  0.3682  0.0181
10091TIP3    H254469   3.934   2.826   1.792 -0.4573  0.8184  0.1834
10092TIP3   OH254470   3.239   6.552   2.212 -0.5396 -0.0918  0.0793
10092TIP3    H154471   3.220   6.545   2.306 -1.4946  1.8199  0.0894
10092TIP3    H254472   3.322   6.600   2.208 -0.1871 -0.7053 -0.0612
10093TIP3   OH254473   6.479   5.028   2.966  0.3741 -0.3145  0.1867
10093TIP3    H154474   6.506   5.006   2.877  2.1939 -0.9263  0.8486
10093TIP3    H254475   6.537   4.977   3.022  1.1030  2.0603  1.7541
10094TIP3   OH254476   3.664   3.352   1.639  0.1140  1.0965  0.0478
10094TIP3    H154477   3.758   3.370   1.630 -0.0198  1.6764 -0.1975
10094TIP3    H254478   3.641   3.388   1.724  0.2796  0.2321  0.4677
10095TIP3   OH254479   7.553   7.101   0.832 -0.8612 -0.5405 -0.4338
10095TIP3    H154480   7.514   7.057   0.908  0.5256 -0.1616  0.5452
10095TIP3    H254481   7.603   7.033   0.788 -0.9837 -0.5736 -0.5214
10096TIP3   OH254482   7.393   4.377   1.335  0.5025 -0.1912  0.5345
10096TIP3    H154483   7.422   4.468   1.326  2.1918 -0.6624  0.9400
10096TIP3    H254484   7.377   4.365   1.428  2.3831 -0.8724  0.8150
10097TIP3   OH254485   1.244   6.701   0.461 -0.1657  0.3338 -0.1594
10097TIP3    H154486   1.271   6.613   0.488 -0.4557  0.3523  0.2066
10097TIP3    H254487   1.299   6.721   0.385 -1.4292 -0.9351 -1.4705
10098TIP3   OH254488   5.033   1.825   2.778 -0.1867  0.3010  0.8641
10098TIP3    H154489   4.956   1.790   2.734 -0.9265  1.7388  0.9439
10098TIP3    H254490   5.103   1.821   2.712 -0.8998  1.0289  0.0307
10099TIP3   OH254491   7.204   2.517   1.042 -0.1210 -0.1446  0.0020
10099TIP3    H154492   7.166   2.601   1.014  0.3626 -0.5745 -2.1132
10099TIP3    H254493   7.200   2.520   1.137 -2.7220  1.0762 -0.0414
10100TIP3   OH254494   5.096   3.838   1.776  0.0710  0.5095  0.1583
10100TIP3    H154495   5.168   3.778   1.794 -0.0541  0.6298  1.1244
10100TIP3    H254496   5.017   3.789   1.802 -0.0152  1.1490  1.1547
10101TIP3   OH254497   7.031   1.691   1.321 -0.1517 -0.1162  0.3254
10101TIP3    H154498   7.039   1.604   1.359 -2.7064  0.2084  1.8797
10101TIP3    H254499   7.107   1.739   1.355  0.1601 -1.1614  1.1625
10102TIP3   OH254500   0.988   6.073   2.155 -0.0526  0.2202  0.2876
10102TIP3    H154501   1.077   6.038   2.165  0.1151 -0.1057 -1.8366
10102TIP3    H254502   1.001   6.159   2.115 -0.6879 -0.0493 -0.5237
10103TIP3   OH254503   2.011   7.422   3.123  0.0535 -0.1347 -0.2338
10103TIP3    H154504   2.002   7.506   3.078 -0.7950  1.2504  2.2962
10103TIP3    H254505   2.074   7.440   3.193 -0.9471 -1.2899  1.0087
10104TIP3   OH254506   0.021   6.268   2.039 -0.0892  0.5275 -0.3199
10104TIP3    H154507   0.104   6.263   1.992 -1.2778 -1.5024 -2.3916
10104TIP3    H254508   0.042   6.237   2.128  1.0161 -2.4203 -1.4737
10105TIP3   OH254509   1.146   1.976   0.751 -0.1304 -0.3575  0.0342
10105TIP3    H154510   1.234   2.014   0.759  0.0038 -0.6029 -0.2723
10105TIP3    H254511   1.090   2.051   0.730  0.2569 -0.4326 -1.3643
10106TIP3   OH254512   6.807   6.927   1.042  0.0319 -0.5156 -0.2595
10106TIP3    H154513   6.793   6.921   0.947  2.0306  1.2963 -0.7420
10106TIP3    H254514   6.833   7.018   1.057  1.6852 -1.2272  1.7178
10107TIP3   OH254515   0.068   1.468   1.922 -0.2923 -0.0707  0.3569
10107TIP3    H154516   0.085   1.374   1.922 -0.8323 -0.2264 -2.4079
10107TIP3    H254517   0.139   1.504   1.976  2.2279 -1.7234 -1.5804
10108TIP3   OH254518   5.298   2.113   0.431  0.7302  0.4291 -0.0670
10108TIP3    H154519   5.249   2.033   0.413  0.4977  0.3743  0.7861
10108TIP3    H254520   5.237   2.184   0.408  1.3758  0.4169 -2.0854
10109TIP3   OH254521   3.422   2.085   3.209  0.0580  0.3525  0.1842
10109TIP3    H154522   3.367   2.054   3.281 -0.0552  1.4111  0.5695
10109TIP3    H254523   3.364   2.142   3.157  1.1033  2.7258  1.4380
10110TIP3   OH254524   0.880   5.699   1.331  0.2147  0.2106 -0.4934
10110TIP3    H154525   0.901   5.608   1.352 -1.5428 -0.1603 -0.2571
10110TIP3    H254526   0.795   5.715   1.371  0.3393  1.8661 -0.8122
10111TIP3   OH254527   7.366   6.104   1.607  0.2444 -0.4995 -0.2722
10111TIP3    H154528   7.393   6.013   1.603 -0.3126 -0.7406  1.0357
10111TIP3    H254529   7.280   6.102   1.649  0.6584  0.6996  0.6758
10112TIP3   OH254530   4.874   3.979   1.992  0.2730  0.0856 -0.2392
10112TIP3    H154531   4.878   3.903   1.934 -0.2758 -0.0022 -0.1648
10112TIP3    H254532   4.836   4.048   1.937 -0.9192 -0.1917  0.2136
10113TIP3   OH254533   6.962   4.429   0.951 -0.0027 -0.3632  0.0944
10113TIP3    H154534   6.955   4.381   1.033 -0.2151 -0.7140 -0.1239
10113TIP3    H254535   6.895   4.389   0.894  0.2419 -0.2260 -0.2960
10114TIP3   OH254536   6.977   3.386   3.332  0.7017 -0.4881 -0.0937
10114TIP3    H154537   6.933   3.363   3.414  0.3518 -1.3670 -0.5118
10114TIP3    H254538   7.005   3.477   3.344  0.3101 -0.4822  0.8456
10115TIP3   OH254539   2.314   0.848   1.969 -0.2867  0.0226 -0.3833
10115TIP3    H154540   2.265   0.928   1.993  0.8314 -0.0694  2.6119
10115TIP3    H254541   2.397   0.857   2.015  1.2758 -1.3361 -2.7872
10116TIP3   OH254542   3.776   2.812   1.073  0.0637  0.2267  0.0722
10116TIP3    H154543   3.770   2.720   1.099  0.3332  0.0594 -0.4439
10116TIP3    H254544   3.851   2.816   1.014 -1.4887  0.2624 -2.0339
10117TIP3   OH254545   5.995   6.090   1.923  0.4496  0.2647  0.1397
10117TIP3    H154546   6.065   6.141   1.882  1.7606 -1.3325  0.2948
10117TIP3    H254547   5.996   6.116   2.015 -0.1490  1.2926 -0.1318
10118TIP3   OH254548   4.768   1.430   0.958 -0.0766 -0.1943  0.6400
10118TIP3    H154549   4.682   1.431   1.000 -1.3992  0.2225 -1.8859
10118TIP3    H254550   4.802   1.519   0.971 -1.0825  0.3485 -0.2942
10119TIP3   OH254551   3.825   1.292   3.318  0.1906  0.0487 -0.0401
10119TIP3    H154552   3.854   1.201   3.311  0.0797  0.1071 -1.4438
10119TIP3    H254553   3.897   1.344   3.282 -1.0274  0.2752 -2.3075
10120TIP3   OH254554   7.187   1.401   3.040  0.2162  0.0559 -0.2788
10120TIP3    H154555   7.110   1.426   2.988 -0.2049  0.4087  0.4983
10120TIP3    H254556   7.251   1.470   3.024 -0.7008  1.3702  1.3417
10121TIP3   OH254557   0.500   1.517   1.305  0.2940  0.7383 -0.1154
10121TIP3    H154558   0.407   1.529   1.322  0.3220  1.8217 -0.6236
10121TIP3    H254559   0.505   1.493   1.213  0.3797 -1.7823  0.4620
10122TIP3   OH254560   1.993   6.593   1.318  0.6136  0.0987 -0.0738
10122TIP3    H154561   1.980   6.678   1.277  1.3991  0.1476 -0.2527
10122TIP3    H254562   1.914   6.578   1.370 -0.3272  0.1359 -1.4343
10123TIP3   OH254563   6.478   5.977   0.552  0.1238 -0.1124 -0.0181
10123TIP3    H154564   6.406   6.023   0.595  1.6967  1.7648  0.7816
10123TIP3    H254565   6.489   6.022   0.469  0.2398 -0.5326 -0.2328
10124TIP3   OH254566   4.789   0.962   0.781  0.0105 -0.0797 -0.4082
10124TIP3    H154567   4.853   0.984   0.714  1.8648  1.2990  1.6904
10124TIP3    H254568   4.755   1.047   0.810 -0.3367 -0.6022  0.7759
10125TIP3   OH254569   0.230   6.478   2.209 -0.0934 -0.1506 -0.0580
10125TIP3    H154570   0.168   6.467   2.281  0.4614 -1.6691  0.2177
10125TIP3    H254571   0.316   6.467   2.250  0.2056 -1.8237 -1.0667
10126TIP3   OH254572   5.756   3.303   2.372  0.1837 -0.4466 -0.1903
10126TIP3    H154573   5.703   3.231   2.407 -0.2945 -0.3650 -0.7428
10126TIP3    H254574   5.786   3.350   2.450  0.4370 -1.1964  0.1732
10127TIP3   OH254575   4.013   4.101   2.168  0.2590 -0.0798 -0.0215
10127TIP3    H154576   4.019   4.066   2.257 -0.1606  1.0470  0.4648
10127TIP3    H254577   4.095   4.075   2.126  1.6858  1.6505  1.5471
10128TIP3   OH254578   6.559   3.693   2.842 -0.3902 -0.1705  0.1546
10128TIP3    H154579   6.504   3.673   2.917  1.7021  2.4970  2.6554
10128TIP3    H254580   6.647   3.668   2.869  0.4736  1.1449 -1.2393
10129TIP3   OH254581   4.958   3.321   1.253 -0.8954  0.1190  0.0132
10129TIP3    H154582   4.979   3.240   1.206  0.3353  0.7420 -0.5740
10129TIP3    H254583   4.927   3.292   1.339 -0.4920 -0.9760 -0.1988
10130TIP3   OH254584   5.011   0.005   2.525 -0.1962 -0.2652 -0.2853
10130TIP3    H154585   4.978   0.042   2.443  1.1037 -1.8029 -1.5810
10130TIP3    H254586   5.005  -0.089   2.512  0.3321 -0.5351  1.2935
10131TIP3   OH254587   1.186   5.548   1.016 -0.4486 -0.1110  0.4533
10131TIP3    H154588   1.175   5.461   0.977 -0.7575 -0.3049  0.9606
10131TIP3    H254589   1.210   5.531   1.107  1.9207  0.3270 -0.0272
10132TIP3   OH254590   6.238   0.567   2.176 -0.2192 -0.9487  0.3550
10132TIP3    H154591   6.232   0.655   2.140  0.8347 -0.6328  0.8935
10132TIP3    H254592   6.148   0.537   2.183 -0.5378 -0.3756 -0.9275
10133TIP3   OH254593   2.018   3.613   2.913  0.6823  0.0320  0.1026
10133TIP3    H154594   2.047   3.625   3.003 -0.7388  0.5218  0.5173
10133TIP3    H254595   1.996   3.520   2.907 -1.6496  0.4548  1.0593
10134TIP3   OH254596   4.207   3.070   0.438  0.0632  0.4878 -0.5529
10134TIP3    H154597   4.230   3.094   0.348 -1.0890  1.2822 -0.6556
10134TIP3    H254598   4.239   3.143   0.491  1.6219 -0.4214 -0.1601
10135TIP3   OH254599   1.063   4.033   1.804  0.7396  0.2677  0.1220
10135TIP3    H154600   1.043   3.959   1.863  0.5812  0.1137 -0.1250
10135TIP3    H254601   0.977   4.069   1.782  0.8060  0.3842  0.0578
10136TIP3   OH254602   2.957   2.940   2.791  0.4884 -0.3571 -0.5719
10136TIP3    H154603   2.891   2.952   2.723 -0.3061  1.0038  0.3844
10136TIP3    H254604   2.974   3.028   2.824  1.7113 -0.8563  0.2182
10137TIP3   OH254605   1.719   3.408   2.962 -0.0600 -0.2559 -0.3096
10137TIP3    H154606   1.743   3.359   3.041  0.1553 -1.0962 -0.8778
10137TIP3    H254607   1.716   3.499   2.991  0.9057 -0.4416  0.4637
10138TIP3   OH254608   0.429   4.734   2.871 -0.2454  0.0368  0.0400
10138TIP3    H154609   0.338   4.737   2.842 -0.8894 -0.9773  1.8277
10138TIP3    H254610   0.474   4.683   2.804 -1.4118 -1.1251  0.1067
10139TIP3   OH254611   6.723   6.684   0.442  0.1319 -0.0435  0.6214
10139TIP3    H154612   6.766   6.690   0.527  1.3981  2.9249 -0.1272
10139TIP3    H254613   6.763   6.608   0.400  0.5833 -0.6270  2.0494
10140TIP3   OH254614   7.651   5.521   0.466  0.0026 -0.2597 -0.8336
10140TIP3    H154615   7.743   5.510   0.440  0.3883 -1.2601  0.8250
10140TIP3    H254616   7.647   5.607   0.507  0.4390 -0.6350  0.0091
10141TIP3   OH254617   0.513   4.205   0.518 -0.6651 -0.0862 -0.3722
10141TIP3    H154618   0.506   4.225   0.425 -1.8705  1.0107 -0.0656
10141TIP3    H254619   0.607   4.200   0.534 -0.3900 -2.5237 -2.0738
10142TIP3   OH254620   7.392   5.532   1.505  0.5988 -0.0728  0.5717
10142TIP3    H154621   7.407   5.438   1.500  0.2702 -0.2625  2.3279
10142TIP3    H254622   7.314   5.541   1.560  1.6266  1.2604  1.8899
10143TIP3   OH254623   6.389   2.438   1.245 -0.2000 -0.3515 -0.9845
10143TIP3    H154624   6.479   2.432   1.277 -1.4788 -1.1872  2.9786
10143TIP3    H254625   6.368   2.531   1.249 -0.4969 -0.4675  1.5105
10144TIP3   OH254626   2.251   6.412   3.138 -0.3066  0.0715  0.2345
10144TIP3    H154627   2.171   6.445   3.178  0.4521  0.7606  1.2507
10144TIP3    H254628   2.265   6.327   3.180  0.1024  0.4715  0.9269
10145TIP3   OH254629   4.516   1.366   1.025 -0.1399 -0.5889  0.2667
10145TIP3    H154630   4.455   1.317   1.081 -1.3138 -1.4906 -1.6992
10145TIP3    H254631   4.509   1.324   0.940  1.1466  1.1025 -0.7277
10146TIP3   OH254632   2.669   5.625   2.307 -0.2408 -0.0940  0.0448
10146TIP3    H154633   2.651   5.711   2.267  0.5884  0.6786  1.2543
10146TIP3    H254634   2.631   5.562   2.246  1.1164  1.0033 -2.0750
10147TIP3   OH254635   1.019   4.642   3.063  0.6219 -0.1085  0.1208
10147TIP3    H154636   1.072   4.696   3.005 -0.5784 -1.2211 -2.1279
10147TIP3    H254637   1.083   4.597   3.119  2.2135 -1.8481 -2.8704
10148TIP3   OH254638   3.561   0.741   0.857 -0.0109  0.4160 -0.0948
10148TIP3    H154639   3.513   0.788   0.925 -0.7202 -0.0182 -0.2922
10148TIP3    H254640   3.494   0.714   0.794  0.6669  1.1104 -1.1545
10149TIP3   OH254641   5.792   0.054   1.860  0.1922 -0.1273 -0.0686
10149TIP3    H154642   5.850  -0.010   1.901 -0.3104 -0.4097  0.2147
10149TIP3    H254643   5.710   0.046   1.908  0.0052  0.4736 -0.2734
10150TIP3   OH254644   7.442   2.890   1.563  0.5649  0.3653 -0.2838
10150TIP3    H154645   7.400   2.806   1.578  1.3016  0.0725  0.1659
10150TIP3    H254646   7.369   2.952   1.557  0.0714 -0.0845  0.7558
10151TIP3   OH254647   0.681   2.461   1.629 -0.0781 -0.3407  0.3562
10151TIP3    H154648   0.630   2.416   1.562 -0.6603 -2.1455  1.9342
10151TIP3    H254649   0.666   2.554   1.611 -1.9745 -0.7925 -0.7095
10152TIP3   OH254650   5.249   3.564   2.584  0.3455  0.7669  0.2294
10152TIP3    H154651   5.227   3.647   2.542 -1.8634  0.8819  1.4499
10152TIP3    H254652   5.196   3.499   2.538  2.7744 -0.2129 -1.3638
10153TIP3   OH254653   0.847   2.262   1.723 -0.3081 -0.6225  0.4196
10153TIP3    H154654   0.792   2.340   1.718  0.5894  0.0466  0.6982
10153TIP3    H254655   0.805   2.199   1.665 -1.1925 -0.0224  0.3950
10154TIP3   OH254656   3.891   3.317   1.244 -0.4432  0.4002  0.4830
10154TIP3    H154657   3.827   3.263   1.289 -1.8063  1.3847 -0.1977
10154TIP3    H254658   3.915   3.384   1.307  0.8725 -0.6656  1.1558
10155TIP3   OH254659   5.011   4.437   0.700 -0.3311 -0.1756 -0.0527
10155TIP3    H154660   5.041   4.349   0.723 -0.2130 -0.0772  0.1730
10155TIP3    H254661   5.041   4.493   0.772 -0.3904  0.0530 -0.2015
10156TIP3   OH254662   6.875   4.221   1.936  0.2172 -0.4288 -0.2752
10156TIP3    H154663   6.887   4.287   1.867  0.2376  1.5855  1.5553
10156TIP3    H254664   6.963   4.188   1.954  0.9004  2.0424  1.5072
10157TIP3   OH254665   4.288   1.100   0.548 -0.1777 -0.0002 -0.3049
10157TIP3    H154666   4.370   1.090   0.597  0.3200  1.1820 -0.8482
10157TIP3    H254667   4.277   1.017   0.503  0.5281 -0.3104  0.0699
10158TIP3   OH254668   1.509   4.014   0.556 -0.2386 -0.0386 -0.0244
10158TIP3    H154669   1.588   3.996   0.504 -0.1214 -0.3403  0.2546
10158TIP3    H254670   1.497   3.936   0.609  1.2135  1.2491  2.4166
10159TIP3   OH254671   5.922   0.607   2.191  0.2786 -0.5074  0.2455
10159TIP3    H154672   5.886   0.692   2.218  0.7918 -0.2938  0.2692
10159TIP3    H254673   5.948   0.620   2.100 -1.8813 -1.3644 -0.5616
10160TIP3   OH254674   2.030   6.891   1.602  0.9824  0.1142 -0.1969
10160TIP3    H154675   2.041   6.982   1.629  0.6393 -0.1461  0.8553
10160TIP3    H254676   2.041   6.840   1.682 -0.7190 -0.6467 -0.3914
10161TIP3   OH254677   5.910   6.898   1.384  0.5085  0.5862  0.1817
10161TIP3    H154678   6.004   6.908   1.369  0.0343  3.3186 -1.6986
10161TIP3    H254679   5.895   6.935   1.471  1.2343 -0.7629  0.9194
10162TIP3   OH254680   2.149   0.669   1.845  0.4946 -0.1471 -0.0369
10162TIP3    H154681   2.116   0.728   1.913  0.1170 -0.9266  0.4856
10162TIP3    H254682   2.072   0.621   1.815  0.9806 -1.3387  0.5346
10163TIP3   OH254683   5.042   0.736   2.430 -0.1218 -0.3177 -0.2024
10163TIP3    H154684   5.078   0.784   2.504  0.9422  0.2726 -1.0734
10163TIP3    H254685   4.965   0.691   2.465  0.1505  0.2436  1.1564
10164TIP3   OH254686   7.494   3.857   0.848 -0.5642  0.6319  0.2853
10164TIP3    H154687   7.485   3.765   0.874 -0.8564  0.5678 -0.0315
10164TIP3    H254688   7.587   3.866   0.825 -0.7660  0.1149 -0.7854
10165TIP3   OH254689   1.876   2.242   3.050 -0.0253 -0.7348 -0.7388
10165TIP3    H154690   1.853   2.203   2.966 -0.2680 -1.4740 -0.3375
10165TIP3    H254691   1.894   2.167   3.107  1.4138 -0.2330 -0.4826
10166TIP3   OH254692   1.396   4.155   0.746 -0.6685 -0.5930 -0.1213
10166TIP3    H154693   1.424   4.233   0.699  0.2692  0.3049  1.7981
10166TIP3    H254694   1.448   4.084   0.708  2.3844  0.5862  1.4356
10167TIP3   OH254695   2.518   0.779   2.127 -0.0902  0.5324 -0.9500
10167TIP3    H154696   2.612   0.781   2.147 -0.2578  0.5428 -0.1257
10167TIP3    H254697   2.504   0.693   2.086 -0.0582 -0.3313  0.7733
10168TIP3   OH254698   1.712   4.920   2.769  0.2768 -0.7692  0.0941
10168TIP3    H154699   1.635   4.937   2.823 -0.0002 -0.0454 -0.5147
10168TIP3    H254700   1.679   4.922   2.679  0.4002 -3.5852 -0.0983
10169TIP3   OH254701   5.776   7.142   0.542 -0.1899  0.1569  0.3109
10169TIP3    H154702   5.706   7.206   0.532  0.1113  0.3839 -0.3999
10169TIP3    H254703   5.857   7.194   0.545  0.1525 -0.2260 -1.3821
10170TIP3   OH254704   3.969   4.167   1.910 -0.2129 -0.5016 -1.1597
10170TIP3    H154705   3.968   4.141   2.002 -3.1101  2.2839 -0.2330
10170TIP3    H254706   4.009   4.254   1.909 -1.5073  0.1180 -2.2668
10171TIP3   OH254707   2.053   2.026   0.699 -0.2430  0.1054 -0.0835
10171TIP3    H154708   2.140   2.067   0.696 -0.8322  1.5492  1.1686
10171TIP3    H254709   2.062   1.946   0.647  1.9077  0.0737  0.2578
10172TIP3   OH254710   4.306   1.039   0.999 -0.4673  0.3148  0.1311
10172TIP3    H154711   4.340   1.089   1.073  0.6663  0.5115 -0.5012
10172TIP3    H254712   4.381   0.991   0.965 -1.7222 -2.8796  1.4451
10173TIP3   OH254713   4.880   2.833   1.639 -0.2178 -0.4226 -0.2682
10173TIP3    H154714   4.934   2.770   1.687  1.9280  1.1605 -0.4762
10173TIP3    H254715   4.885   2.913   1.691 -1.9455 -0.0638 -0.6058
10174TIP3   OH254716   3.932   4.125   2.909  0.1644  0.0802 -0.0729
10174TIP3    H154717   3.898   4.059   2.969  1.1717  0.2112  0.6695
10174TIP3    H254718   3.891   4.105   2.825 -1.2194 -0.1547  0.6285
10175TIP3   OH254719   4.007   0.580   0.978  0.3279 -0.3830  0.3724
10175TIP3    H154720   4.071   0.548   0.914  0.2579  3.5511 -1.9814
10175TIP3    H254721   4.059   0.629   1.041 -0.0772  0.1589  0.2892
10176TIP3   OH254722   2.645   3.216   2.646  0.2342  0.0585 -0.3973
10176TIP3    H154723   2.634   3.128   2.683  0.0805  0.8152  1.4884
10176TIP3    H254724   2.634   3.274   2.721  2.7879  1.5929 -1.1156
10177TIP3   OH254725   3.400   6.000   2.620  0.4951 -0.5461 -0.2255
10177TIP3    H154726   3.349   5.995   2.539 -1.9277 -1.3033  1.2237
10177TIP3    H254727   3.463   5.928   2.613 -0.0335 -0.9341 -1.2253
10178TIP3   OH254728   0.240   6.583   1.505  0.4993  0.0003  0.0945
10178TIP3    H154729   0.317   6.626   1.469  0.6368 -0.6960 -0.4642
10178TIP3    H254730   0.239   6.610   1.597  0.8034  0.8607 -0.1464
10179TIP3   OH254731   3.879   1.152   1.637  0.1464  0.3314 -0.4370
10179TIP3    H154732   3.928   1.223   1.594  0.6391  0.3083  0.0767
10179TIP3    H254733   3.890   1.169   1.731 -3.6008  2.3080 -0.1596
10180TIP3   OH254734   6.199   1.591   2.371 -0.2593 -0.2984 -0.2924
10180TIP3    H154735   6.284   1.602   2.413 -1.0084  0.1967  1.1477
10180TIP3    H254736   6.179   1.678   2.335 -0.9171  0.0651  0.8967
10181TIP3   OH254737   0.952   3.176   1.165  0.4613 -0.6088 -0.1570
10181TIP3    H154738   1.021   3.239   1.187 -0.3341 -0.0952  0.9847
10181TIP3    H254739   0.928   3.198   1.075 -0.5366  1.4890  0.5590
10182TIP3   OH254740   4.596   6.602   0.999  0.1275  0.0111  0.5791
10182TIP3    H154741   4.596   6.562   1.086  2.4298  1.3660  1.2691
10182TIP3    H254742   4.503   6.622   0.983 -0.1904  1.7369  3.7201
10183TIP3   OH254743   0.496   3.091   0.571  0.1257 -0.2976  0.1588
10183TIP3    H154744   0.410   3.114   0.535 -0.3944 -1.4268  0.6290
10183TIP3    H254745   0.531   3.174   0.605 -0.9958  0.0943  0.4093
10184TIP3   OH254746   5.238   6.061   1.511 -0.4921  0.3760  0.4205
10184TIP3    H154747   5.212   5.995   1.447  0.4815 -2.1023  2.3930
10184TIP3    H254748   5.159   6.112   1.527 -1.8183 -1.4471  0.0514
10185TIP3   OH254749   7.531   1.570   1.260 -0.2164 -0.1456 -0.3658
10185TIP3    H154750   7.608   1.626   1.257 -0.2561 -0.0019  0.7598
10185TIP3    H254751   7.496   1.582   1.348 -0.8236 -1.1515 -0.4500
10186TIP3   OH254752   0.387   5.549   2.556  0.3651  0.5104 -0.7210
10186TIP3    H154753   0.349   5.619   2.610  1.9820  1.8424 -1.2219
10186TIP3    H254754   0.477   5.540   2.587  0.6247 -0.3144 -1.6535
10187TIP3   OH254755   1.995   1.758   0.556 -0.2207 -0.7978  0.6763
10187TIP3    H154756   1.991   1.677   0.608  0.4020 -1.6722 -0.5832
10187TIP3    H254757   1.923   1.749   0.492  0.9325 -1.2105 -0.6120
10188TIP3   OH254758   5.852   7.203   0.944 -0.0385 -0.6741 -0.2934
10188TIP3    H154759   5.778   7.214   0.884  0.2023 -2.5571 -0.9970
10188TIP3    H254760   5.920   7.162   0.890  1.4704  0.8557  0.3927
10189TIP3   OH254761   0.996   5.628   0.806  0.0474 -0.0331  0.3241
10189TIP3    H154762   0.926   5.564   0.794  0.0371  0.0326  0.0371
10189TIP3    H254763   1.062   5.583   0.858  0.1763 -0.3702 -0.1376
10190TIP3   OH254764   1.307   2.609   1.871  0.1163 -0.0401 -0.1216
10190TIP3    H154765   1.365   2.646   1.804  1.0692 -0.5383  0.4086
10190TIP3    H254766   1.347   2.637   1.954 -1.6743  1.5559  0.2793
10191TIP3   OH254767   2.321   2.920   0.939  0.0407 -0.1990 -0.3736
10191TIP3    H154768   2.266   2.895   0.865 -0.0842 -0.4904 -0.1849
10191TIP3    H254769   2.349   3.010   0.920 -0.4345 -0.0799 -0.5101
10192TIP3   OH254770   6.875   7.032   0.761  0.1402  0.6093  0.1958
10192TIP3    H154771   6.808   7.094   0.735  0.6860  0.9453 -0.4393
10192TIP3    H254772   6.950   7.086   0.787 -0.3462  0.2988  2.4757
10193TIP3   OH254773   4.497   6.073   2.018  0.1710  0.2048 -0.1023
10193TIP3    H154774   4.523   6.133   1.948 -1.0535 -1.0945 -1.7411
10193TIP3    H254775   4.437   6.124   2.072 -1.2773  0.3630 -1.7809
10194TIP3   OH254776   3.962   1.430   1.910 -0.1369 -0.4644  0.2160
10194TIP3    H154777   3.933   1.492   1.978 -1.0527 -0.1268 -0.4593
10194TIP3    H254778   3.892   1.432   1.845  0.9984 -0.3469 -1.0354
10195TIP3   OH254779   3.914   5.111   2.243  0.2490 -0.4602 -0.1635
10195TIP3    H154780   3.957   5.082   2.162 -1.2843 -0.9204 -0.8539
10195TIP3    H254781   3.961   5.191   2.268  0.1694  0.2375 -2.0485
10196TIP3   OH254782   4.620   5.007   3.569 -0.0345  0.3228 -0.3970
10196TIP3    H154783   4.710   5.038   3.557  0.4787 -1.1574 -0.5869
10196TIP3    H254784   4.599   5.028   3.660  0.5182  0.6459 -0.3391
10197TIP3   OH254785   6.552   4.727   2.020  0.0313  0.3680  0.4212
10197TIP3    H154786   6.594   4.768   2.096 -1.0156  0.0984  1.1594
10197TIP3    H254787   6.591   4.640   2.016 -1.2018 -0.2868  1.7751
10198TIP3   OH254788   2.670   6.345   1.092 -0.2061  0.0806 -0.8267
10198TIP3    H154789   2.698   6.353   1.000  0.5945 -1.0094 -0.7046
10198TIP3    H254790   2.732   6.282   1.130 -2.6889 -2.3483 -0.4841
10199TIP3   OH254791   1.921   7.603   2.055 -0.1927  0.5472  0.1876
10199TIP3    H154792   1.913   7.553   2.136  0.6242 -0.5973 -0.4158
10199TIP3    H254793   2.015   7.617   2.044 -0.1878 -0.3695 -1.1735
10200TIP3   OH254794   1.859   2.236   1.636 -0.5471 -0.4361 -0.2249
10200TIP3    H154795   1.851   2.213   1.543 -0.8844 -0.9242 -0.0728
10200TIP3    H254796   1.846   2.331   1.638 -0.8307 -0.4655 -0.6373
10201TIP3   OH254797   4.014   6.642   1.798  0.1853 -0.2488  0.0443
10201TIP3    H154798   4.006   6.687   1.882 -1.6043 -0.2173 -0.0913
10201TIP3    H254799   4.028   6.712   1.734 -0.6490 -0.0511  0.0671
10202TIP3   OH254800   6.350   7.680   0.649 -0.7366  0.1791 -0.3470
10202TIP3    H154801   6.366   7.774   0.655  0.4138 -0.1056  2.2619
10202TIP3    H254802   6.257   7.670   0.671 -0.5724  0.6328  0.6026
10203TIP3   OH254803   6.145   4.460   2.103  0.3577  0.3552  0.4443
10203TIP3    H154804   6.082   4.410   2.052 -0.3946  1.2470  0.4638
10203TIP3    H254805   6.128   4.551   2.078  2.3251  0.5536 -0.3104
10204TIP3   OH254806   6.375   4.115   2.046  0.8083 -0.3245  0.1601
10204TIP3    H154807   6.305   4.054   2.024 -0.2945  0.2542  1.8649
10204TIP3    H254808   6.338   4.170   2.115  1.6120  2.5734 -1.5808
10205TIP3   OH254809   5.985   1.068   1.567  0.0322  0.5610 -0.4254
10205TIP3    H154810   6.077   1.044   1.551  0.2309  1.4365 -0.6588
10205TIP3    H254811   5.935   0.992   1.535  0.6674  0.1159 -0.3886
10206TIP3   OH254812   5.824   6.730   2.336  0.1267 -0.0511  0.1719
10206TIP3    H154813   5.873   6.659   2.379 -1.0926 -0.2702  1.2756
10206TIP3    H254814   5.873   6.809   2.358  1.3056 -0.4934 -0.7748
10207TIP3   OH254815   6.950   5.911   0.700 -0.0148  0.2297 -0.2742
10207TIP3    H154816   6.858   5.895   0.683  0.0349 -1.4850  0.8748
10207TIP3    H254817   6.953   5.955   0.784  0.2197  0.2982 -0.3152
10208TIP3   OH254818   4.214   6.446   1.779 -0.4058 -0.0900  0.2719
10208TIP3    H154819   4.149   6.507   1.813  1.4912  2.4471 -0.4089
10208TIP3    H254820   4.200   6.448   1.684 -0.7218 -1.2515  0.2789
10209TIP3   OH254821   4.345   2.060   1.016 -0.5076  0.2851 -0.4459
10209TIP3    H154822   4.358   2.098   1.102 -1.1666 -0.5422  0.0350
10209TIP3    H254823   4.318   2.133   0.960 -0.3005  0.7793  0.0981
10210TIP3   OH254824   1.650   1.465   1.899  0.3673 -0.4116 -0.5323
10210TIP3    H154825   1.598   1.535   1.940 -1.1139 -1.7329 -0.0611
10210TIP3    H254826   1.624   1.467   1.807 -0.5650 -1.0570 -0.3020
10211TIP3   OH254827   1.483   0.539   0.739  0.4536 -0.4918  0.0740
10211TIP3    H154828   1.570   0.516   0.772 -0.1059 -0.9042  1.3083
10211TIP3    H254829   1.461   0.469   0.678  0.8371 -0.5738  0.0278
10212TIP3   OH254830   2.157   3.973   2.910 -0.1374  1.0136  0.5721
10212TIP3    H154831   2.195   3.897   2.954 -0.7855  0.2910 -0.0813
10212TIP3    H254832   2.063   3.966   2.928 -0.2271  1.5460  0.3339
10213TIP3   OH254833   6.298   2.411   2.004  0.2605  0.1127  0.3803
10213TIP3    H154834   6.239   2.439   1.934  0.6106 -0.8248 -0.3170
10213TIP3    H254835   6.248   2.422   2.085 -0.6510 -0.0947 -0.1485
10214TIP3   OH254836   2.039   3.961   0.466 -0.1465  0.2136 -0.4239
10214TIP3    H154837   2.128   3.946   0.500 -0.6916  2.7202  2.6207
10214TIP3    H254838   2.049   3.959   0.371  3.5145  1.7788 -0.2685
10215TIP3   OH254839   0.352   4.321   0.724 -0.3708 -0.5415 -0.0573
10215TIP3    H154840   0.416   4.266   0.681  0.2343 -0.4639  0.7159
10215TIP3    H254841   0.393   4.345   0.807 -0.2197  1.8396 -0.7547
10216TIP3   OH254842   3.390   5.639   0.367 -0.3198  0.0884  0.6388
10216TIP3    H154843   3.308   5.673   0.402 -1.2309  1.3946 -2.4243
10216TIP3    H254844   3.438   5.717   0.338  0.5557 -0.8438 -0.5263
10217TIP3   OH254845   1.842   1.411   1.661 -0.1679 -0.4560 -0.2739
10217TIP3    H154846   1.792   1.365   1.594 -0.3329  0.7449 -0.9988
10217TIP3    H254847   1.924   1.435   1.617  1.6252 -3.3105  1.1690
10218TIP3   OH254848   1.822   5.017   0.987  0.2027  0.3747  0.0638
10218TIP3    H154849   1.754   5.043   1.048  0.4651  2.0766 -0.3178
10218TIP3    H254850   1.787   4.939   0.943 -1.1551  0.7729  0.4116
10219TIP3   OH254851   7.592   0.604   3.036  0.1409  0.0974 -0.2297
10219TIP3    H154852   7.530   0.673   3.060  0.5139  0.8889 -1.4710
10219TIP3    H254853   7.539   0.524   3.036 -0.9020  0.7469 -1.1756
10220TIP3   OH254854   5.712   6.527   0.789 -0.1795 -0.6513 -0.4580
10220TIP3    H154855   5.798   6.520   0.747  0.2391 -1.6862  0.5221
10220TIP3    H254856   5.650   6.528   0.715  0.6688  0.8113 -1.2049
10221TIP3   OH254857   5.690   5.582   2.056  0.3099  0.0905 -0.5588
10221TIP3    H154858   5.768   5.559   2.006  1.1199  2.4299 -0.4708
10221TIP3    H254859   5.714   5.567   2.147  0.5036  0.4332 -0.5558
10222TIP3   OH254860   5.241   3.101   2.164 -0.5268  0.4973 -0.0185
10222TIP3    H154861   5.321   3.151   2.183  0.3184 -1.3483  1.7583
10222TIP3    H254862   5.272   3.011   2.153 -2.3715 -0.3015  0.9378
10223TIP3   OH254863   7.353   0.127   1.205 -0.4702 -0.4061 -0.0885
10223TIP3    H154864   7.428   0.184   1.192 -0.7494  0.3919  1.5287
10223TIP3    H254865   7.329   0.139   1.297 -2.1274 -1.1912 -0.3738
10224TIP3   OH254866   6.032   7.134   1.176 -0.3175 -0.1183  0.0300
10224TIP3    H154867   6.023   7.134   1.081 -0.0799  1.1103 -0.0034
10224TIP3    H254868   6.111   7.083   1.193  0.2532  0.5653 -0.5104
10225TIP3   OH254869   3.738   6.413   2.381 -0.0694 -0.0728 -0.1522
10225TIP3    H154870   3.772   6.421   2.470 -0.1750 -0.8860 -0.0310
10225TIP3    H254871   3.661   6.470   2.380 -0.2278 -0.2689  0.3651
10226TIP3   OH254872   6.442   5.692   0.565 -0.0248 -0.0636 -0.1830
10226TIP3    H154873   6.441   5.785   0.544 -0.4603  0.7310  2.8743
10226TIP3    H254874   6.349   5.668   0.573  0.0969 -0.5769 -0.2272
10227TIP3   OH254875   3.001   6.283   2.641  0.0974  0.0084 -0.6657
10227TIP3    H154876   3.066   6.317   2.702  0.9055 -0.5831 -1.1772
10227TIP3    H254877   3.049   6.271   2.559 -1.2356  1.9355 -1.8043
10228TIP3   OH254878   7.379   4.676   0.779 -0.4864 -0.2154  0.1485
10228TIP3    H154879   7.322   4.604   0.806 -1.0371  0.0642 -0.2433
10228TIP3    H254880   7.453   4.633   0.736 -0.2452 -0.5955  0.9201
10229TIP3   OH254881   3.265   4.740   2.943  0.2707 -0.4074  0.5347
10229TIP3    H154882   3.320   4.818   2.941 -0.8482  0.4087  0.3857
10229TIP3    H254883   3.214   4.748   3.023 -1.1095 -0.0548 -0.3347
10230TIP3   OH254884   4.707   0.273   1.602 -0.0684  0.0874 -0.4207
10230TIP3    H154885   4.716   0.368   1.588 -1.1734  0.1513 -0.7340
10230TIP3    H254886   4.625   0.263   1.650  1.1885 -0.5431  1.7445
10231TIP3   OH254887   0.124   2.703   2.341 -0.1772 -0.5222  0.0654
10231TIP3    H154888   0.111   2.643   2.415 -1.4412 -1.1605 -0.6304
10231TIP3    H254889   0.191   2.764   2.371  0.2967 -1.5676  1.2405
10232TIP3   OH254890   0.286   2.300   3.423 -0.1735 -0.1065  0.6286
10232TIP3    H154891   0.328   2.384   3.443  0.2621 -0.3315  0.6706
10232TIP3    H254892   0.307   2.244   3.497  0.0218 -0.4252  0.3365
10233TIP3   OH254893   2.291   6.222   1.045 -0.1207  0.5008  0.5799
10233TIP3    H154894   2.358   6.289   1.029  0.2562 -0.4716 -2.7694
10233TIP3    H254895   2.337   6.152   1.091  0.2537  1.2307  1.3445
10234TIP3   OH254896   1.828   0.560   1.638 -0.4415 -0.4295  0.4793
10234TIP3    H154897   1.818   0.484   1.695 -2.7770  0.1356  0.9256
10234TIP3    H254898   1.774   0.540   1.562  0.6530 -0.0896 -0.4260
10235TIP3   OH254899   3.459   4.593   2.782 -0.4189 -0.4627 -0.4005
10235TIP3    H154900   3.453   4.515   2.836 -1.1460 -0.3199 -0.2519
10235TIP3    H254901   3.420   4.662   2.836 -1.5204 -0.3993 -1.2235
10236TIP3   OH254902   3.255   5.455   0.988 -0.0331  0.7703 -0.0279
10236TIP3    H154903   3.317   5.387   1.017  1.4297  1.1470 -2.0572
10236TIP3    H254904   3.286   5.535   1.031  0.7807  0.9097 -0.8475
10237TIP3   OH254905   6.097   6.674   0.555  0.3939 -0.0096  0.3315
10237TIP3    H154906   6.032   6.712   0.614  0.0829 -0.6441  0.4087
10237TIP3    H254907   6.104   6.737   0.483  0.1356  0.3503  0.6166
10238TIP3   OH254908   3.426   6.096   2.107 -0.1338  0.7990  0.5156
10238TIP3    H154909   3.369   6.126   2.037 -0.4180  0.9859  0.8231
10238TIP3    H254910   3.431   6.170   2.167 -0.4898  0.3826  1.0643
10239TIP3   OH254911   2.106   1.079   0.457 -0.2113  0.0136 -0.5816
10239TIP3    H154912   2.083   0.993   0.422 -0.9397 -0.0066 -0.0779
10239TIP3    H254913   2.185   1.063   0.509 -0.0354 -0.2502 -0.9297
10240TIP3   OH254914   1.761   5.800   1.410  0.2875  0.8898  0.2006
10240TIP3    H154915   1.842   5.749   1.415  0.1247  0.6233  0.1568
10240TIP3    H254916   1.692   5.734   1.402 -0.1392  0.9995  2.4079
10241TIP3   OH254917   1.819   4.786   1.953  0.5733  0.1327  0.0909
10241TIP3    H154918   1.844   4.836   1.875  0.4053  0.2711  0.1246
10241TIP3    H254919   1.789   4.852   2.015  0.5454  0.0068  0.2116
10242TIP3   OH254920   7.053   2.668   0.858  0.2481  0.5435 -0.4608
10242TIP3    H154921   6.995   2.729   0.812 -1.0118 -1.5093 -1.7298
10242TIP3    H254922   7.139   2.681   0.817 -0.3855  0.2829 -1.9194
10243TIP3   OH254923   7.356   0.530   2.466 -0.5976 -0.3070  0.4415
10243TIP3    H154924   7.450   0.515   2.459 -0.5185  1.0113 -2.5031
10243TIP3    H254925   7.332   0.487   2.548  2.7806  0.5747  2.0893
10244TIP3   OH254926   6.237   1.742   1.100  0.3324 -0.2062  0.2313
10244TIP3    H154927   6.326   1.737   1.136  0.4402  0.4249  0.0520
10244TIP3    H254928   6.245   1.798   1.023 -0.4172  0.7826  0.8501
10245TIP3   OH254929   0.833   1.156   2.034  0.0243  0.1821  0.0699
10245TIP3    H154930   0.798   1.243   2.050  0.0956  0.4116 -0.9744
10245TIP3    H254931   0.768   1.114   1.978  0.3551 -0.1640 -0.0592
10246TIP3   OH254932   3.601   0.858   2.152  0.0003 -0.6619 -0.2870
10246TIP3    H154933   3.679   0.851   2.097  0.0422 -1.3557 -0.1482
10246TIP3    H254934   3.539   0.796   2.113  0.6004 -2.3820  1.3769
10247TIP3   OH254935   7.417   0.036   1.679  0.5123  0.3639  0.0567
10247TIP3    H154936   7.384   0.075   1.760  0.7479  0.7004 -0.0075
10247TIP3    H254937   7.512   0.036   1.689  0.4934 -2.3076  1.0293
10248TIP3   OH254938   5.746   4.840   2.999 -0.6486  0.5435  0.4194
10248TIP3    H154939   5.694   4.836   2.918 -0.7650  0.1177  0.5096
10248TIP3    H254940   5.680   4.842   3.068 -0.7055 -3.6045  0.7587
10249TIP3   OH254941   6.189   4.437   0.986  0.2600 -0.4331  0.0716
10249TIP3    H154942   6.113   4.489   0.959  0.4651  0.4911  1.2003
10249TIP3    H254943   6.190   4.363   0.925 -1.6927 -0.6071  0.1791
10250TIP3   OH254944   2.137   4.417   3.782  0.1290  0.0347  0.4694
10250TIP3    H154945   2.069   4.378   3.837 -0.0538  0.8137  0.8042
10250TIP3    H254946   2.089   4.461   3.712  0.1439  2.1772  1.7142
10251TIP3   OH254947   4.430   6.153   3.102  0.0977  0.2987 -0.4346
10251TIP3    H154948   4.463   6.240   3.123  3.3672 -0.5123 -1.5205
10251TIP3    H254949   4.507   6.096   3.112 -1.9094 -2.4921  0.2279
10252TIP3   OH254950   7.248   0.383   0.371 -0.1676 -0.5817 -0.1143
10252TIP3    H154951   7.260   0.307   0.314  0.4988 -1.1943  0.8127
10252TIP3    H254952   7.251   0.347   0.460 -1.1496  0.3597  0.3228
10253TIP3   OH254953   1.887   4.991   0.649  0.6364 -0.2492 -0.1138
10253TIP3    H154954   1.809   5.020   0.698  1.4524  1.3280  0.3277
10253TIP3    H254955   1.868   5.013   0.558  0.5138  0.0114 -0.0258
10254TIP3   OH254956   1.814   5.464   1.906  0.0997 -0.2978  0.2910
10254TIP3    H154957   1.822   5.490   1.814 -0.3850 -0.4251  0.2138
10254TIP3    H254958   1.899   5.426   1.927  1.5541  2.9281  0.9145
10255TIP3   OH254959   0.112   5.445   1.726  0.2315  0.4404  0.5364
10255TIP3    H154960   0.173   5.373   1.738  0.9322  0.9172 -0.0470
10255TIP3    H254961   0.131   5.505   1.798  0.0928  0.3394  0.6557
10256TIP3   OH254962   2.012   3.454   0.896 -0.0554 -0.5098  0.2838
10256TIP3    H154963   2.068   3.505   0.955 -0.0406  0.1421 -0.2830
10256TIP3    H254964   1.933   3.508   0.887 -1.0496 -1.6713  1.5308
10257TIP3   OH254965   4.109   0.564   0.485 -0.0526  0.2748 -0.0055
10257TIP3    H154966   4.127   0.587   0.576 -0.8721  0.7484  0.0471
10257TIP3    H254967   4.050   0.489   0.490  1.6515 -1.1265 -0.1746
10258TIP3   OH254968   0.462   4.215   3.435 -0.0349  0.7217 -0.2830
10258TIP3    H154969   0.424   4.295   3.397  0.6339  1.1090 -0.1605
10258TIP3    H254970   0.397   4.147   3.417 -0.9597  1.4269  0.2427
10259TIP3   OH254971   2.816   7.485   1.874  0.1673 -0.0953  0.0925
10259TIP3    H154972   2.860   7.415   1.826 -0.6385 -0.6217  0.0889
10259TIP3    H254973   2.812   7.454   1.964  1.2440  0.6772  0.4300
10260TIP3   OH254974   1.647   3.142   0.985 -0.0041 -0.1424 -0.0769
10260TIP3    H154975   1.718   3.091   1.025 -1.8208 -1.0416  2.2543
10260TIP3    H254976   1.586   3.076   0.952 -0.3647  0.5872 -0.8881
10261TIP3   OH254977   1.230   2.337   2.648  0.1923 -0.7578 -0.3424
10261TIP3    H154978   1.217   2.354   2.741 -1.7175 -0.1423 -0.6797
10261TIP3    H254979   1.314   2.291   2.643  1.3648  1.0326  1.4750
10262TIP3   OH254980   2.139   4.455   2.759 -0.4123  0.6818  0.3662
10262TIP3    H154981   2.113   4.501   2.838 -1.7244  0.2893  0.1902
10262TIP3    H254982   2.152   4.364   2.787 -0.7523  0.5676  0.1598
10263TIP3   OH254983   6.474   6.701   2.573  0.2647  0.4213  0.1188
10263TIP3    H154984   6.569   6.706   2.585  0.3670 -0.7836 -0.0372
10263TIP3    H254985   6.438   6.748   2.648  0.9775  0.2746  0.5590
10264TIP3   OH254986   6.181   6.955   1.688  0.7133  0.5639 -0.0409
10264TIP3    H154987   6.102   6.988   1.646 -0.4940  1.9037  3.0236
10264TIP3    H254988   6.158   6.866   1.716 -0.2617  1.3767  1.9349
10265TIP3   OH254989   2.903   3.528   1.582 -0.3852  0.3971  0.0947
10265TIP3    H154990   2.989   3.506   1.616 -0.5467  0.1946  0.3793
10265TIP3    H254991   2.843   3.509   1.655 -0.6665  0.5428 -0.0973
10266TIP3   OH254992   2.286   2.682   2.883 -0.8068 -0.0195 -0.3333
10266TIP3    H154993   2.347   2.615   2.854 -1.7862 -0.0726 -2.4706
10266TIP3    H254994   2.206   2.634   2.904 -0.6023  0.2018  1.0436
10267TIP3   OH254995   0.128   6.866   1.452 -0.3444  0.1191 -0.1117
10267TIP3    H154996   0.096   6.925   1.521  0.1159  2.5361 -1.8174
10267TIP3    H254997   0.098   6.779   1.478 -1.3199  1.1221  2.4151
10268TIP3   OH254998   2.587   4.689   2.186 -0.3502 -0.4457 -0.5441
10268TIP3    H154999   2.538   4.648   2.114  0.3573 -0.2578 -1.1493
10268TIP3    H255000   2.572   4.783   2.174 -0.0020 -0.3975 -0.6239
10269TIP3   OH255001   2.148   0.403   0.557  0.3261 -0.3530 -0.1904
10269TIP3    H155002   2.158   0.330   0.496 -1.3985 -1.2978  0.5749
10269TIP3    H255003   2.136   0.361   0.643 -4.3779  0.5023 -0.1754
10270TIP3   OH255004   0.996   6.761   2.231 -0.0671  0.9491 -0.1633
10270TIP3    H155005   1.079   6.720   2.207 -0.1893  0.2396  0.5780
10270TIP3    H255006   0.989   6.836   2.173  1.2108  1.1673 -0.0719
10271TIP3   OH255007   7.275   1.008   1.083 -0.2724  0.2235 -0.1978
10271TIP3    H155008   7.283   1.031   1.175 -0.0812 -0.2252 -0.1004
10271TIP3    H255009   7.218   0.931   1.082  3.9165 -3.2541  0.0919
10272TIP3   OH255010   1.600   3.384   3.278  0.7529  0.3088  0.0458
10272TIP3    H155011   1.511   3.409   3.255  0.2546  0.8088  2.2470
10272TIP3    H255012   1.649   3.467   3.279  0.4441  0.5233  1.8480
10273TIP3   OH255013   1.297   2.554   2.824  0.0279 -0.3277  0.2131
10273TIP3    H155014   1.367   2.612   2.796  0.3465 -0.8691 -0.1298
10273TIP3    H255015   1.277   2.581   2.913  0.3705  0.1119  0.1590
10274TIP3   OH255016   5.427   3.988   3.524 -0.3150  0.1818 -0.0986
10274TIP3    H155017   5.516   3.974   3.490 -1.2286 -1.2277 -2.0715
10274TIP3    H255018   5.379   4.024   3.450 -1.9466 -1.2377  0.2161
10275TIP3   OH255019   5.143   2.727   1.253 -0.5961 -0.5234 -0.3541
10275TIP3    H155020   5.106   2.712   1.167  1.1254 -0.9625 -1.0623
10275TIP3    H255021   5.217   2.786   1.238  0.4893 -1.5679  0.6075
10276TIP3   OH255022   5.393   7.039   1.595  0.7958 -0.3348 -0.3735
10276TIP3    H155023   5.461   6.979   1.628  1.0319 -1.7270 -3.1212
10276TIP3    H255024   5.438   7.095   1.533 -0.2167 -0.0765 -0.8996
10277TIP3   OH255025   7.466   5.962   0.636  0.2880  0.2095 -0.1311
10277TIP3    H155026   7.437   5.981   0.726  0.2194 -0.8981  0.0845
10277TIP3    H255027   7.386   5.965   0.584  0.1309 -0.4504  0.0666
10278TIP3   OH255028   0.044   5.787   1.511  0.1360  0.6641 -0.2749
10278TIP3    H155029  -0.019   5.800   1.440  0.6591  1.0966 -0.6716
10278TIP3    H255030   0.085   5.703   1.491  1.0198  1.2723 -1.0765
10279TIP3   OH255031   7.151   0.978   2.185 -0.3243  0.3982 -0.0203
10279TIP3    H155032   7.153   0.944   2.274 -1.4900  1.8783  0.6154
10279TIP3    H255033   7.109   0.909   2.134  1.2943 -0.9004  0.3289
10280TIP3   OH255034   4.380   7.397   3.079  1.0256  0.7704 -0.4599
10280TIP3    H155035   4.401   7.310   3.044  0.0600  0.1138  0.4853
10280TIP3    H255036   4.285   7.396   3.088  1.1577  1.1713  1.4201
10281TIP3   OH255037   2.761   5.846   0.852 -0.8900  0.1394 -0.3915
10281TIP3    H155038   2.701   5.901   0.802 -1.4142 -0.7552 -0.7906
10281TIP3    H255039   2.789   5.779   0.789 -1.8603 -1.2491  0.5804
10282TIP3   OH255040   7.166   5.521   1.842 -0.2366  0.1156  0.0858
10282TIP3    H155041   7.110   5.549   1.914 -0.9598 -2.0715  0.4281
10282TIP3    H255042   7.135   5.572   1.767 -0.8061  0.9684  0.8798
10283TIP3   OH255043   1.058   1.167   1.861 -0.0537 -0.0398 -0.5179
10283TIP3    H155044   1.082   1.077   1.837 -0.9903 -0.2605 -0.6762
10283TIP3    H255045   0.978   1.157   1.913 -0.9031  0.7826 -1.6273
10284TIP3   OH255046   2.876   3.149   2.053  0.4091 -0.2843 -0.3388
10284TIP3    H155047   2.793   3.145   2.004  0.5072 -2.3318 -0.4184
10284TIP3    H255048   2.850   3.176   2.141 -0.3830 -1.0587 -0.3235
10285TIP3   OH255049   2.686   2.572   2.173  0.1336 -0.7099 -0.0622
10285TIP3    H155050   2.763   2.516   2.170  0.3177 -0.4249 -1.8034
10285TIP3    H255051   2.721   2.660   2.186 -0.0289 -0.7466  0.7023
10286TIP3   OH255052   4.799   4.619   2.757  0.5017 -0.1432 -0.8419
10286TIP3    H155053   4.867   4.593   2.819  0.7948  4.4914  1.1433
10286TIP3    H255054   4.718   4.613   2.807  0.2918  0.3297 -1.1208
10287TIP3   OH255055   3.451   5.842   2.230 -0.2880  0.2264  0.1538
10287TIP3    H155056   3.433   5.785   2.156 -1.5993 -0.2113  0.7768
10287TIP3    H255057   3.440   5.931   2.195 -0.5616  0.0322 -0.2526
10288TIP3   OH255058   0.076   1.732   1.281  0.5844  0.2262 -0.2761
10288TIP3    H155059   0.117   1.662   1.230 -0.3336 -0.4200 -0.1568
10288TIP3    H255060   0.082   1.810   1.226  0.5991 -0.2089 -0.8949
10289TIP3   OH255061   2.536   1.353   2.309  0.8328  0.0210  0.1248
10289TIP3    H155062   2.583   1.412   2.368  0.9671 -0.6050  0.6518
10289TIP3    H255063   2.445   1.379   2.316  1.0693  1.3092 -0.9704
10290TIP3   OH255064   0.548   5.226   0.922  0.1676 -0.3583 -0.4395
10290TIP3    H155065   0.561   5.215   0.828  0.3098  0.9902 -0.6026
10290TIP3    H255066   0.534   5.138   0.955  2.1204 -1.0837 -1.4110
10291TIP3   OH255067   6.942   0.495   2.442 -0.1513 -0.4673  0.3960
10291TIP3    H155068   6.968   0.537   2.361 -0.4608 -0.3501  0.3583
10291TIP3    H255069   6.975   0.552   2.511 -2.2227  0.8639  0.3479
10292TIP3   OH255070   2.794   4.232   1.476  0.2922 -0.7615 -0.0617
10292TIP3    H155071   2.847   4.312   1.477 -2.3594  1.1306  1.3429
10292TIP3    H255072   2.804   4.195   1.564 -1.6176  0.3987  0.7293
10293TIP3   OH255073   2.890   6.650   0.546 -0.2278  0.0428 -0.0808
10293TIP3    H155074   2.865   6.742   0.557  1.4753  0.3585  1.6269
10293TIP3    H255075   2.808   6.602   0.556 -0.9368  1.2925  0.3514
10294TIP3   OH255076   0.698   7.458   1.626  0.0948 -0.4912  0.0077
10294TIP3    H155077   0.737   7.526   1.571  1.5818 -1.2578  0.0484
10294TIP3    H255078   0.772   7.402   1.651 -1.1731 -2.6027 -0.6903
10295TIP3   OH255079   6.591   4.129   1.566 -0.2747 -0.2009  0.1615
10295TIP3    H155080   6.581   4.208   1.620 -1.0596  1.1662 -1.8746
10295TIP3    H255081   6.684   4.126   1.545 -0.3570  0.6486 -0.3786
10296TIP3   OH255082   5.033   2.033   2.939 -0.3551 -0.3630  0.0618
10296TIP3    H155083   5.050   1.954   2.888 -1.2690 -0.6203  0.1254
10296TIP3    H255084   4.941   2.025   2.965 -0.9797  1.4939 -1.3350
10297TIP3   OH255085   6.553   7.083   0.878 -0.9040  0.9278  0.0178
10297TIP3    H155086   6.565   7.133   0.798  0.7628 -1.7950 -1.5940
10297TIP3    H255087   6.472   7.034   0.865 -0.1365 -0.2578 -0.5143
10298TIP3   OH255088   7.571   6.978   2.360 -0.2738  0.0687 -0.1061
10298TIP3    H155089   7.602   6.893   2.328  1.3357 -0.0013  1.4977
10298TIP3    H255090   7.589   6.976   2.454  0.6696  2.5514 -0.1666
10299TIP3   OH255091   4.441   3.286   1.587  0.1322 -0.5702  0.0555
10299TIP3    H155092   4.465   3.350   1.520 -0.3844 -0.3727  0.0551
10299TIP3    H255093   4.522   3.273   1.637  0.4632 -0.5622 -0.4729
10300TIP3   OH255094   3.537   4.721   3.259  0.2747 -0.3194 -0.0713
10300TIP3    H155095   3.516   4.670   3.338  1.0793 -3.4777 -1.7089
10300TIP3    H255096   3.626   4.754   3.275 -0.1954  0.5006  0.9617
10301TIP3   OH255097   1.451   7.481   3.133 -0.3013  0.1357 -0.4182
10301TIP3    H155098   1.538   7.508   3.103  0.3895  1.3633  2.3556
10301TIP3    H255099   1.451   7.386   3.123  0.9594  0.2066 -1.4209
10302TIP3   OH255100   2.865   5.677   0.612  0.4749  0.0174  0.1430
10302TIP3    H155101   2.872   5.761   0.566  1.2767  0.3025  0.7508
10302TIP3    H255102   2.951   5.635   0.599  0.5934 -0.0548  1.0399
10303TIP3   OH255103   5.962   3.795   3.390 -0.1908 -0.2857  0.5362
10303TIP3    H155104   5.949   3.761   3.302  0.0451  0.6211  0.1384
10303TIP3    H255105   6.038   3.748   3.423  0.0676 -0.2237  0.0357
10304TIP3   OH255106   4.555   1.073   2.948  0.0519  0.9786 -0.0746
10304TIP3    H155107   4.469   1.065   2.906  0.8842  0.5597 -1.7965
10304TIP3    H255108   4.535   1.081   3.042 -1.8591  1.1139 -0.4420
10305TIP3   OH255109   2.275   5.069   1.087 -0.0249  0.3663 -0.2518
10305TIP3    H155110   2.222   5.018   1.148  0.5683 -0.9567 -0.7936
10305TIP3    H255111   2.215   5.092   1.016 -0.3667  0.6636  0.1331
10306TIP3   OH255112   0.196   1.992   1.961  0.3801  0.2493 -0.4027
10306TIP3    H155113   0.207   2.076   1.918  0.0990  0.4160 -0.1463
10306TIP3    H255114   0.104   1.970   1.949  0.4538 -0.0259 -0.4754
10307TIP3   OH255115   5.816   4.859   2.436 -0.5982  0.0712 -0.3344
10307TIP3    H155116   5.729   4.819   2.433 -0.4799 -0.5154  1.9239
10307TIP3    H255117   5.803   4.950   2.409 -2.0819  0.2155  0.7817
10308TIP3   OH255118   3.886   6.394   1.464  0.6309 -0.1311  0.1228
10308TIP3    H155119   3.814   6.394   1.401  0.4069  1.5916  0.3187
10308TIP3    H255120   3.948   6.458   1.430  2.0920 -1.5686 -0.0254
10309TIP3   OH255121   7.373   4.352   2.394  0.0158  0.0413 -0.3748
10309TIP3    H155122   7.316   4.421   2.359  1.2548  0.8083 -0.9590
10309TIP3    H255123   7.438   4.338   2.325  1.2266  0.0175  0.7340
10310TIP3   OH255124   5.008   4.920   1.594  0.2176 -0.4823 -0.1678
10310TIP3    H155125   5.075   4.854   1.606 -0.2893 -1.1324 -0.8662
10310TIP3    H255126   5.031   4.964   1.512  1.4629  1.3266  1.0676
10311TIP3   OH255127   2.712   3.712   1.211  0.0412 -0.1763  0.5535
10311TIP3    H155128   2.763   3.670   1.142 -1.1107  1.8707 -1.6882
10311TIP3    H255129   2.745   3.801   1.216 -0.5447 -0.0030  2.0335
10312TIP3   OH255130   0.882   7.277   1.043  0.0929  0.0427 -0.4443
10312TIP3    H155131   0.954   7.331   1.076 -1.0502  3.3667 -2.8048
10312TIP3    H255132   0.823   7.267   1.118  1.1464  0.6452  0.4984
10313TIP3   OH255133   5.929   4.388   0.568 -0.1729 -0.4842  0.3363
10313TIP3    H155134   5.845   4.414   0.530 -0.7350 -0.1922  1.7217
10313TIP3    H255135   5.916   4.296   0.593 -0.5384 -0.0775  1.7151
10314TIP3   OH255136   3.759   1.362   1.246  0.0463 -0.9568 -0.0668
10314TIP3    H155137   3.704   1.294   1.284 -0.5069 -1.3485 -1.5136
10314TIP3    H255138   3.727   1.372   1.157  0.8895  0.3828 -0.2488
10315TIP3   OH255139   2.773   1.886   3.003  0.2327 -0.3973  0.3447
10315TIP3    H155140   2.708   1.816   2.991  0.5572 -0.5288 -0.6765
10315TIP3    H255141   2.843   1.845   3.054  0.0181 -0.5586  0.5156
10316TIP3   OH255142   2.656   1.170   2.092  0.1960  0.5409  0.3404
10316TIP3    H155143   2.734   1.123   2.120  0.3162  0.0748 -0.7395
10316TIP3    H255144   2.639   1.233   2.163  2.5085  1.8210 -0.1571
10317TIP3   OH255145   5.718   6.721   2.876  0.2048 -0.1384  0.1736
10317TIP3    H155146   5.776   6.773   2.931  0.2792  0.9499 -0.8780
10317TIP3    H255147   5.776   6.676   2.815  0.0481 -0.2676  0.1186
10318TIP3   OH255148   7.047   1.817   0.382  0.1438 -0.1940  0.8022
10318TIP3    H155149   7.119   1.877   0.402  0.4158  0.2626 -1.3639
10318TIP3    H255150   6.975   1.874   0.355 -0.2908 -0.7624  0.7343
10319TIP3   OH255151   5.891   5.361   2.405  0.3151 -0.3730 -0.5580
10319TIP3    H155152   5.817   5.353   2.346 -0.5975  0.0788  0.4913
10319TIP3    H255153   5.852   5.379   2.491  1.6682  0.9125 -0.1676
10320TIP3   OH255154   4.120   3.570   2.239 -0.1763  0.5243  0.4254
10320TIP3    H155155   4.072   3.496   2.201  2.5779 -1.2273  0.1458
10320TIP3    H255156   4.128   3.548   2.332  0.8129  0.3686  0.3059
10321TIP3   OH255157   4.224   7.621   1.116  0.2332  0.1571  0.1735
10321TIP3    H155158   4.238   7.639   1.023 -0.6703  0.7290  0.1411
10321TIP3    H255159   4.231   7.707   1.158 -1.7282  0.2777  0.3228
10322TIP3   OH255160   6.669   0.162   1.587 -0.1472  0.2319 -0.4875
10322TIP3    H155161   6.709   0.172   1.501 -2.1325 -0.3125 -1.5449
10322TIP3    H255162   6.669   0.068   1.604  0.0597  0.3191  0.0383
10323TIP3   OH255163   5.480   7.098   0.651 -0.7812 -0.3941 -0.3691
10323TIP3    H155164   5.413   7.037   0.620  0.8268 -0.6771 -3.8577
10323TIP3    H255165   5.438   7.183   0.650 -1.9434 -0.9249  0.6856
10324TIP3   OH255166   2.752   7.102   0.905  0.4539 -0.1006  0.2072
10324TIP3    H155167   2.668   7.086   0.947 -0.0271  0.7898 -0.3907
10324TIP3    H255168   2.802   7.021   0.920 -0.4440 -0.5825  0.6899
10325TIP3   OH255169   2.480   4.982   0.910 -0.0577  0.0862  0.0552
10325TIP3    H155170   2.412   5.009   0.972 -0.5840  0.0624 -0.4987
10325TIP3    H255171   2.562   5.008   0.952 -0.2891 -1.2418  1.4214
10326TIP3   OH255172   5.421   0.075   2.062 -0.3804 -0.3901 -0.0790
10326TIP3    H155173   5.409   0.169   2.056  0.1349 -0.3861 -1.3182
10326TIP3    H255174   5.336   0.041   2.091 -0.6686  0.4158  0.0303
10327TIP3   OH255175   1.124   4.228   2.730  0.3475  0.1431  0.3823
10327TIP3    H155176   1.196   4.177   2.694  0.7239  1.2114 -0.4513
10327TIP3    H255177   1.163   4.280   2.800 -0.0385 -0.6963  1.2449
10328TIP3   OH255178   4.908   3.908   3.466  0.0912  0.0010  0.0616
10328TIP3    H155179   4.919   3.987   3.414  0.6201  0.1612  0.4003
10328TIP3    H255180   4.982   3.910   3.528 -0.6853 -0.0190  1.0190
10329TIP3   OH255181   2.714   6.467   2.837  0.1621  0.3791  0.1587
10329TIP3    H155182   2.671   6.402   2.893 -0.0450  0.3537 -0.0301
10329TIP3    H255183   2.672   6.550   2.858  0.8120  0.5561  0.8095
10330TIP3   OH255184   3.220   2.271   2.227  0.2062  0.2107  0.0206
10330TIP3    H155185   3.137   2.299   2.266  0.3646  1.2774 -0.3727
10330TIP3    H255186   3.208   2.283   2.133  0.3967 -0.7780 -0.1347
10331TIP3   OH255187   5.965   4.543   0.861  0.0104  0.2203  0.8453
10331TIP3    H155188   5.942   4.514   0.772  2.3791  0.2457  0.1736
10331TIP3    H255189   5.974   4.638   0.853  3.0289 -0.0081  0.3196
10332TIP3   OH255190   7.421   0.690   1.053 -0.1793  0.4043  0.0519
10332TIP3    H155191   7.433   0.658   0.964 -0.7582  1.8351 -0.5710
10332TIP3    H255192   7.495   0.749   1.068 -1.2706  1.9411 -0.3605
10333TIP3   OH255193   7.476   3.539   2.353  0.3228 -0.2586 -0.5289
10333TIP3    H155194   7.421   3.476   2.400 -0.9009  0.7343 -0.5694
10333TIP3    H255195   7.461   3.519   2.260  0.5563 -0.4181 -0.5326
10334TIP3   OH255196   4.291   2.111   2.667 -0.1073 -0.4369 -0.3776
10334TIP3    H155197   4.348   2.039   2.692 -1.0314 -0.3583  2.2216
10334TIP3    H255198   4.327   2.187   2.713  0.0700  0.5240 -2.0202
10335TIP3   OH255199   0.220   7.061   2.491 -0.6433 -0.7343  0.3049
10335TIP3    H155200   0.252   7.082   2.579 -0.5865  2.3412 -0.3315
10335TIP3    H255201   0.153   6.995   2.505 -0.6995 -0.2696  2.6892
10336TIP3   OH255202   7.548   3.014   0.444  0.3241 -0.5950 -0.2600
10336TIP3    H155203   7.497   3.091   0.420  0.2717 -0.8039 -0.8332
10336TIP3    H255204   7.639   3.046   0.446  0.3290 -0.5703 -0.7383
10337TIP3   OH255205   4.316   3.111   3.424 -0.6253 -0.1950  0.5449
10337TIP3    H155206   4.361   3.079   3.346 -0.0000  0.0927  0.7811
10337TIP3    H255207   4.323   3.040   3.488 -3.6652 -1.6454 -0.5675
10338TIP3   OH255208   7.490   3.487   1.963  0.5337 -0.0041 -0.5065
10338TIP3    H155209   7.424   3.442   2.016  1.1323  1.0877  1.2199
10338TIP3    H255210   7.559   3.422   1.951  0.0786 -0.4858 -0.5721
10339TIP3   OH255211   6.304   1.334   0.649  0.8055 -0.1526  0.3549
10339TIP3    H155212   6.257   1.340   0.566 -0.5204 -1.6004  0.9510
10339TIP3    H255213   6.396   1.325   0.625  0.6500  1.2959 -0.8888
10340TIP3   OH255214   4.450   4.586   1.729  0.2370 -0.0555  0.0208
10340TIP3    H155215   4.425   4.536   1.806  0.6398 -0.8568 -0.3548
10340TIP3    H255216   4.488   4.521   1.669  0.0215  0.5670 -0.8111
10341TIP3   OH255217   3.748   0.042   2.465  0.2740 -0.0515 -0.6163
10341TIP3    H155218   3.714   0.129   2.482 -0.1772 -0.4618  0.6832
10341TIP3    H255219   3.844   0.053   2.466  0.2608  0.1606  1.2108
10342TIP3   OH255220   4.900   7.528   1.235 -0.3573 -0.7185 -0.0362
10342TIP3    H155221   4.910   7.577   1.316  0.7519  0.1904 -0.6912
10342TIP3    H255222   4.881   7.439   1.263 -2.4771  0.0564  1.1814
10343TIP3   OH255223   3.594   4.818   3.560 -0.4892  0.7093 -0.2150
10343TIP3    H155224   3.583   4.731   3.523 -1.4262  0.6580  0.1785
10343TIP3    H255225   3.682   4.844   3.533 -0.7587  0.2469 -1.5908
10344TIP3   OH255226   5.135   2.245   1.425  0.4948 -0.0068  0.3121
10344TIP3    H155227   5.196   2.309   1.387 -0.6385  1.0517  0.2226
10344TIP3    H255228   5.184   2.163   1.424  1.0632  0.2810 -2.0148
10345TIP3   OH255229   3.386   2.725   2.585  0.3942 -0.2431  0.2304
10345TIP3    H155230   3.463   2.670   2.599 -1.3284 -2.6098  1.0423
10345TIP3    H255231   3.399   2.798   2.645  1.1283 -1.5897  1.8170
10346TIP3   OH255232   7.404   5.661   1.027 -0.6338  0.4469 -0.1022
10346TIP3    H155233   7.371   5.571   1.035 -0.6277  0.4833  0.3114
10346TIP3    H255234   7.327   5.714   1.011 -1.0114  0.7502  2.3633
10347TIP3   OH255235   0.486   6.686   1.611  0.1518 -0.0961  0.8308
10347TIP3    H155236   0.435   6.628   1.667  0.5224 -0.2641  0.9969
10347TIP3    H255237   0.548   6.629   1.566  0.2762  0.1211  0.7208
10348TIP3   OH255238   4.664   5.909   3.150 -0.8001  0.3767 -0.0633
10348TIP3    H155239   4.699   5.989   3.109 -0.4398 -0.1712 -0.8423
10348TIP3    H255240   4.739   5.870   3.194 -0.4786 -0.6476 -1.4898
10349TIP3   OH255241   2.535   2.496   1.004 -0.3400  0.1073  0.1449
10349TIP3    H155242   2.604   2.479   1.068 -0.5124 -0.7261  0.1159
10349TIP3    H255243   2.574   2.558   0.943  1.0137 -1.6079 -0.8377
10350TIP3   OH255244   4.777   1.664   2.470  0.4064 -0.1413 -0.0918
10350TIP3    H155245   4.699   1.642   2.420  0.7566 -0.0782 -0.6778
10350TIP3    H255246   4.836   1.704   2.406  0.3053  1.2648  0.6636
10351TIP3   OH255247   4.056   7.260   2.554  0.3366  0.9865  0.0885
10351TIP3    H155248   4.127   7.235   2.613 -0.1065  0.4423  0.4055
10351TIP3    H255249   3.985   7.286   2.612  0.2512  1.4655 -0.2245
10352TIP3   OH255250   7.471   2.620   2.610  0.4494 -0.5413  0.4110
10352TIP3    H155251   7.444   2.635   2.700  2.1090  0.2094  0.8159
10352TIP3    H255252   7.411   2.553   2.577 -1.3809  0.5242  1.4652
10353TIP3   OH255253   1.685   3.943   2.399 -0.7894  0.1369 -0.1702
10353TIP3    H155254   1.607   3.994   2.375 -0.2685 -0.4328 -3.5791
10353TIP3    H255255   1.671   3.858   2.357  0.5994 -0.8473  1.2500
10354TIP3   OH255256   6.040   6.189   2.176 -0.5057  0.4941 -0.7666
10354TIP3    H155257   6.098   6.264   2.162 -0.4370  0.4541 -0.6969
10354TIP3    H255258   6.072   6.149   2.257 -1.3985  1.2107 -0.0320
10355TIP3   OH255259   6.813   6.740   0.737  0.4430 -0.1647  0.3505
10355TIP3    H155260   6.882   6.731   0.803  2.6775 -0.8470 -1.9439
10355TIP3    H255261   6.813   6.833   0.715 -0.8390  0.2122  1.7525
10356TIP3   OH255262   6.732   1.153   2.650 -0.6883 -0.4258  0.2362
10356TIP3    H155263   6.811   1.206   2.636 -2.0459  1.3652 -1.0501
10356TIP3    H255264   6.757   1.093   2.720  1.0806  1.6469  1.5370
10357TIP3   OH255265   1.442   6.317   2.267 -0.3825 -0.4207  0.3390
10357TIP3    H155266   1.479   6.302   2.354 -2.0300  1.4041  1.4334
10357TIP3    H255267   1.433   6.413   2.262  3.0989 -0.0232 -3.3714
10358TIP3   OH255268   0.241   1.758   0.851  0.0103  0.4135 -0.4571
10358TIP3    H155269   0.272   1.841   0.818  1.0528 -0.3204 -1.3790
10358TIP3    H255270   0.290   1.744   0.932 -0.8979  1.1416  0.2434
10359TIP3   OH255271   4.460   3.749   0.600  0.3505  0.1079  0.6731
10359TIP3    H155272   4.389   3.774   0.659  0.0708 -1.9347  1.2980
10359TIP3    H255273   4.526   3.817   0.611 -0.8283  1.1927  1.2962
10360TIP3   OH255274   5.047   1.680   2.368  0.3208  0.3597 -0.7367
10360TIP3    H155275   5.003   1.595   2.376 -2.3258  1.6476 -0.4683
10360TIP3    H255276   5.063   1.690   2.274 -1.2841  0.4252 -1.0276
10361TIP3   OH255277   6.903   5.267   1.653 -0.0310  0.3219 -0.0149
10361TIP3    H155278   6.851   5.202   1.606  0.9775 -1.0377  0.6719
10361TIP3    H255279   6.906   5.235   1.743  1.5455  0.6371  0.0771
10362TIP3   OH255280   7.051   3.227   1.379 -0.4690  0.2443  0.0474
10362TIP3    H155281   7.050   3.245   1.285  1.0256 -0.0242 -0.0432
10362TIP3    H255282   7.116   3.288   1.415  0.1392 -0.7335  0.6550
10363TIP3   OH255283   0.595   5.567   2.302  0.0201 -0.4680 -0.2535
10363TIP3    H155284   0.505   5.545   2.326 -0.5705  0.4896 -1.4591
10363TIP3    H255285   0.613   5.517   2.222  1.5595 -2.7431  1.3945
10364TIP3   OH255286   0.457   2.759   2.267  0.6925  0.2585 -0.4548
10364TIP3    H155287   0.551   2.748   2.283  0.1705 -1.5155  1.9194
10364TIP3    H255288   0.424   2.669   2.257 -0.8879  0.8020 -0.3866
10365TIP3   OH255289   1.989   6.822   1.173 -0.0464 -0.0777 -0.3253
10365TIP3    H155290   2.030   6.882   1.110 -0.4871 -0.6195 -1.1582
10365TIP3    H255291   1.897   6.822   1.149 -0.0830 -0.9450 -0.2267
10366TIP3   OH255292   3.266   0.219   0.930  0.3644 -0.1457  0.1742
10366TIP3    H155293   3.254   0.129   0.899  1.6353 -0.5525  0.7990
10366TIP3    H255294   3.216   0.225   1.011  0.0817 -0.2160  0.0037
10367TIP3   OH255295   6.822   6.002   1.479 -0.3253 -0.3704  0.3463
10367TIP3    H155296   6.806   6.033   1.390 -0.7700 -0.0857  0.5252
10367TIP3    H255297   6.831   5.907   1.470  0.2505 -0.2807 -0.0890
10368TIP3   OH255298   0.617   3.392   2.230 -0.5865 -0.3308  0.8510
10368TIP3    H155299   0.634   3.298   2.216 -1.0748 -0.0704 -2.2269
10368TIP3    H255300   0.705   3.430   2.240 -0.0194 -0.6676 -2.0028
10369TIP3   OH255301   1.921   7.154   2.294 -0.4250 -0.4216 -0.1272
10369TIP3    H155302   1.845   7.105   2.261 -1.3067  0.5378  0.4228
10369TIP3    H255303   1.989   7.137   2.229 -1.7163  0.3260 -1.7742
10370TIP3   OH255304   4.396   7.165   1.950  0.2942 -0.6781  0.1341
10370TIP3    H155305   4.431   7.170   2.039 -1.1927  0.7246  0.6690
10370TIP3    H255306   4.361   7.076   1.943  0.4572 -0.8132  0.9309
10371TIP3   OH255307   1.825   7.249   3.249  0.4278  0.1441 -0.3182
10371TIP3    H155308   1.904   7.287   3.211  1.1564  0.7627  1.6942
10371TIP3    H255309   1.783   7.322   3.296 -0.1920 -0.6601  0.4098
10372TIP3   OH255310   6.662   2.794   2.509 -0.2732  0.1888 -0.3366
10372TIP3    H155311   6.755   2.815   2.503 -0.5106  1.4897  0.2765
10372TIP3    H255312   6.659   2.713   2.560  0.5517 -0.1966 -0.8855
10373TIP3   OH255313   3.135   4.301   0.903  0.0245  0.0234  0.4823
10373TIP3    H155314   3.190   4.317   0.826  0.1831  0.9033  0.7744
10373TIP3    H255315   3.051   4.274   0.866  0.1551  0.2597 -0.0002
10374TIP3   OH255316   4.692   4.298   0.843  0.1127  0.2378 -0.4774
10374TIP3    H155317   4.776   4.254   0.856 -1.2231 -2.0925  1.1325
10374TIP3    H255318   4.694   4.372   0.904  0.2034 -1.1212  1.2501
10375TIP3   OH255319   5.018   1.016   0.656  0.2832  0.4818  0.0551
10375TIP3    H155320   5.065   0.947   0.609  0.8318  1.5211 -0.9602
10375TIP3    H255321   5.058   1.017   0.743  2.8472  1.9186 -1.0270
10376TIP3   OH255322   5.459   4.893   0.855 -0.0783 -0.3386  0.3098
10376TIP3    H155323   5.463   4.959   0.924 -1.5457 -1.0306  1.0979
10376TIP3    H255324   5.547   4.894   0.817  0.2399  1.3218  0.9777
10377TIP3   OH255325   7.634   4.633   0.923 -0.2962 -0.1590  0.0526
10377TIP3    H155326   7.540   4.652   0.918 -0.2938 -0.2142 -0.2261
10377TIP3    H255327   7.639   4.552   0.974 -0.3588  0.1450  0.5542
10378TIP3   OH255328   3.509   1.628   0.951  0.4658  0.1169 -0.2678
10378TIP3    H155329   3.491   1.660   1.039  0.4020 -0.4912 -0.0559
10378TIP3    H255330   3.603   1.612   0.950  1.0753  3.1172 -1.3159
10379TIP3   OH255331   0.904   7.493   2.645  0.3812 -0.8349 -0.4683
10379TIP3    H155332   0.963   7.444   2.703 -0.1719 -0.8020  0.1422
10379TIP3    H255333   0.818   7.485   2.687  0.1507  0.0395 -0.7570
10380TIP3   OH255334   5.132   3.249   0.707 -0.3951 -0.4226  0.3534
10380TIP3    H155335   5.203   3.247   0.772 -0.5162  0.2336  0.5121
10380TIP3    H255336   5.176   3.239   0.623 -0.0763  0.2557  0.4314
10381TIP3   OH255337   4.345   0.410   1.540 -0.2957 -0.3555 -0.4960
10381TIP3    H155338   4.376   0.447   1.623  2.7077 -2.2183 -0.6511
10381TIP3    H255339   4.392   0.459   1.473  0.4539 -1.5789 -0.8816
10382TIP3   OH255340   0.075   7.505   2.649  0.0357  0.3227 -0.0922
10382TIP3    H155341   0.060   7.597   2.672 -2.4209  0.1302 -0.6679
10382TIP3    H255342   0.124   7.469   2.724 -1.0342  1.5497  1.2605
10383TIP3   OH255343   0.674   6.797   1.843 -0.1196  0.0769 -0.1063
10383TIP3    H155344   0.589   6.802   1.799 -0.2462 -1.1319 -0.0412
10383TIP3    H255345   0.728   6.744   1.785 -0.4158 -1.9078  1.3069
10384TIP3   OH255346   1.568   3.259   0.421  0.1247 -0.3455 -0.2151
10384TIP3    H155347   1.621   3.336   0.441 -0.1860 -0.0529 -0.5039
10384TIP3    H255348   1.511   3.287   0.350  0.4021 -1.0147 -0.7121
10385TIP3   OH255349   7.067   0.711   1.332 -1.1354  0.4799  0.2052
10385TIP3    H155350   7.153   0.739   1.364 -1.1975 -0.6911  1.5377
10385TIP3    H255351   7.084   0.677   1.244 -0.5979  1.9948 -0.3152
10386TIP3   OH255352   5.884   2.730   2.658  0.5333  0.3108  0.3578
10386TIP3    H155353   5.900   2.654   2.602  1.3169  0.4151  0.4242
10386TIP3    H255354   5.820   2.782   2.610  1.0530  0.3070 -0.3576
10387TIP3   OH255355   2.797   5.775   1.286  0.2340 -0.3460 -0.0983
10387TIP3    H155356   2.892   5.789   1.288  0.3601 -0.4571 -2.5116
10387TIP3    H255357   2.787   5.683   1.262 -0.5493 -0.8907  2.0777
10388TIP3   OH255358   6.357   6.055   2.317 -0.1314  0.7427  0.1568
10388TIP3    H155359   6.304   6.037   2.239 -1.4533  1.2838  0.8921
10388TIP3    H255360   6.408   5.975   2.331 -0.0269  0.5630 -1.1309
10389TIP3   OH255361   2.484   6.790   0.580 -0.3600  0.3214  0.0143
10389TIP3    H155362   2.419   6.842   0.533  0.8031  1.4770 -0.3868
10389TIP3    H255363   2.559   6.849   0.590  1.1137 -1.3601 -0.6572
10390TIP3   OH255364   3.153   5.706   2.315 -0.0582  0.3078  1.1609
10390TIP3    H155365   3.085   5.759   2.275 -0.4626 -0.2406  1.1180
10390TIP3    H255366   3.200   5.667   2.241 -1.0485 -1.0156  1.1957
10391TIP3   OH255367   3.300   2.358   2.808  0.1474  0.2049 -0.5146
10391TIP3    H155368   3.374   2.319   2.762 -0.2925  1.2421 -2.2057
10391TIP3    H255369   3.224   2.339   2.752 -0.4970  1.0734  0.0279
10392TIP3   OH255370   1.980   5.286   1.619  0.1557 -0.0596  0.6020
10392TIP3    H155371   1.962   5.252   1.707  1.2964  0.1035  0.9177
10392TIP3    H255372   2.046   5.354   1.633 -0.0457  0.3361 -0.3316
10393TIP3   OH255373   6.386   6.834   1.557 -0.0573  0.2059  0.1559
10393TIP3    H155374   6.341   6.888   1.623  1.5193  3.0645 -0.9389
10393TIP3    H255375   6.343   6.857   1.474  0.9972  0.1826 -0.4088
10394TIP3   OH255376   6.620   4.190   2.412  0.0478 -0.5227  0.0605
10394TIP3    H155377   6.667   4.196   2.329 -1.1514 -0.6457 -0.6491
10394TIP3    H255378   6.569   4.110   2.406  0.2917 -0.7830  1.1231
10395TIP3   OH255379   5.009   5.081   0.855 -0.3188  0.6651  0.3793
10395TIP3    H155380   4.918   5.109   0.866 -0.4120  0.1526  0.9403
10395TIP3    H255381   5.011   4.991   0.887 -0.0845 -0.1285 -1.7216
10396TIP3   OH255382   6.338   0.510   0.923 -0.4757  0.1607  0.1543
10396TIP3    H155383   6.395   0.547   0.990 -1.2834  0.2918  0.7875
10396TIP3    H255384   6.397   0.459   0.867  0.2031 -0.0515  1.0327
10397TIP3   OH255385   3.790   1.644   1.267  0.0998  0.0867 -0.6832
10397TIP3    H155386   3.711   1.671   1.220  0.8516  0.1179 -1.9712
10397TIP3    H255387   3.804   1.553   1.240  1.0677  0.3983 -1.3039
10398TIP3   OH255388   1.278   4.794   2.751 -0.0521 -0.4832  0.0427
10398TIP3    H155389   1.237   4.711   2.727 -0.3943  0.3376 -2.4326
10398TIP3    H255390   1.370   4.773   2.763 -0.0870 -1.1783 -0.8314
10399TIP3   OH255391   3.117   7.260   1.926  0.9454  0.5683 -0.3750
10399TIP3    H155392   3.065   7.277   1.848  0.4125  1.9749  0.2492
10399TIP3    H255393   3.142   7.347   1.958  0.4950  0.0942  1.4138
10400TIP3   OH255394   7.513   7.186   0.538 -0.0908 -0.2300 -0.0665
10400TIP3    H155395   7.571   7.111   0.527 -0.5155 -0.3301 -1.7831
10400TIP3    H255396   7.454   7.160   0.609  1.1056 -0.6295  0.8265
10401TIP3   OH255397   5.567   4.775   2.797  0.4629  0.4384  0.5430
10401TIP3    H155398   5.492   4.731   2.837 -0.4147  1.2835 -0.1289
10401TIP3    H255399   5.564   4.749   2.705  0.0729  1.6895  0.1899
10402TIP3   OH255400   2.976   6.335   2.208 -0.0594  0.2095 -0.0946
10402TIP3    H155401   3.006   6.346   2.298  1.1371 -1.4968 -0.2397
10402TIP3    H255402   2.905   6.399   2.198 -1.5707 -0.8909  2.6489
10403TIP3   OH255403   6.351   4.929   1.678 -0.4446  0.6091  0.5524
10403TIP3    H155404   6.259   4.935   1.652 -0.5709 -1.4519  0.3090
10403TIP3    H255405   6.350   4.943   1.772 -0.8165  1.9203  0.3701
10404TIP3   OH255406   2.158   2.158   3.332 -0.0962 -0.0034 -0.5458
10404TIP3    H155407   2.239   2.175   3.380 -0.9805  0.1018  0.9698
10404TIP3    H255408   2.184   2.097   3.262  1.2704 -0.0003 -0.0722
10405TIP3   OH255409   0.708   2.235   2.288  0.0020 -0.5059 -0.6108
10405TIP3    H155410   0.757   2.317   2.291 -1.2945  0.3424 -1.7806
10405TIP3    H255411   0.617   2.260   2.300 -0.2004 -2.1025  1.9311
10406TIP3   OH255412   6.866   2.058   0.579  0.4880  0.0723  0.1716
10406TIP3    H155413   6.929   2.108   0.527  0.5168 -1.7376 -1.6176
10406TIP3    H255414   6.920   2.005   0.637  0.4894  0.7617  0.8274
10407TIP3   OH255415   4.510   5.216   1.362  0.5479  0.0228 -0.2300
10407TIP3    H155416   4.516   5.153   1.291 -0.8802 -0.2944 -0.1153
10407TIP3    H255417   4.525   5.301   1.321  0.6547 -0.2378 -0.7281
10408TIP3   OH255418   2.620   5.603   0.966  0.3163 -0.7833 -0.1726
10408TIP3    H155419   2.565   5.535   0.928 -0.3229 -1.3107  1.5918
10408TIP3    H255420   2.604   5.680   0.912  0.1941 -1.7232 -1.5215
10409TIP3   OH255421   7.572   2.395   1.900 -0.7151 -0.4149  0.4206
10409TIP3    H155422   7.589   2.302   1.887 -0.0021 -0.2366 -0.0002
10409TIP3    H255423   7.658   2.432   1.921 -0.8657  0.2540 -0.0938
10410TIP3   OH255424   5.788   2.195   1.622  0.0810 -0.3557  0.3419
10410TIP3    H155425   5.856   2.174   1.685 -0.1982  0.2286  0.8483
10410TIP3    H255426   5.756   2.110   1.592  2.0982 -0.6758 -1.1054
10411TIP3   OH255427   2.489   5.430   2.189  0.2978  0.4322  0.1374
10411TIP3    H155428   2.408   5.410   2.235  0.6740 -1.2234  0.1349
10411TIP3    H255429   2.461   5.471   2.107 -0.8519 -3.4923 -1.6585
10412TIP3   OH255430   6.881   7.483   2.956  0.3905  0.2302  0.0695
10412TIP3    H155431   6.857   7.424   3.027  0.1062 -0.6501 -0.7480
10412TIP3    H255432   6.965   7.451   2.925  0.3971  0.4654 -0.1613
10413TIP3   OH255433   3.992   0.016   1.308 -0.2024 -0.2320  0.3231
10413TIP3    H155434   4.067  -0.037   1.282 -1.1542 -0.6489 -1.7611
10413TIP3    H255435   4.010   0.102   1.271 -0.1055  0.0797  1.0678
10414TIP3   OH255436   2.863   4.717   3.050  0.0343 -0.4610 -0.0718
10414TIP3    H155437   2.793   4.768   3.093  0.5157 -0.9375  1.3533
10414TIP3    H255438   2.830   4.627   3.050  0.0274 -0.4599 -0.7616
10415TIP3   OH255439   4.895   4.140   0.960 -0.0957 -0.1812  0.9038
10415TIP3    H155440   4.984   4.118   0.932 -0.7497  1.3421 -3.0096
10415TIP3    H255441   4.844   4.061   0.939 -0.4519  0.7038 -2.1634
10416TIP3   OH255442   3.477   7.159   3.286  0.5456  0.4621  0.2274
10416TIP3    H155443   3.558   7.210   3.295  0.4532  1.3498 -2.8808
10416TIP3    H255444   3.487   7.114   3.202 -2.3905  1.0056 -0.5124
10417TIP3   OH255445   4.853   1.733   0.860  0.6328 -0.3222  0.2388
10417TIP3    H155446   4.789   1.802   0.877  1.1962  0.7040 -1.4782
10417TIP3    H255447   4.814   1.680   0.791  1.3829  0.0032 -0.4607
10418TIP3   OH255448   3.068   1.362   0.939  0.4086 -0.1495 -0.0910
10418TIP3    H155449   3.154   1.373   0.899  0.6334 -0.3191  0.3337
10418TIP3    H255450   3.087   1.347   1.032 -0.1554  1.8575  0.3982
10419TIP3   OH255451   6.204   2.440   2.258  0.2319  0.1555 -0.0827
10419TIP3    H155452   6.122   2.398   2.282  0.7028 -1.2811 -0.8635
10419TIP3    H255453   6.237   2.476   2.340  0.1199 -1.6097  0.7874
10420TIP3   OH255454   4.370   5.370   3.815 -0.4565 -0.1794  0.2818
10420TIP3    H155455   4.433   5.423   3.767  0.0328 -1.3421 -0.4078
10420TIP3    H255456   4.308   5.340   3.748 -0.1467 -1.2830  0.4693
10421TIP3   OH255457   5.924   4.912   2.012  0.1425 -0.2724  0.2348
10421TIP3    H155458   5.910   4.970   2.086 -0.7368  0.3245 -0.3809
10421TIP3    H255459   5.856   4.936   1.949  0.8210 -0.8129 -0.7361
10422TIP3   OH255460   0.042   2.769   1.662 -0.1223  0.2988 -0.2718
10422TIP3    H155461   0.020   2.862   1.659 -0.7514  0.1455 -2.7926
10422TIP3    H255462  -0.039   2.725   1.635  0.5995 -0.8741 -0.5907
10423TIP3   OH255463   1.460   5.084   2.316  0.1456 -0.1269  0.3883
10423TIP3    H155464   1.427   5.038   2.239 -0.2182  1.0730 -0.1816
10423TIP3    H255465   1.535   5.135   2.284  0.3565 -0.0704  0.9504
10424TIP3   OH255466   1.678   3.584   1.294 -0.2813 -0.2518 -0.0490
10424TIP3    H155467   1.652   3.530   1.220  2.6928 -0.1585 -1.3016
10424TIP3    H255468   1.730   3.526   1.349  0.0789  0.4590  0.3781
10425TIP3   OH255469   1.949   7.224   2.023 -0.6090  0.3919 -0.1128
10425TIP3    H155470   1.909   7.285   2.085  1.4025  0.1667  1.5130
10425TIP3    H255471   1.951   7.272   1.940 -1.8001  1.3692  0.4003
10426TIP3   OH255472   5.596   0.872   2.167 -0.6455  0.5340 -0.2491
10426TIP3    H155473   5.619   0.956   2.128 -1.2051  0.9594  0.3139
10426TIP3    H255474   5.510   0.851   2.129 -1.2669  1.0261  0.8434
10427TIP3   OH255475   3.796   1.692   0.961  0.0971  0.1565  0.6773
10427TIP3    H155476   3.886   1.699   0.995  0.4083 -0.3780 -0.0159
10427TIP3    H255477   3.807   1.665   0.870 -0.7910 -0.7622  0.8259
10428TIP3   OH255478   0.832   2.901   0.675 -0.4225 -0.2357  0.2557
10428TIP3    H155479   0.881   2.960   0.618 -1.0682 -0.2331 -0.3106
10428TIP3    H255480   0.861   2.813   0.649  0.2141 -0.1966  0.7990
10429TIP3   OH255481   2.726   2.021   1.123 -0.3602 -0.3644  0.3959
10429TIP3    H155482   2.782   1.967   1.067  3.0857  1.3698  1.8592
10429TIP3    H255483   2.666   2.064   1.062  0.6006 -1.5108 -1.4643
10430TIP3   OH255484   6.598   5.265   1.754 -0.0551 -0.1644  0.1899
10430TIP3    H155485   6.534   5.284   1.823  0.4079 -0.2618  0.6512
10430TIP3    H255486   6.660   5.338   1.758 -0.6941  0.4651 -0.9380
10431TIP3   OH255487   4.680   7.663   2.769 -0.0668  1.0885  0.1069
10431TIP3    H155488   4.682   7.577   2.728 -2.9925  1.8484 -1.9277
10431TIP3    H255489   4.614   7.656   2.838  0.0921  1.5764  0.3183
10432TIP3   OH255490   3.639   2.577   2.532 -0.5301 -0.1528  0.2232
10432TIP3    H155491   3.702   2.644   2.558  0.8038 -1.0076 -0.6811
10432TIP3    H255492   3.668   2.498   2.578 -1.0578 -0.5114 -0.0522
10433TIP3   OH255493   2.468   4.932   2.436  0.2283  0.4719 -0.2510
10433TIP3    H155494   2.532   4.957   2.502  1.3595 -0.7759 -0.8296
10433TIP3    H255495   2.452   5.012   2.385 -0.1386  1.2661  1.0665
10434TIP3   OH255496   3.054   2.329   0.604  0.4699 -0.8649 -0.0855
10434TIP3    H155497   3.072   2.386   0.678 -3.8637  0.0964  0.5284
10434TIP3    H255498   3.007   2.385   0.541 -0.5147 -2.8073 -1.1867
10435TIP3   OH255499   7.078   2.944   0.575 -0.0688 -0.1111 -0.5373
10435TIP3    H155500   7.144   2.882   0.546  0.9011  0.5767  0.1340
10435TIP3    H255501   6.995   2.897   0.568  0.2619 -0.4247 -3.0465
10436TIP3   OH255502   0.155   3.585   1.125  0.5319 -0.3458  0.1151
10436TIP3    H155503   0.123   3.502   1.162  2.2502 -0.9141  0.3875
10436TIP3    H255504   0.082   3.646   1.138 -0.9600 -1.9029 -0.5125
10437TIP3   OH255505   2.783   6.427   1.436 -0.1179  0.5526 -0.1547
10437TIP3    H155506   2.761   6.341   1.473 -2.2901  0.2800 -1.8698
10437TIP3    H255507   2.728   6.489   1.486  0.6407  0.8338  0.3510
10438TIP3   OH255508   6.720   6.308   2.333 -0.1531 -0.1780  0.4664
10438TIP3    H155509   6.668   6.249   2.387 -2.2625  0.0080 -1.2413
10438TIP3    H255510   6.778   6.352   2.396 -0.9149 -1.5520  2.2374
10439TIP3   OH255511   0.657   6.289   1.608 -0.3537 -0.2592  0.0073
10439TIP3    H155512   0.595   6.331   1.549  0.8721  0.8970 -0.5271
10439TIP3    H255513   0.624   6.307   1.695 -0.2922  1.1556 -0.2420
   7.68049   7.68049  30.00000
