Title
55513
    1DOPE     N    1   5.579   3.847   6.945  0.2514  0.5547 -0.3327
    1DOPE   HN1    2   5.510   3.847   7.023 -0.4034  2.4116 -0.8424
    1DOPE   HN2    3   5.636   3.761   6.950 -1.7341 -0.8488 -0.5555
    1DOPE   HN3    4   5.647   3.926   6.951  2.3762 -1.0604 -1.7404
    1DOPE   C12    5   5.500   3.853   6.816  0.2456 -0.0865 -0.8527
    1DOPE  H12A    6   5.577   3.841   6.737 -0.9473 -3.1182 -1.7192
    1DOPE  H12B    7   5.443   3.948   6.815 -1.6145 -1.1059  0.4471
    1DOPE   C11    8   5.385   3.741   6.808  0.0876  0.4091  0.0054
    1DOPE  H11A    9   5.426   3.639   6.792 -1.5653 -0.3810  0.5290
    1DOPE  H11B   10   5.321   3.762   6.721 -0.6494  0.0397  0.4459
    1DOPE     P   11   5.161   3.807   6.933  0.5015  0.1853  0.3050
    1DOPE   O13   12   5.191   3.949   6.907 -0.6911 -0.0311 -0.7864
    1DOPE   O14   13   5.090   3.772   7.059 -0.1892 -0.0332  0.3546
    1DOPE   O11   14   5.081   3.751   6.809 -0.3701  0.1777  0.4884
    1DOPE   O12   15   5.298   3.731   6.924  0.2240  0.5425  0.2576
    1DOPE    C1   16   5.065   3.607   6.795  0.2137 -0.6118 -0.6240
    1DOPE    HA   17   5.005   3.567   6.880 -1.5168  0.1132 -1.4580
    1DOPE    HB   18   5.164   3.557   6.801  0.5810  0.2376  0.8666
    1DOPE    C2   19   4.991   3.572   6.662  0.6636 -0.1601  0.5034
    1DOPE    HS   20   4.979   3.461   6.662 -0.7507 -0.0356 -0.4700
    1DOPE   O21   21   5.057   3.630   6.549 -0.4923 -0.0589  0.3406
    1DOPE   C21   22   5.182   3.581   6.528 -0.2245  0.4875  0.1067
    1DOPE   O22   23   5.232   3.493   6.599  0.4802 -0.2149 -0.0410
    1DOPE   C22   24   5.261   3.678   6.430 -1.0662 -0.9311  0.5303
    1DOPE   H2R   25   5.367   3.665   6.460 -0.4926  0.0909 -0.9385
    1DOPE   H2S   26   5.236   3.778   6.472  0.8077 -0.5714  0.8816
    1DOPE    C3   27   4.847   3.628   6.651  0.2030 -0.2064  0.0170
    1DOPE    HX   28   4.861   3.736   6.635  0.3485  0.2386  2.6552
    1DOPE    HY   29   4.795   3.624   6.749  2.2217 -0.9603  1.1179
    1DOPE   O31   30   4.771   3.569   6.548 -0.5204 -0.1525  0.5492
    1DOPE   C31   31   4.706   3.457   6.577 -0.0603  0.7970  0.6704
    1DOPE   O32   32   4.696   3.414   6.690 -0.2804  0.3647  0.1258
    1DOPE   C32   33   4.625   3.402   6.458 -0.1362 -0.5315 -0.0006
    1DOPE   H2X   34   4.521   3.374   6.485 -0.2468 -1.0233 -0.8735
    1DOPE   H2Y   35   4.619   3.483   6.383  0.5714 -0.3149  0.1641
    1DOPE   C23   36   5.229   3.665   6.283  0.5971 -0.2531 -0.2142
    1DOPE   H3R   37   5.219   3.772   6.254  0.4708  0.1754  1.3379
    1DOPE   H3S   38   5.135   3.614   6.255 -0.2259  0.2783  1.4997
    1DOPE   C24   39   5.339   3.598   6.199 -0.2542  0.2204 -0.5718
    1DOPE   H4R   40   5.336   3.487   6.209 -0.2022  0.3856  2.1305
    1DOPE   H4S   41   5.435   3.622   6.250  0.7186 -2.6980 -0.8489
    1DOPE   C25   42   5.331   3.643   6.055  0.0248  0.0484  0.5332
    1DOPE   H5R   43   5.315   3.753   6.045 -0.4376  0.2531  2.8213
    1DOPE   H5S   44   5.233   3.604   6.019 -0.5077  1.2269  0.6528
    1DOPE   C26   45   5.442   3.590   5.965 -0.4887 -0.4726 -0.1868
    1DOPE   H6R   46   5.430   3.480   5.952 -3.1106 -0.1952 -0.6184
    1DOPE   H6S   47   5.543   3.614   6.005 -1.2596  1.8842  0.4773
    1DOPE   C27   48   5.445   3.663   5.825 -0.2515  0.6416 -0.3506
    1DOPE   H7R   49   5.433   3.772   5.843 -1.6810  0.5328 -0.5554
    1DOPE   H7S   50   5.354   3.645   5.765 -0.1574 -0.9815 -0.0561
    1DOPE   C28   51   5.573   3.633   5.739  0.9249  0.5489 -0.8892
    1DOPE   H8R   52   5.559   3.526   5.714  0.0330  0.6829 -0.9852
    1DOPE   H8S   53   5.654   3.643   5.814 -0.1390  1.4605  0.1706
    1DOPE   C29   54   5.595   3.716   5.616  1.1108  0.0017 -0.6812
    1DOPE   H9R   55   5.586   3.822   5.641  1.1445 -0.5196  1.7188
    1DOPE  C210   56   5.637   3.671   5.493  0.3202  0.4995  0.3229
    1DOPE  H10R   57   5.640   3.749   5.416  2.6597 -0.7087 -0.9212
    1DOPE  C211   58   5.673   3.527   5.451 -0.0071  0.5623  0.3441
    1DOPE  H11R   59   5.699   3.466   5.540 -1.8394  0.7133  1.0280
    1DOPE  H11S   60   5.753   3.515   5.375 -1.0590  0.5028 -0.7827
    1DOPE  C212   61   5.559   3.467   5.362 -0.3425  0.4588 -0.6903
    1DOPE  H12R   62   5.541   3.533   5.274 -0.3874 -1.0986 -1.8890
    1DOPE  H12S   63   5.468   3.453   5.425 -0.3812  0.3702 -0.7664
    1DOPE  C213   64   5.591   3.339   5.300  0.3816  0.2312 -0.2415
    1DOPE  H13R   65   5.608   3.253   5.369 -0.2866 -0.2954 -0.7136
    1DOPE  H13S   66   5.681   3.359   5.239 -1.0043  1.9112 -1.8625
    1DOPE  C214   67   5.482   3.295   5.203  0.5002  0.4559 -0.1522
    1DOPE  H14R   68   5.510   3.199   5.156  1.1655  1.3911 -1.7304
    1DOPE  H14S   69   5.456   3.373   5.129 -3.4400 -0.2480  0.3037
    1DOPE  C215   70   5.345   3.254   5.272  0.9534 -0.0928 -0.4660
    1DOPE  H15R   71   5.330   3.309   5.367 -1.8432  1.3505 -1.6331
    1DOPE  H15S   72   5.340   3.144   5.288 -1.8753  0.0538  0.1886
    1DOPE  C216   73   5.230   3.282   5.164  0.2199 -0.4123  0.0532
    1DOPE  H16R   74   5.263   3.226   5.073 -2.5897 -4.1863  1.1113
    1DOPE  H16S   75   5.240   3.389   5.134  0.3587  0.0478  1.6381
    1DOPE  C217   76   5.092   3.247   5.221 -1.2343 -0.4784  0.2372
    1DOPE  H17R   77   5.083   3.293   5.321  0.5925  0.7458 -0.1154
    1DOPE  H17S   78   5.094   3.137   5.239  2.6559 -0.8555 -1.6184
    1DOPE  C218   79   4.975   3.291   5.136 -0.2894  0.4974  0.2106
    1DOPE  H18R   80   4.980   3.399   5.109 -0.4336  0.7510  1.1314
    1DOPE  H18S   81   4.883   3.279   5.198 -0.6639  3.4806  0.4270
    1DOPE  H18T   82   4.967   3.218   5.053 -0.2503  1.7600 -0.9306
    1DOPE   C33   83   4.703   3.280   6.409 -1.0073  0.6588  0.9777
    1DOPE   H3X   84   4.636   3.204   6.363  1.6384 -2.3716  1.6882
    1DOPE   H3Y   85   4.742   3.211   6.487  0.5155  0.2660 -0.0861
    1DOPE   C34   86   4.815   3.323   6.311  0.0111 -0.3399  0.4830
    1DOPE   H4X   87   4.770   3.352   6.214  0.6046  3.1507  1.1016
    1DOPE   H4Y   88   4.868   3.411   6.355 -0.3940 -0.4208  1.1563
    1DOPE   C35   89   4.917   3.210   6.295  0.2437  0.0458 -0.0590
    1DOPE   H5X   90   4.861   3.120   6.264  1.9371 -0.3695 -2.1654
    1DOPE   H5Y   91   4.960   3.195   6.397 -1.3054 -2.3616  0.3242
    1DOPE   C36   92   5.036   3.244   6.211  0.5975  0.3603  0.0417
    1DOPE   H6X   93   5.109   3.162   6.227 -1.9022 -1.7775  1.3339
    1DOPE   H6Y   94   5.077   3.337   6.257  1.2566 -0.2794  0.7608
    1DOPE   C37   95   5.001   3.265   6.060  0.4388  0.2531 -0.2198
    1DOPE   H7X   96   4.948   3.173   6.026  0.5307  0.0267  0.2343
    1DOPE   H7Y   97   4.927   3.347   6.059  0.2522  0.0991  0.3981
    1DOPE   C38   98   5.124   3.299   5.967  0.1861 -0.2428  0.1745
    1DOPE   H8X   99   5.196   3.216   5.953 -0.0725 -0.0176 -3.5039
    1DOPE   H8Y  100   5.167   3.391   6.013  1.4057  0.0658 -1.4846
    1DOPE   C39  101   5.067   3.334   5.825 -0.1536  0.1009 -0.9233
    1DOPE   H9X  102   4.958   3.323   5.811 -0.2016  0.1612 -0.6087
    1DOPE  C310  103   5.138   3.355   5.712 -0.2593 -0.2467 -0.1371
    1DOPE  H10X  104   5.085   3.394   5.624  1.7103  1.3052 -0.7125
    1DOPE  C311  105   5.289   3.348   5.706  0.0491 -0.0299  0.0114
    1DOPE  H11X  106   5.319   3.398   5.611  2.0228  0.9714  1.0948
    1DOPE  H11Y  107   5.353   3.411   5.772  1.4705 -0.0595 -1.2833
    1DOPE  C312  108   5.347   3.210   5.715 -0.0233 -0.4954  0.2455
    1DOPE  H12X  109   5.294   3.151   5.638  1.6773  0.5626 -1.8312
    1DOPE  H12Y  110   5.313   3.160   5.809  0.7527 -0.4317  0.5710
    1DOPE  C313  111   5.497   3.206   5.667 -0.7123  0.2335 -0.9661
    1DOPE  H13X  112   5.511   3.243   5.563 -1.9923  0.3598 -1.1089
    1DOPE  H13Y  113   5.553   3.278   5.731 -2.6516  1.3871 -0.4803
    1DOPE  C314  114   5.560   3.066   5.681  0.2369  0.5251  0.1923
    1DOPE  H14X  115   5.526   3.024   5.778 -0.6995 -0.5200 -0.5541
    1DOPE  H14Y  116   5.671   3.068   5.688  0.3310 -1.5476 -0.0343
    1DOPE  C315  117   5.518   2.968   5.568  0.1084 -0.1659 -0.0628
    1DOPE  H15X  118   5.587   2.989   5.484  1.2930  0.2927  0.9937
    1DOPE  H15Y  119   5.410   2.973   5.542  0.1385  0.1057 -0.1403
    1DOPE  C316  120   5.533   2.820   5.612  0.6821 -0.4511  0.2029
    1DOPE  H16X  121   5.512   2.760   5.522 -1.2671 -0.5841  0.7019
    1DOPE  H16Y  122   5.459   2.794   5.691  1.7073 -1.7722  0.7901
    1DOPE  C317  123   5.664   2.774   5.670 -1.2376  0.1489  0.1702
    1DOPE  H17X  124   5.753   2.806   5.612 -1.9935  1.2528 -0.4254
    1DOPE  H17Y  125   5.675   2.839   5.760  0.6019 -0.4520  0.4293
    1DOPE  C318  126   5.677   2.626   5.709 -0.3008  0.3854 -0.2692
    1DOPE  H18X  127   5.586   2.598   5.766 -2.2313  3.4000 -1.6028
    1DOPE  H18Y  128   5.683   2.554   5.624  0.7317 -0.6275  0.6290
    1DOPE  H18Z  129   5.760   2.606   5.779 -2.2928  1.3715  2.5491
    2DOPE     N  130   5.753   5.907   6.857  0.6967 -0.1271  0.4428
    2DOPE   HN1  131   5.829   5.853   6.811  0.3325  0.0207 -0.3347
    2DOPE   HN2  132   5.795   5.997   6.889 -0.5929  0.0493  1.7686
    2DOPE   HN3  133   5.711   5.847   6.931  0.1301 -3.6337 -2.4245
    2DOPE   C12  134   5.639   5.934   6.767 -0.7383 -0.0540 -0.2303
    2DOPE  H12A  135   5.669   6.002   6.684 -0.8381  0.9476  0.5221
    2DOPE  H12B  136   5.558   5.974   6.833  0.1479 -1.6047  1.9132
    2DOPE   C11  137   5.582   5.792   6.727  0.2206  0.7104  0.1425
    2DOPE  H11A  138   5.657   5.743   6.662 -1.2549 -0.1165 -0.9925
    2DOPE  H11B  139   5.490   5.814   6.668 -0.3473 -0.8697  0.3806
    2DOPE     P  140   5.570   5.565   6.859 -0.2500 -0.3262  0.2655
    2DOPE   O13  141   5.520   5.531   6.991  0.9154 -0.3000 -0.5847
    2DOPE   O14  142   5.713   5.541   6.839 -0.3985 -0.2087  0.2243
    2DOPE   O11  143   5.488   5.499   6.743  0.1634 -0.2455 -0.0002
    2DOPE   O12  144   5.548   5.719   6.844 -0.6843 -0.5398  0.6537
    2DOPE    C1  145   5.396   5.401   6.775  0.3661  0.0982  0.5263
    2DOPE    HA  146   5.307   5.448   6.823  1.5014  3.1062 -0.0640
    2DOPE    HB  147   5.436   5.328   6.848 -2.1632 -1.9550  0.0021
    2DOPE    C2  148   5.356   5.311   6.651 -0.8095 -0.0008  0.3622
    2DOPE    HS  149   5.451   5.269   6.612 -1.2355  1.5066 -2.5815
    2DOPE   O21  150   5.290   5.389   6.550  0.0462 -0.2184  0.5361
    2DOPE   C21  151   5.379   5.472   6.485 -0.0673  0.4259  0.2125
    2DOPE   O22  152   5.500   5.464   6.493  0.3272 -0.0698  0.2083
    2DOPE   C22  153   5.307   5.580   6.399 -0.0126 -0.3675 -0.0352
    2DOPE   H2R  154   5.237   5.630   6.470  0.1679 -0.3813  0.1570
    2DOPE   H2S  155   5.259   5.525   6.316 -1.2091  1.3968 -0.5739
    2DOPE    C3  156   5.257   5.192   6.701 -0.4414 -0.7635 -0.0740
    2DOPE    HX  157   5.165   5.246   6.731  0.3147  0.3185  0.3929
    2DOPE    HY  158   5.301   5.151   6.795 -2.3932  0.2681  1.3456
    2DOPE   O31  159   5.225   5.087   6.607  0.1174  0.1991  0.8284
    2DOPE   C31  160   5.328   5.010   6.561  0.0668  0.1904  0.0021
    2DOPE   O32  161   5.446   5.025   6.585 -0.7113 -0.1382  0.2134
    2DOPE   C32  162   5.265   4.897   6.474  0.7623 -0.0575  0.6171
    2DOPE   H2X  163   5.185   4.844   6.528  0.4835 -0.9415 -0.6111
    2DOPE   H2Y  164   5.218   4.950   6.388 -2.1635 -0.2907  1.9676
    2DOPE   C23  165   5.404   5.692   6.359 -0.6283 -0.0800 -0.3157
    2DOPE   H3R  166   5.488   5.697   6.431 -0.2165 -0.6867 -0.7482
    2DOPE   H3S  167   5.352   5.791   6.354  0.4349  0.4365 -2.1599
    2DOPE   C24  168   5.484   5.670   6.233  0.6046 -0.2275 -0.1654
    2DOPE   H4R  169   5.551   5.583   6.248  0.7755 -0.2541 -1.0371
    2DOPE   H4S  170   5.549   5.760   6.223  0.2301  0.0118 -0.4825
    2DOPE   C25  171   5.394   5.641   6.112  0.4379 -0.4772  0.3517
    2DOPE   H5R  172   5.324   5.728   6.117 -0.0071 -0.7995 -0.1618
    2DOPE   H5S  173   5.346   5.541   6.125 -2.3771  0.7415  0.1070
    2DOPE   C26  174   5.471   5.642   5.978 -0.4220  0.6136 -0.0437
    2DOPE   H6R  175   5.522   5.545   5.960  0.5094  1.6890 -4.1051
    2DOPE   H6S  176   5.554   5.715   5.989  0.7417 -0.5685 -0.7151
    2DOPE   C27  177   5.380   5.670   5.859  1.0646  0.4685  0.2983
    2DOPE   H7R  178   5.442   5.675   5.766 -0.5255 -1.4084 -0.9512
    2DOPE   H7S  179   5.339   5.768   5.888 -0.5751  0.8843 -3.0251
    2DOPE   C28  180   5.261   5.568   5.849 -0.4786  0.3202 -0.2571
    2DOPE   H8R  181   5.181   5.609   5.915  0.9806  1.6157  0.7674
    2DOPE   H8S  182   5.294   5.471   5.893 -0.0001  1.8229  3.0451
    2DOPE   C29  183   5.210   5.565   5.709 -0.1992 -0.1374 -0.5456
    2DOPE   H9R  184   5.189   5.663   5.663  1.7648  0.0388 -1.1836
    2DOPE  C210  185   5.203   5.453   5.639 -0.3851  0.0710 -0.2034
    2DOPE  H10R  186   5.173   5.470   5.534 -1.7938 -0.3452  0.1113
    2DOPE  C211  187   5.238   5.310   5.673 -0.0759 -0.7495 -0.0450
    2DOPE  H11R  188   5.226   5.277   5.778 -0.5215 -2.8637 -0.7189
    2DOPE  H11S  189   5.349   5.307   5.659  0.1244  0.2605  1.1445
    2DOPE  C212  190   5.162   5.206   5.577 -0.6472 -1.0156  0.3949
    2DOPE  H12R  191   5.052   5.217   5.565 -0.4260  0.4953 -0.4874
    2DOPE  H12S  192   5.174   5.110   5.632  2.4965  0.6195  2.8909
    2DOPE  C213  193   5.219   5.201   5.434  0.3519  0.4837  0.4924
    2DOPE  H13R  194   5.312   5.142   5.438 -1.4470 -2.7014 -0.8331
    2DOPE  H13S  195   5.246   5.304   5.402  0.5341  0.5792  0.9481
    2DOPE  C214  196   5.127   5.132   5.329 -0.2542  0.2090 -0.6589
    2DOPE  H14R  197   5.089   5.041   5.381 -0.1795  0.8926  0.6374
    2DOPE  H14S  198   5.186   5.104   5.239  0.5203  1.4874 -0.5700
    2DOPE  C215  199   4.998   5.203   5.300 -0.0819 -0.4793 -0.1656
    2DOPE  H15R  200   5.038   5.306   5.290 -0.2179 -0.1521  2.0400
    2DOPE  H15S  201   4.938   5.205   5.394  1.7088  0.2003  1.0098
    2DOPE  C216  202   4.932   5.141   5.176  0.1453 -0.8858  0.0934
    2DOPE  H16R  203   4.911   5.035   5.200 -1.0445 -1.0530 -1.5253
    2DOPE  H16S  204   4.993   5.163   5.086  0.5412  0.7037  0.7128
    2DOPE  C217  205   4.786   5.201   5.161  0.2169 -0.3962  0.7166
    2DOPE  H17R  206   4.717   5.205   5.248 -1.0672 -2.1947 -0.1599
    2DOPE  H17S  207   4.735   5.138   5.086 -1.5501  0.2956  1.2807
    2DOPE  C218  208   4.788   5.349   5.107 -0.2697 -0.4051 -0.2087
    2DOPE  H18R  209   4.851   5.358   5.017  0.3029 -0.7825  0.1493
    2DOPE  H18S  210   4.819   5.425   5.182 -1.4661 -0.2552  0.1640
    2DOPE  H18T  211   4.689   5.390   5.076  0.2939  0.4954 -0.8534
    2DOPE   C33  212   5.371   4.794   6.424 -0.5019 -0.0204  0.3277
    2DOPE   H3X  213   5.433   4.750   6.506 -0.4245 -0.7913 -0.1387
    2DOPE   H3Y  214   5.440   4.857   6.365 -1.3365  1.1701  0.6010
    2DOPE   C34  215   5.325   4.688   6.322  0.0870  0.5693  0.1075
    2DOPE   H4X  216   5.242   4.732   6.263  0.3859  0.9122 -0.0623
    2DOPE   H4Y  217   5.414   4.676   6.257 -1.6289  0.2790 -2.3290
    2DOPE   C35  218   5.279   4.556   6.387  0.2436 -0.7722  0.0398
    2DOPE   H5X  219   5.191   4.569   6.454  0.8176  1.5610  0.4182
    2DOPE   H5Y  220   5.365   4.513   6.441  1.1216 -0.8128 -1.3422
    2DOPE   C36  221   5.231   4.450   6.278  0.6893 -0.1141 -0.1983
    2DOPE   H6X  222   5.299   4.449   6.190 -0.7664  2.2746 -1.4341
    2DOPE   H6Y  223   5.136   4.496   6.246  0.6479  1.6881  2.2015
    2DOPE   C37  224   5.208   4.303   6.335 -0.7653 -0.8272  0.6927
    2DOPE   H7X  225   5.304   4.251   6.359 -0.3417 -0.4941 -0.2352
    2DOPE   H7Y  226   5.161   4.316   6.435  0.3133 -0.3765  1.1611
    2DOPE   C38  227   5.105   4.217   6.246 -0.7966  0.2030 -0.6658
    2DOPE   H8X  228   5.150   4.219   6.145 -0.1533  0.0355 -0.3921
    2DOPE   H8Y  229   5.017   4.285   6.254  0.6636  2.1353 -0.2074
    2DOPE   C39  230   5.083   4.077   6.306 -0.1757 -0.7576  0.3987
    2DOPE   H9X  231   5.099   4.062   6.413  0.3770 -0.8655  0.3016
    2DOPE  C310  232   5.023   3.980   6.232 -0.2732  0.6674 -0.0029
    2DOPE  H10X  233   5.001   3.883   6.278  1.6550  0.6152  0.9103
    2DOPE  C311  234   4.967   3.999   6.091 -0.2323  0.1347  0.2420
    2DOPE  H11X  235   4.858   3.983   6.078 -0.0111 -1.1363 -0.1882
    2DOPE  H11Y  236   4.976   4.109   6.076  2.4778  0.1407  1.2781
    2DOPE  C312  237   5.040   3.904   5.994  0.1610  0.1393  0.7114
    2DOPE  H12X  238   5.029   3.797   6.022  1.0538 -0.0973  0.2225
    2DOPE  H12Y  239   5.150   3.911   6.007  0.1680  1.4418  0.0722
    2DOPE  C313  240   5.006   3.925   5.841  0.1895 -0.1809  0.0929
    2DOPE  H13X  241   4.901   3.900   5.816  0.5352  0.2889 -1.9956
    2DOPE  H13Y  242   5.013   4.032   5.811 -1.1959  0.1307  0.7954
    2DOPE  C314  243   5.083   3.831   5.754 -0.1016 -0.0123  1.0484
    2DOPE  H14X  244   5.033   3.732   5.760 -2.9237  1.2782  0.4070
    2DOPE  H14Y  245   5.191   3.828   5.779  0.1903 -0.6818 -0.1589
    2DOPE  C315  246   5.092   3.859   5.600  1.1016  0.0465 -1.0245
    2DOPE  H15X  247   5.146   3.955   5.585 -0.5428  1.0484 -0.8478
    2DOPE  H15Y  248   4.990   3.874   5.559 -0.3958 -0.6874  2.1495
    2DOPE  C316  249   5.164   3.761   5.513 -0.7303  0.4511  0.6256
    2DOPE  H16X  250   5.261   3.738   5.561  1.0913  1.3273 -2.3538
    2DOPE  H16Y  251   5.199   3.809   5.419  1.7311  1.4274  1.9482
    2DOPE  C317  252   5.103   3.625   5.469  0.3989 -0.4591  0.2768
    2DOPE  H17X  253   5.184   3.556   5.438 -0.0398  0.0982 -2.3184
    2DOPE  H17Y  254   5.058   3.579   5.560 -1.1026  0.5271  0.0648
    2DOPE  C318  255   5.004   3.641   5.352  0.1475 -0.1324 -0.0194
    2DOPE  H18X  256   5.062   3.675   5.264  1.7544 -2.2016  0.1638
    2DOPE  H18Y  257   4.973   3.541   5.316  0.7880  0.1983 -1.5352
    2DOPE  H18Z  258   4.919   3.711   5.365  0.9518  1.2995 -2.0189
    3DOPE     N  259   3.180   5.497   6.941  0.4081 -0.0072 -0.8368
    3DOPE   HN1  260   3.122   5.429   6.995  2.3082 -1.0039  0.0265
    3DOPE   HN2  261   3.241   5.552   7.004  0.7123 -3.1511  1.8547
    3DOPE   HN3  262   3.123   5.568   6.890  1.5655  1.0505 -0.7081
    3DOPE   C12  263   3.262   5.422   6.854 -0.1065  0.6560  0.3801
    3DOPE  H12A  264   3.309   5.499   6.789 -1.9294  1.1062 -0.4520
    3DOPE  H12B  265   3.200   5.359   6.787 -0.0661  1.9005 -0.8656
    3DOPE   C11  266   3.350   5.337   6.947 -0.8525  0.7464 -0.4262
    3DOPE  H11A  267   3.408   5.397   7.020 -1.9017  1.5583 -0.2419
    3DOPE  H11B  268   3.428   5.294   6.880 -0.2643  1.7369 -0.3892
    3DOPE     P  269   3.361   5.098   7.063 -0.1393 -0.6287 -0.2356
    3DOPE   O13  270   3.275   5.019   7.154 -0.5210 -0.2339 -0.3593
    3DOPE   O14  271   3.497   5.131   7.104  0.3534  0.4028 -0.1494
    3DOPE   O11  272   3.369   5.015   6.927  0.3665 -0.9054 -0.1389
    3DOPE   O12  273   3.280   5.231   7.014 -0.1295  0.4674  0.0919
    3DOPE    C1  274   3.278   5.011   6.821 -0.0016 -0.9497  0.2537
    3DOPE    HA  275   3.251   5.113   6.787  2.6458 -0.4117 -0.4476
    3DOPE    HB  276   3.185   4.961   6.857  0.6740 -1.9982  0.5937
    3DOPE    C2  277   3.338   4.945   6.689 -0.9187  0.2793 -0.2425
    3DOPE    HS  278   3.267   4.958   6.604  0.3031  0.7106 -1.2301
    3DOPE   O21  279   3.374   4.805   6.703 -0.1241 -0.7272  0.2863
    3DOPE   C21  280   3.258   4.733   6.716  0.5215 -0.3365  0.0427
    3DOPE   O22  281   3.144   4.777   6.705 -0.2705  0.2803 -0.1963
    3DOPE   C22  282   3.300   4.589   6.752  0.1043 -0.0702  0.2608
    3DOPE   H2R  283   3.210   4.534   6.788  0.0323  0.3499  0.7269
    3DOPE   H2S  284   3.377   4.599   6.830 -0.5442  1.5595  0.7184
    3DOPE    C3  285   3.467   5.014   6.653 -0.1989  0.4745 -0.1388
    3DOPE    HX  286   3.538   4.994   6.736  0.1051 -0.3440 -0.5830
    3DOPE    HY  287   3.441   5.121   6.659 -1.5583  0.0973  1.9766
    3DOPE   O31  288   3.524   4.980   6.521 -0.6375 -0.6603 -0.4784
    3DOPE   C31  289   3.609   4.880   6.523  0.2360 -0.1511 -0.4719
    3DOPE   O32  290   3.658   4.823   6.618 -0.2229  0.8922  0.2286
    3DOPE   C32  291   3.652   4.858   6.374  0.1072  0.3231 -0.1274
    3DOPE   H2X  292   3.685   4.950   6.321 -0.9873  0.0435 -1.3607
    3DOPE   H2Y  293   3.746   4.800   6.379  0.6052  1.0747 -0.6888
    3DOPE   C23  294   3.359   4.526   6.621 -0.1753 -0.3339  0.3473
    3DOPE   H3R  295   3.365   4.415   6.632 -2.2546 -0.4237  0.8498
    3DOPE   H3S  296   3.458   4.574   6.606  0.3633 -1.6947 -0.7331
    3DOPE   C24  297   3.269   4.559   6.496  0.0363  0.0059  0.1905
    3DOPE   H4R  298   3.280   4.666   6.468  0.7927 -0.4088 -1.2067
    3DOPE   H4S  299   3.165   4.540   6.530 -0.0421 -2.7471 -1.3343
    3DOPE   C25  300   3.285   4.465   6.380  0.6836  0.3179 -0.8792
    3DOPE   H5R  301   3.245   4.365   6.405  1.1635 -0.0268 -1.4481
    3DOPE   H5S  302   3.391   4.451   6.349  0.8420  0.8113 -0.5750
    3DOPE   C26  303   3.197   4.517   6.264  0.0773 -0.2302  0.4715
    3DOPE   H6R  304   3.223   4.618   6.225  1.2598 -1.0746 -1.0378
    3DOPE   H6S  305   3.095   4.523   6.308  0.1883  0.1433  0.6816
    3DOPE   C27  306   3.186   4.427   6.143 -0.1794  0.1749  0.4714
    3DOPE   H7R  307   3.104   4.468   6.080  0.7327 -0.4578 -1.1803
    3DOPE   H7S  308   3.158   4.326   6.180 -0.1108 -0.2914 -0.7229
    3DOPE   C28  309   3.318   4.419   6.056 -0.0254 -0.0703 -0.5599
    3DOPE   H8R  310   3.310   4.334   5.986  0.7793 -1.2540  0.7329
    3DOPE   H8S  311   3.393   4.376   6.126 -0.7376 -1.3927 -0.5843
    3DOPE   C29  312   3.343   4.551   5.995 -0.2795  0.6024  0.4362
    3DOPE   H9R  313   3.424   4.604   6.047  0.7700  0.2422 -0.8008
    3DOPE  C210  314   3.287   4.579   5.873 -0.0395  0.4828  0.1347
    3DOPE  H10R  315   3.301   4.675   5.821  3.3207 -0.6521 -1.3408
    3DOPE  C211  316   3.179   4.490   5.816  0.1471 -0.2405 -0.1637
    3DOPE  H11R  317   3.086   4.526   5.864  0.0487 -0.5165 -0.1462
    3DOPE  H11S  318   3.186   4.382   5.838  0.8518  0.0434  1.1081
    3DOPE  C212  319   3.168   4.504   5.663  0.1615  0.0350 -0.1900
    3DOPE  H12R  320   3.068   4.460   5.639 -0.8776  2.7683 -1.3578
    3DOPE  H12S  321   3.254   4.452   5.615  1.0725  0.4652  0.9425
    3DOPE  C213  322   3.175   4.640   5.589  0.0315 -0.4096 -0.2201
    3DOPE  H13R  323   3.277   4.681   5.610  0.1665  0.3447 -2.1208
    3DOPE  H13S  324   3.091   4.700   5.631 -1.0783 -0.5452 -2.1358
    3DOPE  C214  325   3.162   4.632   5.440  0.6635  0.4177 -0.4610
    3DOPE  H14R  326   3.059   4.600   5.414 -0.1845  2.8546 -0.2849
    3DOPE  H14S  327   3.232   4.555   5.402  1.1116  1.2921 -1.4339
    3DOPE  C215  328   3.192   4.761   5.363 -0.9280  0.5017  0.4360
    3DOPE  H15R  329   3.292   4.791   5.402  0.9945 -2.2464 -2.0295
    3DOPE  H15S  330   3.122   4.843   5.389 -0.7196  0.0907  2.4263
    3DOPE  C216  331   3.198   4.729   5.214  0.3546  0.9272  0.1398
    3DOPE  H16R  332   3.266   4.647   5.182 -1.6355 -1.2460  1.2049
    3DOPE  H16S  333   3.240   4.813   5.154  1.6819 -0.6792 -1.2611
    3DOPE  C217  334   3.059   4.689   5.148 -1.2625  0.3129  0.4572
    3DOPE  H17R  335   2.985   4.763   5.185 -2.2242 -0.8320  0.8821
    3DOPE  H17S  336   3.009   4.602   5.195 -0.2040 -1.1181 -0.9507
    3DOPE  C218  337   3.061   4.667   4.995 -0.5431  0.1769 -0.5176
    3DOPE  H18R  338   3.136   4.586   4.978 -2.5663 -2.0462  0.4869
    3DOPE  H18S  339   3.081   4.761   4.940  0.8921  0.1360 -0.1165
    3DOPE  H18T  340   2.960   4.628   4.972 -0.0222 -2.4866  1.2214
    3DOPE   C33  341   3.552   4.777   6.293  0.6236 -0.1760  0.0311
    3DOPE   H3X  342   3.469   4.734   6.353 -1.3319  1.7524 -1.1276
    3DOPE   H3Y  343   3.595   4.687   6.244 -1.0656 -1.0993  0.1576
    3DOPE   C34  344   3.481   4.868   6.185 -0.0941  0.5561 -0.6216
    3DOPE   H4X  345   3.395   4.818   6.137 -0.6389  3.2724 -2.7834
    3DOPE   H4Y  346   3.435   4.959   6.230 -2.6303 -0.7148 -0.4848
    3DOPE   C35  347   3.574   4.897   6.066 -0.6918  0.2983  0.1715
    3DOPE   H5X  348   3.613   4.803   6.024 -1.0887  0.3666 -0.3612
    3DOPE   H5Y  349   3.665   4.948   6.104  0.0423  0.2742 -1.5094
    3DOPE   C36  350   3.504   4.984   5.967  0.0938 -0.1183  0.5362
    3DOPE   H6X  351   3.474   5.081   6.011 -0.4583  0.9563 -2.0244
    3DOPE   H6Y  352   3.404   4.938   5.952  0.3633 -0.3128 -0.7679
    3DOPE   C37  353   3.568   5.009   5.832  0.1340 -0.1587  0.2891
    3DOPE   H7X  354   3.512   5.082   5.770  1.1814 -1.7012 -2.6591
    3DOPE   H7Y  355   3.673   5.044   5.840  0.3547 -0.6835 -0.1878
    3DOPE   C38  356   3.576   4.879   5.746  0.3476 -0.1846 -0.1817
    3DOPE   H8X  357   3.470   4.857   5.720  0.6095  0.2910 -1.7578
    3DOPE   H8Y  358   3.601   4.798   5.818 -0.3043 -0.6270 -0.4416
    3DOPE   C39  359   3.665   4.866   5.621 -0.8559  0.1095 -0.2226
    3DOPE   H9X  360   3.769   4.845   5.649 -1.7297  0.2359  3.7748
    3DOPE  C310  361   3.638   4.924   5.498 -0.1913 -0.0479  0.6288
    3DOPE  H10X  362   3.698   4.903   5.408 -0.9017 -2.7259  0.7117
    3DOPE  C311  363   3.505   4.995   5.465  0.4616  0.6535 -0.3285
    3DOPE  H11X  364   3.444   4.932   5.397  2.3841 -0.0328 -1.5060
    3DOPE  H11Y  365   3.435   5.007   5.550 -0.2087 -1.2759 -0.5517
    3DOPE  C312  366   3.533   5.121   5.379  0.5447  0.4858  0.4926
    3DOPE  H12X  367   3.575   5.102   5.278  0.3326 -0.1778  0.5232
    3DOPE  H12Y  368   3.608   5.176   5.440  1.4579  1.0376 -1.0782
    3DOPE  C313  369   3.410   5.218   5.369  0.1104  0.3868  0.7038
    3DOPE  H13X  370   3.340   5.166   5.301  0.4942  0.2293  0.4248
    3DOPE  H13Y  371   3.364   5.227   5.469 -1.2972  0.0660  0.0972
    3DOPE  C314  372   3.444   5.348   5.298  0.5186 -0.5731 -0.0140
    3DOPE  H14X  373   3.525   5.326   5.224  0.0666  0.6960 -0.9265
    3DOPE  H14Y  374   3.481   5.418   5.375 -0.9241  0.7337 -0.4532
    3DOPE  C315  375   3.318   5.407   5.229  0.2244  0.2647 -0.3947
    3DOPE  H15X  376   3.350   5.510   5.201 -1.1860  0.9954  0.5745
    3DOPE  H15Y  377   3.236   5.431   5.300 -0.6691  1.7126 -1.8512
    3DOPE  C316  378   3.268   5.322   5.107  0.0776 -0.4637  0.5373
    3DOPE  H16X  379   3.213   5.229   5.129 -1.0925 -0.2320 -1.1506
    3DOPE  H16Y  380   3.359   5.292   5.050  0.0726  2.2329 -1.1199
    3DOPE  C317  381   3.181   5.418   5.018  0.0579 -0.2379  0.0299
    3DOPE  H17X  382   3.217   5.521   5.039  1.2122 -0.6650  0.2101
    3DOPE  H17Y  383   3.204   5.410   4.910  0.6441  2.4595 -0.1282
    3DOPE  C318  384   3.031   5.411   5.044 -0.2333  0.6869 -0.7740
    3DOPE  H18X  385   2.992   5.309   5.025 -1.8356  0.5352  2.5701
    3DOPE  H18Y  386   3.004   5.437   5.149  0.7252  1.4622 -0.7074
    3DOPE  H18Z  387   2.979   5.488   4.983  1.3981  2.2642 -0.2791
    4DOPE     N  388   5.798   1.846   7.255 -0.4299 -0.0490  0.2343
    4DOPE   HN1  389   5.779   1.816   7.353  1.3834  1.4969  1.1263
    4DOPE   HN2  390   5.737   1.927   7.234 -0.6936  0.0989  1.4897
    4DOPE   HN3  391   5.792   1.779   7.175  0.4431 -0.6428  0.6485
    4DOPE   C12  392   5.942   1.888   7.261  0.4543  0.4476  0.2221
    4DOPE  H12A  393   5.987   1.793   7.225  0.9487  0.3449  1.0866
    4DOPE  H12B  394   5.974   1.912   7.364  0.3766  1.6940 -0.0319
    4DOPE   C11  395   5.979   2.004   7.165 -0.5245 -0.1296  0.3886
    4DOPE  H11A  396   6.087   1.997   7.139 -0.5547  0.1240  0.1876
    4DOPE  H11B  397   5.969   2.102   7.217  0.5642 -0.6797  1.7025
    4DOPE     P  398   5.864   2.118   6.948  0.0585  0.1963 -0.0257
    4DOPE   O13  399   5.986   2.198   6.915 -0.2544 -0.0686 -0.8194
    4DOPE   O14  400   5.751   2.183   7.013  0.2713 -0.5396 -0.8127
    4DOPE   O11  401   5.821   2.046   6.816 -0.0101 -0.2705 -0.1416
    4DOPE   O12  402   5.909   1.996   7.038  0.2312  0.3526 -0.5990
    4DOPE    C1  403   5.728   1.940   6.818 -0.3691  0.4163 -0.3159
    4DOPE    HA  404   5.699   1.903   6.919 -0.1092 -0.2291 -0.4656
    4DOPE    HB  405   5.776   1.847   6.779 -0.3764 -0.3679  1.4684
    4DOPE    C2  406   5.600   1.971   6.730  0.0845  0.3434 -0.1084
    4DOPE    HS  407   5.540   1.877   6.732  1.5831 -0.6894 -1.4822
    4DOPE   O21  408   5.641   2.027   6.599 -0.1385  0.2312 -0.1674
    4DOPE   C21  409   5.671   1.929   6.518  0.8929 -0.4456 -0.2476
    4DOPE   O22  410   5.648   1.815   6.545 -0.4905  0.0518 -0.4831
    4DOPE   C22  411   5.762   1.985   6.414 -0.0478  0.0363 -0.5185
    4DOPE   H2R  412   5.854   2.032   6.455 -0.9361 -0.9238  2.8738
    4DOPE   H2S  413   5.696   2.063   6.368 -2.9548 -2.0997 -0.3022
    4DOPE    C3  414   5.509   2.080   6.787 -0.4269 -0.2443 -0.0493
    4DOPE    HX  415   5.568   2.173   6.776 -0.2792 -0.3223  0.0807
    4DOPE    HY  416   5.491   2.070   6.896  0.7395  0.7469  0.2532
    4DOPE   O31  417   5.385   2.079   6.710  0.4198  0.4066 -0.1928
    4DOPE   C31  418   5.372   2.165   6.607  0.0736 -0.6005 -0.0796
    4DOPE   O32  419   5.460   2.237   6.567  0.3173 -0.5776  0.0388
    4DOPE   C32  420   5.230   2.154   6.560 -0.2780 -0.0609 -0.7594
    4DOPE   H2X  421   5.167   2.189   6.644 -0.3788  3.6320 -2.1720
    4DOPE   H2Y  422   5.206   2.226   6.479  0.7820 -0.6167 -1.6024
    4DOPE   C23  423   5.792   1.879   6.304  0.4159 -0.3423  0.3344
    4DOPE   H3R  424   5.697   1.838   6.263  0.1821 -1.7375  2.1257
    4DOPE   H3S  425   5.852   1.794   6.344 -1.1900 -1.5787  0.2342
    4DOPE   C24  426   5.865   1.929   6.181  0.1755  0.0980 -0.1330
    4DOPE   H4R  427   5.882   1.834   6.127 -4.6895 -1.8103  1.1393
    4DOPE   H4S  428   5.956   1.985   6.211  0.5547 -1.1037  1.0731
    4DOPE   C25  429   5.780   2.028   6.100 -0.3027 -0.1190 -0.4700
    4DOPE   H5R  430   5.757   2.117   6.161 -5.1918 -1.1439 -0.4008
    4DOPE   H5S  431   5.677   1.987   6.090 -0.7495  0.9887 -0.4950
    4DOPE   C26  432   5.827   2.039   5.954 -0.0578 -0.0834 -0.3962
    4DOPE   H6R  433   5.858   1.937   5.920  1.8716  0.6557 -1.0249
    4DOPE   H6S  434   5.923   2.096   5.956 -0.4719  0.6168 -0.4483
    4DOPE   C27  435   5.728   2.123   5.871  0.7471 -0.9984  0.1323
    4DOPE   H7R  436   5.632   2.068   5.868 -1.3654  2.4227 -0.6510
    4DOPE   H7S  437   5.767   2.122   5.767 -0.8304 -0.4482 -0.4963
    4DOPE   C28  438   5.702   2.274   5.897 -0.1109  0.0938  0.3996
    4DOPE   H8R  439   5.626   2.289   5.977 -1.4103  0.8961 -0.9341
    4DOPE   H8S  440   5.658   2.323   5.807  3.2391  0.1536 -1.3358
    4DOPE   C29  441   5.831   2.349   5.917  0.0825  0.8041 -0.0146
    4DOPE   H9R  442   5.915   2.341   5.846 -0.9830 -0.2536 -1.2186
    4DOPE  C210  443   5.859   2.421   6.029  0.5709  0.8198 -0.0405
    4DOPE  H10R  444   5.959   2.467   6.030  0.8017  0.3302  0.6268
    4DOPE  C211  445   5.767   2.431   6.151 -0.6182 -0.7372 -0.1395
    4DOPE  H11R  446   5.820   2.468   6.241  0.7241 -0.6557 -0.9517
    4DOPE  H11S  447   5.724   2.330   6.174 -0.5798 -1.2466 -2.1420
    4DOPE  C212  448   5.642   2.527   6.140 -0.1582  0.0142 -0.5462
    4DOPE  H12R  449   5.579   2.508   6.230 -0.0317  0.5084 -0.3508
    4DOPE  H12S  450   5.586   2.511   6.046 -1.4503  1.3289 -0.0358
    4DOPE  C213  451   5.679   2.681   6.157  0.0413  0.1386  0.1261
    4DOPE  H13R  452   5.768   2.700   6.093 -0.7659 -1.4033 -1.5649
    4DOPE  H13S  453   5.703   2.692   6.264  0.0711 -1.5569  0.3211
    4DOPE  C214  454   5.572   2.780   6.117  0.1811 -0.7275  0.1971
    4DOPE  H14R  455   5.478   2.772   6.177 -1.4709 -1.3335 -2.2969
    4DOPE  H14S  456   5.524   2.761   6.019 -0.0402  0.4962  0.0495
    4DOPE  C215  457   5.622   2.924   6.119  0.5744 -0.4129  0.3711
    4DOPE  H15R  458   5.714   2.926   6.057 -0.8889 -0.9740 -1.9140
    4DOPE  H15S  459   5.660   2.960   6.218  0.2857  3.4873 -0.7503
    4DOPE  C216  460   5.531   3.036   6.068  0.8205 -0.2991 -0.1476
    4DOPE  H16R  461   5.464   2.991   5.992 -2.2900  1.7781  1.1494
    4DOPE  H16S  462   5.600   3.117   6.036  0.3744  0.4149  0.6478
    4DOPE  C217  463   5.450   3.108   6.180 -0.4131  0.5802  0.6359
    4DOPE  H17R  464   5.373   3.033   6.207  0.3090 -1.9545 -3.3669
    4DOPE  H17S  465   5.395   3.193   6.135 -1.2555 -0.2399  0.0663
    4DOPE  C218  466   5.525   3.162   6.305  0.3678  0.3429 -0.9080
    4DOPE  H18R  467   5.455   3.205   6.379 -0.9258 -2.2363 -0.5368
    4DOPE  H18S  468   5.599   3.240   6.279  0.5335  0.9065  1.1033
    4DOPE  H18T  469   5.570   3.078   6.363  1.7920  3.8763  3.6991
    4DOPE   C33  470   5.195   2.021   6.499 -0.3589  0.1108  0.2022
    4DOPE   H3X  471   5.087   2.020   6.472  0.1057 -3.1992 -2.2195
    4DOPE   H3Y  472   5.216   1.941   6.572 -0.4268 -0.8112 -0.7630
    4DOPE   C34  473   5.269   1.996   6.367  0.0928 -0.3108  0.1505
    4DOPE   H4X  474   5.240   2.067   6.286  1.0868  3.8142  3.0752
    4DOPE   H4Y  475   5.378   2.017   6.370  0.3291 -1.4920  0.3367
    4DOPE   C35  476   5.238   1.856   6.316 -0.0787  0.0627 -0.0298
    4DOPE   H5X  477   5.130   1.842   6.340  0.3855  0.5015  2.6056
    4DOPE   H5Y  478   5.290   1.794   6.392  1.8346  0.7520 -0.7191
    4DOPE   C36  479   5.288   1.806   6.179  0.3325 -0.5794  0.3071
    4DOPE   H6X  480   5.223   1.858   6.105  0.1498  1.6693  1.9408
    4DOPE   H6Y  481   5.270   1.696   6.174 -0.9116 -0.4821  1.8715
    4DOPE   C37  482   5.434   1.838   6.153 -0.1878 -0.0388 -0.8271
    4DOPE   H7X  483   5.459   1.946   6.159 -0.9895  0.1011  0.2377
    4DOPE   H7Y  484   5.493   1.773   6.222 -1.2610 -0.7741 -0.5822
    4DOPE   C38  485   5.472   1.786   6.011  0.1488 -0.4928  0.1553
    4DOPE   H8X  486   5.442   1.681   5.990 -0.8440 -0.0416 -0.7347
    4DOPE   H8Y  487   5.583   1.795   6.005  0.2194  0.7570  2.5128
    4DOPE   C39  488   5.399   1.876   5.908  0.8257 -0.0301 -0.0586
    4DOPE   H9X  489   5.432   1.980   5.913 -2.1833  0.9837  1.2832
    4DOPE  C310  490   5.304   1.840   5.815  0.0798  0.0943 -0.5042
    4DOPE  H10X  491   5.263   1.919   5.750 -0.4853 -0.5645 -0.9596
    4DOPE  C311  492   5.249   1.707   5.781 -0.0012  0.0752  0.5362
    4DOPE  H11X  493   5.267   1.639   5.867  3.5785  1.9487  1.4557
    4DOPE  H11Y  494   5.139   1.700   5.768  0.1894  0.3121 -1.4851
    4DOPE  C312  495   5.314   1.630   5.656 -0.7316  0.1986  0.5671
    4DOPE  H12X  496   5.242   1.554   5.622  0.9593 -1.7520  1.1428
    4DOPE  H12Y  497   5.404   1.581   5.700 -2.1571 -1.8842  1.2862
    4DOPE  C313  498   5.353   1.706   5.523  0.3696 -0.1387 -0.1519
    4DOPE  H13X  499   5.451   1.749   5.555  0.3181 -0.4360  0.4383
    4DOPE  H13Y  500   5.371   1.632   5.442 -0.5446 -2.8167  1.9333
    4DOPE  C314  501   5.247   1.807   5.489  0.1320 -0.3700  0.4314
    4DOPE  H14X  502   5.288   1.881   5.416 -1.9995 -0.7066 -1.1930
    4DOPE  H14Y  503   5.220   1.865   5.580  3.9458 -0.1379  1.5868
    4DOPE  C315  504   5.117   1.746   5.431  0.2244  0.7217  0.4297
    4DOPE  H15X  505   5.091   1.662   5.500 -1.9674  0.3590 -0.7492
    4DOPE  H15Y  506   5.135   1.699   5.332  1.2227  1.8687  0.0383
    4DOPE  C316  507   4.989   1.835   5.411 -0.1072  1.0579 -0.5966
    4DOPE  H16X  508   5.019   1.925   5.354 -0.9209  0.1102 -2.6119
    4DOPE  H16Y  509   4.959   1.864   5.514 -0.2393  2.0472 -0.9026
    4DOPE  C317  510   4.863   1.764   5.340 -0.6076 -0.8111  0.1323
    4DOPE  H17X  511   4.889   1.740   5.235  1.2457 -0.3773  0.4568
    4DOPE  H17Y  512   4.846   1.670   5.397  0.6759  0.1684  2.2650
    4DOPE  C318  513   4.736   1.862   5.333  0.2945  0.1470  0.0038
    4DOPE  H18X  514   4.768   1.940   5.261 -2.1911  0.2429 -1.1041
    4DOPE  H18Y  515   4.650   1.809   5.285  0.0114 -0.3478  1.0208
    4DOPE  H18Z  516   4.711   1.915   5.427 -0.1767  0.9721 -0.5828
    5DOPE     N  517   3.440   4.080   7.328  0.2190  0.5629 -0.4718
    5DOPE   HN1  518   3.481   3.984   7.323  2.2392  1.3497 -0.1268
    5DOPE   HN2  519   3.361   4.086   7.395  1.0427  0.3647  0.5608
    5DOPE   HN3  520   3.401   4.113   7.238  2.8349 -0.4005 -2.0612
    5DOPE   C12  521   3.561   4.165   7.367  0.3334 -0.1647  0.0011
    5DOPE  H12A  522   3.628   4.140   7.281 -1.0441  0.9491 -1.4604
    5DOPE  H12B  523   3.594   4.128   7.466  2.9479 -1.0462 -1.1134
    5DOPE   C11  524   3.520   4.310   7.357  0.4411  0.2171 -0.2159
    5DOPE  H11A  525   3.523   4.346   7.252  0.9844  0.0312 -0.2687
    5DOPE  H11B  526   3.602   4.366   7.409  0.4951  0.9779 -1.0920
    5DOPE     P  527   3.337   4.497   7.382 -0.4098 -0.1314 -0.0081
    5DOPE   O13  528   3.451   4.591   7.364  0.5482  0.1122 -0.5288
    5DOPE   O14  529   3.241   4.531   7.491 -0.0928 -0.0905  0.1301
    5DOPE   O11  530   3.258   4.482   7.246 -0.4669 -0.1907  0.2550
    5DOPE   O12  531   3.395   4.353   7.411 -0.4460  0.0353 -0.2178
    5DOPE    C1  532   3.177   4.375   7.212 -0.3658  0.2923  0.2667
    5DOPE    HA  533   3.084   4.391   7.270 -1.0928 -1.6975 -0.2406
    5DOPE    HB  534   3.214   4.279   7.255  0.3578 -0.1300 -1.2312
    5DOPE    C2  535   3.163   4.358   7.059  0.4268  0.3372  0.0545
    5DOPE    HS  536   3.142   4.250   7.044 -0.7395  0.2931  1.6517
    5DOPE   O21  537   3.290   4.400   7.001  0.0257 -0.3587 -0.3835
    5DOPE   C21  538   3.385   4.314   7.026  0.1378 -0.6122 -0.0448
    5DOPE   O22  539   3.370   4.206   7.077 -0.3019  0.1001  0.4765
    5DOPE   C22  540   3.510   4.372   6.968  1.2687 -0.0627 -0.3797
    5DOPE   H2R  541   3.533   4.468   7.020 -1.0721 -0.1193  0.9419
    5DOPE   H2S  542   3.475   4.398   6.866 -2.4518  3.2733  1.4618
    5DOPE    C3  543   3.037   4.441   7.002  0.1577  0.0218  0.8361
    5DOPE    HX  544   3.058   4.550   7.010 -1.3348  0.6161 -2.0399
    5DOPE    HY  545   2.944   4.436   7.063 -0.3599  1.8757  0.2837
    5DOPE   O31  546   3.035   4.415   6.863  0.2704  0.2434 -0.0464
    5DOPE   C31  547   2.919   4.359   6.816  0.3873 -0.3696 -0.1139
    5DOPE   O32  548   2.821   4.326   6.876 -0.1007  0.0333 -0.1789
    5DOPE   C32  549   2.936   4.335   6.672 -0.4243 -0.1570  0.8505
    5DOPE   H2X  550   2.993   4.411   6.614 -0.9783 -0.4333 -0.0877
    5DOPE   H2Y  551   3.002   4.247   6.655  0.9090  1.2040 -1.7150
    5DOPE   C23  552   3.630   4.277   6.966  0.8979 -0.3706 -0.2679
    5DOPE   H3R  553   3.583   4.181   6.935 -0.5162  0.1494  0.1919
    5DOPE   H3S  554   3.653   4.284   7.074 -1.2109  0.3295  0.1841
    5DOPE   C24  555   3.746   4.320   6.879 -0.1088  0.0747  0.5851
    5DOPE   H4R  556   3.821   4.239   6.894 -0.8974 -0.8242 -0.1556
    5DOPE   H4S  557   3.784   4.418   6.912  0.7079 -0.4277  1.1582
    5DOPE   C25  558   3.710   4.329   6.725  0.5263  0.0568 -0.0565
    5DOPE   H5R  559   3.645   4.416   6.702 -2.0224 -1.9209 -0.8392
    5DOPE   H5S  560   3.652   4.239   6.697  1.9870 -1.1222  0.5604
    5DOPE   C26  561   3.832   4.340   6.639  0.6252 -0.1943  0.5372
    5DOPE   H6R  562   3.897   4.258   6.677  0.2018 -0.3975  0.8348
    5DOPE   H6S  563   3.880   4.440   6.647  1.6388 -0.5564 -0.6239
    5DOPE   C27  564   3.817   4.298   6.487 -0.4583  0.5435 -0.0366
    5DOPE   H7R  565   3.827   4.187   6.487 -2.5233  0.2698 -2.7419
    5DOPE   H7S  566   3.907   4.333   6.431 -1.4574  0.8105 -1.5220
    5DOPE   C28  567   3.688   4.331   6.399  0.2490  0.0697 -0.5398
    5DOPE   H8R  568   3.641   4.419   6.447  1.1523  0.5379 -0.4945
    5DOPE   H8S  569   3.617   4.246   6.407 -1.5659  1.6827  1.8664
    5DOPE   C29  570   3.720   4.378   6.259 -0.6246 -0.3289  0.4765
    5DOPE   H9R  571   3.772   4.474   6.243 -0.0215 -1.1598 -3.2781
    5DOPE  C210  572   3.683   4.306   6.147  0.6383  0.2386 -0.4044
    5DOPE  H10R  573   3.704   4.342   6.046 -1.2614  0.4776 -0.7562
    5DOPE  C211  574   3.629   4.161   6.148 -0.5484 -0.1943  0.1910
    5DOPE  H11R  575   3.522   4.151   6.176 -0.2671  0.0411  1.4238
    5DOPE  H11S  576   3.696   4.114   6.223  1.9596 -0.3605 -2.0266
    5DOPE  C212  577   3.657   4.080   6.022  0.4500 -0.6337 -0.4529
    5DOPE  H12R  578   3.652   3.972   6.044 -0.5919 -0.4413  0.3295
    5DOPE  H12S  579   3.757   4.099   5.977  0.4248  2.2692  0.4931
    5DOPE  C213  580   3.551   4.114   5.922  0.5745  0.8029  1.1300
    5DOPE  H13R  581   3.551   4.224   5.903  0.4850  0.4285 -1.2207
    5DOPE  H13S  582   3.449   4.085   5.955 -0.9561  2.3838 -1.8424
    5DOPE  C214  583   3.583   4.046   5.784  0.3747 -0.1180 -0.2106
    5DOPE  H14R  584   3.581   3.935   5.796 -0.8457 -0.2236 -1.0776
    5DOPE  H14S  585   3.679   4.075   5.736  1.1703 -0.3472  1.2061
    5DOPE  C215  586   3.476   4.079   5.682 -0.1837  0.0048 -0.0272
    5DOPE  H15R  587   3.375   4.054   5.720  1.2953 -2.1591  2.8315
    5DOPE  H15S  588   3.494   4.020   5.590  0.0723  1.1515 -0.7358
    5DOPE  C216  589   3.486   4.220   5.631 -0.1722 -0.1214 -0.7965
    5DOPE  H16R  590   3.592   4.251   5.634  0.2122 -0.8929 -3.4909
    5DOPE  H16S  591   3.434   4.289   5.701  3.1990  1.1661  0.6371
    5DOPE  C217  592   3.442   4.236   5.486 -0.9935 -0.3810 -0.3130
    5DOPE  H17R  593   3.406   4.340   5.472 -2.5904 -0.8859 -0.0707
    5DOPE  H17S  594   3.356   4.167   5.479 -0.8877 -0.5886  0.3869
    5DOPE  C218  595   3.540   4.194   5.373  0.4458 -0.1574 -0.3910
    5DOPE  H18R  596   3.479   4.202   5.280  1.1784  1.2152 -0.7852
    5DOPE  H18S  597   3.575   4.092   5.398  1.1202  0.2688  0.4747
    5DOPE  H18T  598   3.626   4.264   5.366 -0.1320  0.7773  1.2370
    5DOPE   C33  599   2.800   4.323   6.596  0.0226 -0.5023 -0.2864
    5DOPE   H3X  600   2.738   4.413   6.613 -2.9229 -2.6000  0.7590
    5DOPE   H3Y  601   2.753   4.233   6.640  2.4049 -1.8778 -0.3293
    5DOPE   C34  602   2.805   4.324   6.442 -0.0507  0.1089 -1.0003
    5DOPE   H4X  603   2.702   4.328   6.401 -1.0161  1.2701  1.3666
    5DOPE   H4Y  604   2.859   4.419   6.421  0.2339  0.0082 -0.7245
    5DOPE   C35  605   2.889   4.219   6.364  0.0955 -0.0260  0.1594
    5DOPE   H5X  606   2.852   4.116   6.383  1.9004 -0.3553  2.2538
    5DOPE   H5Y  607   2.994   4.227   6.397  0.1322  0.8852 -0.1393
    5DOPE   C36  608   2.894   4.239   6.207  0.2786  0.5558 -0.4376
    5DOPE   H6X  609   2.939   4.339   6.188  1.5928  0.2402  0.8321
    5DOPE   H6Y  610   2.785   4.242   6.186  0.2540  0.5290 -0.3142
    5DOPE   C37  611   2.968   4.125   6.147 -0.2677  0.4840 -0.1785
    5DOPE   H7X  612   3.069   4.110   6.192 -1.3628 -1.2207  1.9416
    5DOPE   H7Y  613   2.910   4.031   6.159 -0.9520  0.9913  0.5578
    5DOPE   C38  614   2.982   4.135   5.991 -0.9046  0.0497  0.6237
    5DOPE   H8X  615   3.071   4.076   5.961 -1.4532 -0.1866 -0.6140
    5DOPE   H8Y  616   3.006   4.240   5.964 -1.8082 -0.2018 -1.3545
    5DOPE   C39  617   2.850   4.111   5.924 -0.4897 -0.0484 -0.3751
    5DOPE   H9X  618   2.763   4.151   5.979 -1.8025 -1.0096 -1.6657
    5DOPE  C310  619   2.828   4.034   5.811  0.3788  0.3114 -0.2857
    5DOPE  H10X  620   2.732   4.037   5.756 -1.2945  1.9177  2.5175
    5DOPE  C311  621   2.938   3.958   5.743 -0.0456 -0.7096 -0.4548
    5DOPE  H11X  622   3.017   3.936   5.818 -1.3766  0.8752  1.5184
    5DOPE  H11Y  623   2.895   3.868   5.695  0.5552 -0.6005 -1.2261
    5DOPE  C312  624   3.006   4.038   5.625  0.4957 -0.2703  0.0354
    5DOPE  H12X  625   3.035   4.141   5.654  1.0188 -0.5227  0.4365
    5DOPE  H12Y  626   2.922   4.046   5.553  0.2821  2.6143  0.5095
    5DOPE  C313  627   3.132   3.977   5.562  0.3110 -0.4914  1.0583
    5DOPE  H13X  628   3.205   4.054   5.530  0.6285 -0.3405  2.0976
    5DOPE  H13Y  629   3.188   3.922   5.641 -1.1464 -1.9155  1.1544
    5DOPE  C314  630   3.096   3.866   5.468  0.2182 -0.2832 -0.1983
    5DOPE  H14X  631   3.045   3.913   5.381 -0.2510 -0.5948 -0.0980
    5DOPE  H14Y  632   3.018   3.799   5.510  0.4517  0.5537  1.6340
    5DOPE  C315  633   3.218   3.787   5.422 -0.1245  0.1726  0.2779
    5DOPE  H15X  634   3.194   3.702   5.354  1.2054  0.5587 -0.7083
    5DOPE  H15Y  635   3.287   3.762   5.505  0.4239 -0.3586 -0.3361
    5DOPE  C316  636   3.315   3.877   5.336  0.2329  0.2404  0.1586
    5DOPE  H16X  637   3.351   3.956   5.407  0.4500  2.2698 -2.0917
    5DOPE  H16Y  638   3.253   3.916   5.253  1.0001 -1.2210 -1.1458
    5DOPE  C317  639   3.440   3.800   5.276 -0.1815  0.1480 -0.0513
    5DOPE  H17X  640   3.525   3.790   5.346 -1.7663 -1.5785  1.7648
    5DOPE  H17Y  641   3.412   3.697   5.243  1.7508 -1.3352  2.6028
    5DOPE  C318  642   3.492   3.866   5.144  0.3209 -0.3838  0.1200
    5DOPE  H18X  643   3.569   3.803   5.095  1.6716  1.3298 -0.0881
    5DOPE  H18Y  644   3.406   3.871   5.075 -0.8720 -1.2322  1.4925
    5DOPE  H18Z  645   3.529   3.971   5.155  0.7181 -0.3747 -1.1486
    6DOPE     N  646   2.050   3.290   6.971 -0.2293  0.1854  0.0844
    6DOPE   HN1  647   2.031   3.189   6.980  1.5635 -0.0420  2.0949
    6DOPE   HN2  648   1.962   3.324   6.928 -0.7505  0.2272  1.1552
    6DOPE   HN3  649   2.134   3.305   6.911  0.0533 -2.3196 -0.2502
    6DOPE   C12  650   2.068   3.342   7.111 -0.1396  0.2328 -0.0701
    6DOPE  H12A  651   2.157   3.292   7.154 -1.4199 -1.9720  0.1531
    6DOPE  H12B  652   1.985   3.308   7.177 -1.0024 -3.6642 -2.7714
    6DOPE   C11  653   2.094   3.490   7.110 -0.2895 -0.2907  0.6038
    6DOPE  H11A  654   2.018   3.532   7.040  2.6436  1.8585 -1.5151
    6DOPE  H11B  655   2.190   3.523   7.065 -0.6997  0.1702  0.0604
    6DOPE     P  656   2.074   3.687   7.286 -0.0687 -0.3131 -0.4938
    6DOPE   O13  657   2.207   3.713   7.340  0.1989  0.4341 -0.3415
    6DOPE   O14  658   1.958   3.712   7.380 -0.9996 -0.2167 -0.2537
    6DOPE   O11  659   2.053   3.753   7.146  0.3926 -0.1537  0.9050
    6DOPE   O12  660   2.080   3.541   7.244 -0.0706  0.0496 -0.3024
    6DOPE    C1  661   2.176   3.792   7.069  0.8979 -0.8970  0.0128
    6DOPE    HA  662   2.267   3.728   7.073 -0.0637 -2.3380 -0.2337
    6DOPE    HB  663   2.198   3.891   7.114 -0.6095 -0.3339 -0.4461
    6DOPE    C2  664   2.135   3.840   6.925 -1.0443 -0.0733  0.0267
    6DOPE    HS  665   2.041   3.898   6.936  0.1602  1.9267  0.2807
    6DOPE   O21  666   2.119   3.721   6.849 -0.1662  0.5841 -0.0247
    6DOPE   C21  667   2.032   3.716   6.753  0.4043  0.1701 -0.0210
    6DOPE   O22  668   1.954   3.804   6.722  0.9056  0.4190  0.1057
    6DOPE   C22  669   2.052   3.582   6.670 -0.3196 -0.1498  0.3762
    6DOPE   H2R  670   1.962   3.559   6.610 -1.4033 -0.5572  2.0739
    6DOPE   H2S  671   2.069   3.507   6.750  0.6887  1.6352  1.9219
    6DOPE    C3  672   2.245   3.933   6.869 -0.0180 -0.9768 -0.6780
    6DOPE    HX  673   2.344   3.885   6.882  0.2912 -0.1567  0.1385
    6DOPE    HY  674   2.252   4.029   6.924  1.5078 -1.7953  0.6604
    6DOPE   O31  675   2.223   3.957   6.728 -0.2613  0.5515  0.0832
    6DOPE   C31  676   2.134   4.053   6.708 -0.0369  0.2983 -0.8095
    6DOPE   O32  677   2.065   4.103   6.798 -0.5928 -0.3833 -0.2540
    6DOPE   C32  678   2.125   4.068   6.551 -0.2234 -0.6187 -0.8953
    6DOPE   H2X  679   2.220   4.121   6.525 -1.2121  1.9250  0.3731
    6DOPE   H2Y  680   2.122   3.963   6.514  1.1999 -1.2878  0.7294
    6DOPE   C23  681   2.178   3.591   6.577 -0.0498  0.1031 -0.1586
    6DOPE   H3R  682   2.192   3.485   6.544 -1.6470  0.4547 -2.1345
    6DOPE   H3S  683   2.268   3.627   6.631  0.8597 -1.4098 -0.6121
    6DOPE   C24  684   2.153   3.680   6.450  0.0220  0.4794  0.0164
    6DOPE   H4R  685   2.198   3.778   6.475 -1.4126  0.6401  2.3205
    6DOPE   H4S  686   2.043   3.687   6.435  0.1886 -0.1149 -1.6683
    6DOPE   C25  687   2.197   3.619   6.314  0.7294  0.7633 -0.0987
    6DOPE   H5R  688   2.163   3.514   6.309 -1.4779  1.3015  1.6770
    6DOPE   H5S  689   2.308   3.619   6.311  0.7200  1.1663 -0.4059
    6DOPE   C26  690   2.148   3.698   6.190 -0.1391 -0.3182  0.3318
    6DOPE   H6R  691   2.189   3.802   6.195  2.9914 -1.4354 -0.0115
    6DOPE   H6S  692   2.038   3.703   6.200  0.0433  0.5732  2.2437
    6DOPE   C27  693   2.193   3.641   6.057 -0.3568 -0.4751 -0.5021
    6DOPE   H7R  694   2.147   3.541   6.044 -3.4206  0.7340  0.2995
    6DOPE   H7S  695   2.303   3.627   6.059 -0.1706  0.6128 -1.6565
    6DOPE   C28  696   2.166   3.738   5.950  0.0831 -0.0929  0.5697
    6DOPE   H8R  697   2.252   3.809   5.946 -1.4366  1.8947  1.7857
    6DOPE   H8S  698   2.070   3.790   5.965  1.1675  2.1443  0.1699
    6DOPE   C29  699   2.144   3.673   5.815  0.0339 -0.0924  0.1312
    6DOPE   H9R  700   2.120   3.566   5.819  2.3692 -0.6297  2.3395
    6DOPE  C210  701   2.138   3.740   5.697 -0.1964  0.1283 -0.5605
    6DOPE  H10R  702   2.126   3.673   5.610  0.0465 -0.2569 -0.3019
    6DOPE  C211  703   2.173   3.881   5.661  0.6288 -0.2524 -0.6633
    6DOPE  H11R  704   2.220   3.928   5.751  0.1017 -0.2626 -0.3773
    6DOPE  H11S  705   2.086   3.950   5.655  1.3728  1.0838  2.1219
    6DOPE  C212  706   2.271   3.891   5.543 -0.2394 -0.7062 -0.2124
    6DOPE  H12R  707   2.279   3.993   5.500  1.4907 -1.1994 -1.1665
    6DOPE  H12S  708   2.234   3.828   5.459 -1.1667 -1.5512  0.8043
    6DOPE  C213  709   2.412   3.854   5.580 -0.2945 -0.5942 -0.4590
    6DOPE  H13R  710   2.418   3.783   5.666 -1.0670 -0.7888 -0.5535
    6DOPE  H13S  711   2.463   3.941   5.625  1.1629 -1.3152 -0.6718
    6DOPE  C214  712   2.496   3.823   5.466 -0.7381  0.7934  0.2894
    6DOPE  H14R  713   2.463   3.728   5.418  3.0730 -0.5543  0.0288
    6DOPE  H14S  714   2.590   3.798   5.520 -1.2527 -1.3557  0.2816
    6DOPE  C215  715   2.512   3.924   5.358  0.8563 -0.0743  0.1947
    6DOPE  H15R  716   2.542   4.021   5.404  0.7219  1.2733 -2.4041
    6DOPE  H15S  717   2.416   3.941   5.305  0.9794  0.6001  0.1763
    6DOPE  C216  718   2.633   3.884   5.271 -0.5219 -0.4947 -0.1243
    6DOPE  H16R  719   2.627   3.775   5.255 -2.1808 -0.2599 -1.5246
    6DOPE  H16S  720   2.725   3.899   5.331  1.2946  0.3000 -2.9192
    6DOPE  C217  721   2.623   3.949   5.136  0.2440  0.0759  0.0958
    6DOPE  H17R  722   2.719   3.928   5.085  1.3864  2.2705  1.1772
    6DOPE  H17S  723   2.633   4.060   5.132  3.5659 -0.1557 -1.2165
    6DOPE  C218  724   2.506   3.917   5.049  0.4020 -0.1494 -0.1214
    6DOPE  H18R  725   2.491   3.807   5.050  1.6491 -0.3484 -1.2123
    6DOPE  H18S  726   2.530   3.946   4.945 -1.9440 -2.0834 -1.2936
    6DOPE  H18T  727   2.416   3.967   5.091  2.8150  2.3174  2.6412
    6DOPE   C33  728   2.015   4.168   6.520  0.1642 -0.1205 -0.0284
    6DOPE   H3X  729   2.015   4.259   6.584  0.4617  0.1084 -0.3470
    6DOPE   H3Y  730   1.913   4.126   6.529 -0.4773  1.3635  0.0180
    6DOPE   C34  731   2.032   4.219   6.374  0.5489 -0.1375 -0.6426
    6DOPE   H4X  732   1.959   4.299   6.348  2.4254  1.4830 -1.1676
    6DOPE   H4Y  733   2.130   4.264   6.348  0.4480 -0.6839 -2.0626
    6DOPE   C35  734   2.000   4.103   6.285 -0.3284  0.6869  1.3115
    6DOPE   H5X  735   1.902   4.053   6.303  0.7122 -0.9764  2.6956
    6DOPE   H5Y  736   2.069   4.016   6.295  1.0378  1.3199 -1.7884
    6DOPE   C36  737   1.987   4.149   6.140  0.2378 -0.3656  1.0921
    6DOPE   H6X  738   2.089   4.132   6.099  1.0507  3.0578  1.4229
    6DOPE   H6Y  739   1.966   4.257   6.131  0.2506 -0.1395  3.2955
    6DOPE   C37  740   1.874   4.070   6.062  0.6284  0.1779  0.3510
    6DOPE   H7X  741   1.892   3.963   6.089  3.5364  1.0711  2.4072
    6DOPE   H7Y  742   1.773   4.097   6.097  1.4185  1.8296  1.4895
    6DOPE   C38  743   1.891   4.070   5.903  0.3242  0.5747  0.0568
    6DOPE   H8X  744   1.803   4.010   5.871 -0.1602  1.0243  0.5257
    6DOPE   H8Y  745   1.983   4.021   5.865 -0.5698 -0.8328 -0.3491
    6DOPE   C39  746   1.887   4.208   5.851 -0.5868 -0.8560  0.0973
    6DOPE   H9X  747   1.984   4.259   5.845 -1.0805  0.2093  0.9410
    6DOPE  C310  748   1.786   4.264   5.792 -0.1272 -0.4398  0.2077
    6DOPE  H10X  749   1.800   4.362   5.744  0.8211  0.9790  3.1674
    6DOPE  C311  750   1.660   4.194   5.761  0.2708  0.2187  0.4311
    6DOPE  H11X  751   1.695   4.104   5.706 -0.8290 -1.3557  2.1798
    6DOPE  H11Y  752   1.616   4.151   5.854  0.5051  0.1608  0.5171
    6DOPE  C312  753   1.550   4.253   5.673  0.1013  0.9796 -0.7812
    6DOPE  H12X  754   1.512   4.349   5.714 -1.3135 -0.0090  0.3603
    6DOPE  H12Y  755   1.466   4.180   5.662  1.7269 -0.9002 -1.3076
    6DOPE  C313  756   1.587   4.291   5.529  0.5877  0.4702  0.0169
    6DOPE  H13X  757   1.689   4.332   5.518 -0.2751  2.9360  0.5862
    6DOPE  H13Y  758   1.577   4.201   5.463  0.8533  1.2716 -1.1448
    6DOPE  C314  759   1.493   4.397   5.475  0.9325  0.0138  0.6841
    6DOPE  H14X  760   1.525   4.499   5.506  3.1990 -0.6411  0.6411
    6DOPE  H14Y  761   1.392   4.375   5.516  0.3544  1.3678  0.0369
    6DOPE  C315  762   1.499   4.404   5.319  0.5044 -0.0932  0.2510
    6DOPE  H15X  763   1.501   4.299   5.284  0.0915 -0.2997  0.8538
    6DOPE  H15Y  764   1.592   4.464   5.302  0.0484  0.9865  1.4569
    6DOPE  C316  765   1.379   4.485   5.268 -0.1447  0.0870  0.4337
    6DOPE  H16X  766   1.377   4.586   5.314 -2.7696  0.2724  0.0770
    6DOPE  H16Y  767   1.287   4.429   5.297 -0.5697  0.9605  0.8071
    6DOPE  C317  768   1.370   4.507   5.110 -0.1399  0.0454  0.4771
    6DOPE  H17X  769   1.272   4.551   5.081  0.0559  0.6660  0.7494
    6DOPE  H17Y  770   1.452   4.579   5.091  0.2981  0.0665  2.2415
    6DOPE  C318  771   1.407   4.377   5.034  0.0379 -1.1917  0.6069
    6DOPE  H18X  772   1.407   4.405   4.927 -0.2421  1.4844  1.2441
    6DOPE  H18Y  773   1.503   4.334   5.069 -0.2160 -1.7332  0.6523
    6DOPE  H18Z  774   1.329   4.300   5.050  2.3069 -3.3747  1.9124
    7DOPE     N  775   3.889   5.088   7.113 -0.9840  0.2873  0.3466
    7DOPE   HN1  776   3.975   5.101   7.056  0.9214 -1.6731  2.5881
    7DOPE   HN2  777   3.845   4.995   7.100  2.0551 -1.0624 -1.1969
    7DOPE   HN3  778   3.816   5.157   7.086 -0.4758  0.6179 -0.2298
    7DOPE   C12  779   3.924   5.111   7.261 -0.6263  0.0970 -0.2517
    7DOPE  H12A  780   3.892   5.020   7.316  0.9651  0.0066  0.5816
    7DOPE  H12B  781   3.873   5.204   7.293  1.0172  1.1351 -0.5026
    7DOPE   C11  782   4.073   5.121   7.298  0.8493 -1.0784 -0.1225
    7DOPE  H11A  783   4.116   5.034   7.244  1.3425 -1.4838  0.8928
    7DOPE  H11B  784   4.079   5.100   7.407 -1.9110 -1.3087  0.0584
    7DOPE     P  785   4.229   5.250   7.151 -0.1601 -0.0875 -0.0385
    7DOPE   O13  786   4.319   5.138   7.167 -0.0914  0.6881 -0.3347
    7DOPE   O14  787   4.284   5.385   7.134 -0.7874  0.2329  0.1553
    7DOPE   O11  788   4.139   5.211   7.026 -0.3377  0.2650  0.2754
    7DOPE   O12  789   4.118   5.251   7.261  0.1701  0.2075 -0.5275
    7DOPE    C1  790   4.069   5.317   6.950 -0.1251  0.5034 -0.0598
    7DOPE    HA  791   4.089   5.419   6.989 -2.3097  2.1272 -2.8103
    7DOPE    HB  792   3.958   5.308   6.947 -0.1209  0.5679 -0.7914
    7DOPE    C2  793   4.126   5.341   6.808 -0.0704 -0.2120 -0.2229
    7DOPE    HS  794   4.067   5.426   6.767 -2.0713 -1.1739  0.5420
    7DOPE   O21  795   4.132   5.224   6.729 -0.2522 -0.1336  0.2445
    7DOPE   C21  796   4.009   5.180   6.701 -0.6176 -0.2692 -0.7159
    7DOPE   O22  797   3.901   5.232   6.733  0.6532  0.0864  0.1406
    7DOPE   C22  798   4.035   5.060   6.618 -0.4475  0.4810  0.1681
    7DOPE   H2R  799   4.037   4.966   6.677  0.6669  0.6480  0.4287
    7DOPE   H2S  800   4.137   5.072   6.576 -0.8836 -0.0998 -1.0981
    7DOPE    C3  801   4.276   5.392   6.821  0.0929  0.3972  0.5047
    7DOPE    HX  802   4.333   5.298   6.840 -2.7262 -1.2881  1.2271
    7DOPE    HY  803   4.294   5.455   6.911  2.4996  1.0496 -0.3569
    7DOPE   O31  804   4.319   5.454   6.692 -0.2654  0.3422 -0.1391
    7DOPE   C31  805   4.308   5.583   6.676  0.7944 -0.4296  0.4477
    7DOPE   O32  806   4.268   5.665   6.760 -0.3906  0.0790  0.1588
    7DOPE   C32  807   4.332   5.629   6.530 -0.5788  0.7536  0.0749
    7DOPE   H2X  808   4.254   5.704   6.506 -0.2581  1.2003  0.4292
    7DOPE   H2Y  809   4.436   5.669   6.530 -0.2198 -0.1445  0.7850
    7DOPE   C23  810   3.948   5.052   6.493  0.3232  0.1843  0.0923
    7DOPE   H3R  811   3.842   5.067   6.522 -0.5826 -1.9468 -1.7556
    7DOPE   H3S  812   3.955   4.946   6.461  0.2237 -0.5680  2.3724
    7DOPE   C24  813   4.002   5.139   6.385 -0.3384  0.0415 -0.1037
    7DOPE   H4R  814   4.106   5.101   6.371  0.2248  0.9672  1.3003
    7DOPE   H4S  815   4.023   5.242   6.420 -1.9351  0.0544  0.9286
    7DOPE   C25  816   3.925   5.134   6.255  0.1545  0.0309 -0.6136
    7DOPE   H5R  817   3.816   5.137   6.274  0.1807 -3.0750  0.4399
    7DOPE   H5S  818   3.955   5.047   6.193  0.9297  1.3225 -2.1519
    7DOPE   C26  819   3.956   5.240   6.151  0.8008  0.6961 -0.4111
    7DOPE   H6R  820   4.042   5.206   6.088  2.1509  0.8057  1.3085
    7DOPE   H6S  821   3.972   5.342   6.192 -0.4405  0.9771 -0.5753
    7DOPE   C27  822   3.837   5.258   6.061 -0.9020  0.4891 -0.1284
    7DOPE   H7R  823   3.745   5.299   6.109  0.2467  1.5095  1.2571
    7DOPE   H7S  824   3.813   5.158   6.020  1.3667  0.4124 -1.4487
    7DOPE   C28  825   3.863   5.356   5.942 -0.0689  0.2579  0.6812
    7DOPE   H8R  826   3.956   5.329   5.887 -0.1155  0.1061  0.6780
    7DOPE   H8S  827   3.875   5.456   5.989  2.1987 -0.2903  1.3877
    7DOPE   C29  828   3.743   5.346   5.852 -0.3843 -0.5646 -0.5989
    7DOPE   H9R  829   3.646   5.319   5.897 -0.1446 -2.0315 -0.9184
    7DOPE  C210  830   3.746   5.363   5.720 -0.1495  0.7341  0.3876
    7DOPE  H10R  831   3.658   5.323   5.669 -0.2543  1.3951  0.0392
    7DOPE  C211  832   3.868   5.383   5.634  0.3642 -0.5026 -0.2566
    7DOPE  H11R  833   3.960   5.393   5.696 -1.8817 -0.8510  3.4149
    7DOPE  H11S  834   3.844   5.478   5.581  1.1312 -0.5500 -0.7093
    7DOPE  C212  835   3.888   5.267   5.538 -1.0139 -0.6360  1.2811
    7DOPE  H12R  836   3.790   5.230   5.501 -0.5298 -1.1275  0.4514
    7DOPE  H12S  837   3.936   5.182   5.592  2.5283 -0.2204 -0.8831
    7DOPE  C213  838   3.966   5.318   5.416 -0.0194 -0.1086  0.3289
    7DOPE  H13R  839   4.050   5.376   5.459 -0.5790 -0.1756  1.5823
    7DOPE  H13S  840   3.907   5.391   5.358  0.1794 -1.5356 -1.7739
    7DOPE  C214  841   4.023   5.205   5.322  0.0179  0.5178 -0.7583
    7DOPE  H14R  842   3.954   5.118   5.317 -0.2757  0.8168 -3.7377
    7DOPE  H14S  843   4.115   5.151   5.355 -0.5228 -1.4572 -2.2424
    7DOPE  C215  844   4.039   5.253   5.182 -0.0045 -0.4399  0.3817
    7DOPE  H15R  845   4.075   5.173   5.113 -0.2374 -0.1369 -0.0987
    7DOPE  H15S  846   4.107   5.340   5.169  0.1063 -0.6413 -0.4470
    7DOPE  C216  847   3.904   5.305   5.121 -0.0208  0.5453 -0.8229
    7DOPE  H16R  848   3.895   5.414   5.105 -0.4809  0.7064  0.4630
    7DOPE  H16S  849   3.823   5.275   5.192  0.2955  2.0231  0.2052
    7DOPE  C217  850   3.879   5.239   4.982 -0.3357  0.2490 -0.4621
    7DOPE  H17R  851   3.774   5.238   4.947 -0.3877 -2.4140 -0.3905
    7DOPE  H17S  852   3.908   5.134   5.002  1.0104  0.2370 -2.1828
    7DOPE  C218  853   3.980   5.280   4.873  0.6091 -0.1337  0.0880
    7DOPE  H18R  854   3.988   5.390   4.881  1.4370 -0.1300 -0.6386
    7DOPE  H18S  855   3.952   5.252   4.769 -1.4879  0.8749  0.3331
    7DOPE  H18T  856   4.087   5.249   4.880  0.8096  0.1816 -1.2393
    7DOPE   C33  857   4.336   5.514   6.425  0.1642  0.4771  0.5899
    7DOPE   H3X  858   4.233   5.474   6.412  0.1479  0.7647 -0.2484
    7DOPE   H3Y  859   4.406   5.431   6.448  1.4570  1.3455 -0.1023
    7DOPE   C34  860   4.370   5.567   6.281 -0.0278  0.2745 -0.4525
    7DOPE   H4X  861   4.307   5.655   6.257 -0.3817 -0.3625 -1.9704
    7DOPE   H4Y  862   4.479   5.589   6.279  0.1565 -0.6196 -0.7405
    7DOPE   C35  863   4.335   5.467   6.167  0.2680  0.3444  0.5604
    7DOPE   H5X  864   4.237   5.418   6.183  0.1473  0.8818  1.5962
    7DOPE   H5Y  865   4.416   5.391   6.161 -1.1705 -1.2248  0.4838
    7DOPE   C36  866   4.350   5.541   6.031 -0.2428 -0.1110 -1.1145
    7DOPE   H6X  867   4.279   5.627   6.034 -1.3173 -0.9911  1.8724
    7DOPE   H6Y  868   4.337   5.469   5.948 -2.3706 -1.5279  0.3499
    7DOPE   C37  869   4.500   5.589   6.016 -0.1161  0.4721  0.4942
    7DOPE   H7X  870   4.505   5.674   6.087 -0.8701  0.4736  0.5548
    7DOPE   H7Y  871   4.567   5.505   6.040  2.9229  2.8271  0.8615
    7DOPE   C38  872   4.546   5.626   5.870  0.2262  0.4936  0.0475
    7DOPE   H8X  873   4.501   5.724   5.840  0.2332  0.1095 -1.2513
    7DOPE   H8Y  874   4.508   5.544   5.806  0.7563 -0.4964  0.9694
    7DOPE   C39  875   4.694   5.637   5.847 -0.4220  0.0489 -0.3179
    7DOPE   H9X  876   4.748   5.701   5.919 -1.9015 -0.1394  1.0145
    7DOPE  C310  877   4.768   5.592   5.748  0.3290  0.2063  0.1515
    7DOPE  H10X  878   4.876   5.608   5.760  0.5441 -1.8483  1.3809
    7DOPE  C311  879   4.728   5.513   5.625  0.6086  0.5445  0.5914
    7DOPE  H11X  880   4.730   5.403   5.640 -1.5448  0.2471 -0.7997
    7DOPE  H11Y  881   4.618   5.526   5.611 -0.1444 -1.8550  3.3991
    7DOPE  C312  882   4.807   5.535   5.492 -0.1550  0.0112 -0.3625
    7DOPE  H12X  883   4.746   5.479   5.418 -1.2084 -0.0543  0.5401
    7DOPE  H12Y  884   4.911   5.497   5.484  0.6942  1.5826  1.9430
    7DOPE  C313  885   4.818   5.679   5.452  0.6042  0.4241 -0.8039
    7DOPE  H13X  886   4.716   5.720   5.465  0.8651  0.6710  0.6930
    7DOPE  H13Y  887   4.887   5.743   5.511 -0.2738 -0.6235  1.4952
    7DOPE  C314  888   4.852   5.683   5.309 -0.0769 -0.0188  0.1281
    7DOPE  H14X  889   4.767   5.639   5.251  1.8611 -0.6334 -2.4358
    7DOPE  H14Y  890   4.951   5.636   5.292  0.2619  0.9684 -0.6697
    7DOPE  C315  891   4.863   5.831   5.269  0.1985  0.2050  0.1299
    7DOPE  H15X  892   4.965   5.865   5.295 -0.4288  1.2426  1.3498
    7DOPE  H15Y  893   4.786   5.891   5.322 -0.3434 -1.3709  1.1752
    7DOPE  C316  894   4.851   5.844   5.115 -0.5163  0.2013  0.7460
    7DOPE  H16X  895   4.750   5.811   5.082  0.6297 -2.9628 -0.0445
    7DOPE  H16Y  896   4.920   5.772   5.065 -1.5456 -0.7834  0.7152
    7DOPE  C317  897   4.877   5.980   5.056 -0.0096 -0.4783  0.4809
    7DOPE  H17X  898   4.792   6.040   5.094  0.5924  0.3193  0.5905
    7DOPE  H17Y  899   4.971   6.012   5.106  0.1974 -2.4227  1.4103
    7DOPE  C318  900   4.889   6.003   4.906 -0.8544 -0.7440  0.0265
    7DOPE  H18X  901   4.914   6.108   4.879 -2.2849 -0.6725 -1.2078
    7DOPE  H18Y  902   4.967   5.942   4.856 -0.7030 -1.5270  1.1817
    7DOPE  H18Z  903   4.790   5.991   4.856 -1.6293 -1.6132  1.6891
    8DOPE     N  904   6.114   5.489   6.840 -0.4973  0.1262 -0.0026
    8DOPE   HN1  905   6.205   5.443   6.820 -0.6641 -0.7911  1.2485
    8DOPE   HN2  906   6.130   5.557   6.917 -0.4691  0.3925 -0.2427
    8DOPE   HN3  907   6.042   5.422   6.873  2.1461 -2.0735  1.7438
    8DOPE   C12  908   6.078   5.567   6.720 -0.1968 -0.1770  0.5085
    8DOPE  H12A  909   5.978   5.613   6.737 -0.2808 -0.8081  1.8073
    8DOPE  H12B  910   6.071   5.498   6.633 -2.5282 -1.1869  1.4130
    8DOPE   C11  911   6.196   5.660   6.684 -0.4802  0.0307 -0.3567
    8DOPE  H11A  912   6.188   5.689   6.577 -3.0437 -1.0391 -0.5135
    8DOPE  H11B  913   6.291   5.604   6.699 -0.7593 -1.2107 -2.6482
    8DOPE     P  914   6.121   5.904   6.735 -0.0465  0.2674 -0.1875
    8DOPE   O13  915   6.151   6.017   6.831  0.0387  0.0935 -0.0180
    8DOPE   O14  916   5.974   5.866   6.728  0.0625 -0.2268  0.0091
    8DOPE   O11  917   6.177   5.937   6.596  0.4551  0.3541 -0.4426
    8DOPE   O12  918   6.201   5.776   6.770  0.3648  0.1446 -0.4629
    8DOPE    C1  919   6.307   5.991   6.580  0.7661 -0.5300  0.0393
    8DOPE    HA  920   6.375   5.933   6.646  0.8034 -0.9855 -0.3961
    8DOPE    HB  921   6.317   6.096   6.614  0.2222 -0.7285  0.8376
    8DOPE    C2  922   6.355   5.970   6.427  0.0768 -0.5914 -0.2665
    8DOPE    HS  923   6.347   6.066   6.371  0.3801 -0.1685  0.3954
    8DOPE   O21  924   6.272   5.869   6.368  0.0542  0.1364 -0.0168
    8DOPE   C21  925   6.174   5.917   6.293 -0.5016 -0.1572 -0.6370
    8DOPE   O22  926   6.142   6.036   6.282 -0.0322  0.5813 -0.5241
    8DOPE   C22  927   6.114   5.803   6.208  0.1728 -0.3007 -0.5690
    8DOPE   H2R  928   6.038   5.748   6.267 -0.0537 -0.2563 -0.8211
    8DOPE   H2S  929   6.194   5.728   6.190 -1.1655 -1.6464 -1.0063
    8DOPE    C3  930   6.500   5.922   6.415 -0.4196 -0.4423 -0.5803
    8DOPE    HX  931   6.509   5.846   6.495  1.7658  0.4161  0.0613
    8DOPE    HY  932   6.580   5.993   6.444  0.1456 -0.8779 -1.0595
    8DOPE   O31  933   6.516   5.864   6.280 -0.7034 -0.0241 -0.5687
    8DOPE   C31  934   6.537   5.962   6.189 -0.7251  0.5532  0.4292
    8DOPE   O32  935   6.571   6.074   6.210 -0.1449 -0.0518  0.4418
    8DOPE   C32  936   6.499   5.913   6.045  0.5602  0.2404  0.2480
    8DOPE   H2X  937   6.576   5.849   5.996 -0.7801 -0.8023 -0.5520
    8DOPE   H2Y  938   6.416   5.842   6.061  1.7322 -1.2586 -0.0896
    8DOPE   C23  939   6.069   5.846   6.064  0.2930 -0.4604  0.0174
    8DOPE   H3R  940   6.149   5.906   6.016  1.2534 -1.4093  0.3784
    8DOPE   H3S  941   5.976   5.906   6.070  1.1606  1.0516 -0.9726
    8DOPE   C24  942   6.031   5.723   5.984 -0.4349 -0.4354  0.8765
    8DOPE   H4R  943   6.000   5.635   6.045  2.1744 -2.1222 -0.0803
    8DOPE   H4S  944   6.119   5.687   5.927 -0.5500  0.4939  0.0829
    8DOPE   C25  945   5.912   5.751   5.887 -0.3928 -0.3513 -0.3826
    8DOPE   H5R  946   5.938   5.835   5.819  1.5840 -1.2172 -0.7477
    8DOPE   H5S  947   5.820   5.782   5.943 -0.6540  0.1460 -1.0734
    8DOPE   C26  948   5.874   5.626   5.806 -0.5698 -0.5025 -0.0822
    8DOPE   H6R  949   5.859   5.537   5.871 -2.4346  0.6594  1.1756
    8DOPE   H6S  950   5.964   5.598   5.746  0.0150 -0.0429  0.5599
    8DOPE   C27  951   5.764   5.657   5.697 -0.5822  0.0792 -0.0696
    8DOPE   H7R  952   5.802   5.733   5.625 -2.3715  0.7656 -0.3242
    8DOPE   H7S  953   5.680   5.711   5.746 -1.5363 -0.3365 -1.2094
    8DOPE   C28  954   5.724   5.536   5.625  0.5493 -0.6178  0.2425
    8DOPE   H8R  955   5.653   5.464   5.671 -2.2492  1.0442 -1.1751
    8DOPE   H8S  956   5.824   5.489   5.619  1.6361  1.1300  2.8235
    8DOPE   C29  957   5.670   5.573   5.490  0.0638  0.4167  0.1489
    8DOPE   H9R  958   5.561   5.562   5.490 -0.0986  1.5830 -1.4441
    8DOPE  C210  959   5.744   5.587   5.380  0.1503 -0.0285  0.5675
    8DOPE  H10R  960   5.682   5.601   5.291 -1.0377  1.2524  1.5550
    8DOPE  C211  961   5.897   5.592   5.364  0.4273 -0.3560  0.6007
    8DOPE  H11R  962   5.935   5.574   5.467  1.9581  0.2579  0.1703
    8DOPE  H11S  963   5.920   5.696   5.332  2.3608 -1.2152 -0.9766
    8DOPE  C212  964   5.966   5.504   5.256  0.1217 -0.2210  0.1115
    8DOPE  H12R  965   6.071   5.536   5.268  0.2423 -0.8872  0.8965
    8DOPE  H12S  966   5.947   5.535   5.151  0.5164 -2.0588 -0.5424
    8DOPE  C213  967   5.974   5.351   5.275 -0.3797 -0.0149  0.1587
    8DOPE  H13R  968   6.062   5.317   5.216 -1.2075 -2.8189  0.4247
    8DOPE  H13S  969   5.881   5.315   5.228 -1.3623  2.4717  0.0558
    8DOPE  C214  970   5.988   5.313   5.423  0.2326 -0.4081  0.4318
    8DOPE  H14R  971   5.996   5.203   5.435 -3.3426 -0.5500  3.2255
    8DOPE  H14S  972   5.895   5.338   5.478 -0.7843 -0.6208 -1.1261
    8DOPE  C215  973   6.103   5.370   5.496  0.2869  0.2790  0.0531
    8DOPE  H15R  974   6.110   5.481   5.487  1.5968  0.1458 -0.6852
    8DOPE  H15S  975   6.197   5.324   5.460  0.9923  0.6658  1.3080
    8DOPE  C216  976   6.080   5.342   5.646  0.3097 -0.1023 -0.6219
    8DOPE  H16R  977   6.085   5.233   5.665 -0.6500 -0.2479 -1.1748
    8DOPE  H16S  978   5.978   5.370   5.680 -0.2844 -0.9018 -1.7154
    8DOPE  C217  979   6.187   5.403   5.735 -0.1651 -0.4721 -0.6308
    8DOPE  H17R  980   6.200   5.512   5.714  0.7927 -0.1896  1.2815
    8DOPE  H17S  981   6.283   5.357   5.704 -0.7380 -1.9028 -0.3385
    8DOPE  C218  982   6.148   5.374   5.881 -0.0669 -0.1970  0.2486
    8DOPE  H18R  983   6.097   5.275   5.880 -1.5694  0.5001 -1.9377
    8DOPE  H18S  984   6.068   5.445   5.911 -1.7570 -1.8262 -0.1212
    8DOPE  H18T  985   6.237   5.363   5.946 -0.0626  0.5705  0.3741
    8DOPE   C33  986   6.448   6.017   5.951  0.4292 -0.8913 -0.4204
    8DOPE   H3X  987   6.528   6.082   5.910 -1.9980  0.0685 -4.2273
    8DOPE   H3Y  988   6.388   6.086   6.014  2.6960  1.8523 -1.0551
    8DOPE   C34  989   6.374   5.941   5.834  0.3037 -0.4050  0.1607
    8DOPE   H4X  990   6.464   5.894   5.789  0.8046 -1.2736  1.9513
    8DOPE   H4Y  991   6.314   5.866   5.889  1.0746 -0.2326  1.2950
    8DOPE   C35  992   6.295   6.035   5.744 -0.4299  0.0032  0.7831
    8DOPE   H5X  993   6.363   6.110   5.698 -1.2540  0.5458  0.4216
    8DOPE   H5Y  994   6.226   6.091   5.811 -0.1292  0.0511  1.0608
    8DOPE   C36  995   6.225   5.967   5.624 -0.2262 -0.8776 -0.3620
    8DOPE   H6X  996   6.191   5.867   5.659  0.5373 -0.5023  1.5477
    8DOPE   H6Y  997   6.292   5.949   5.538  1.6613  1.9095  0.4033
    8DOPE   C37  998   6.104   6.041   5.567 -0.0162 -0.3659 -0.3268
    8DOPE   H7X  999   6.043   6.076   5.652  1.3440 -3.1607  1.9776
    8DOPE   H7Y 1000   6.138   6.136   5.521  0.7700 -0.2958  0.3944
    8DOPE   C38 1001   6.036   5.967   5.461  0.7357  0.7581  0.3696
    8DOPE   H8X 1002   6.008   5.863   5.490 -1.5516  0.7155 -1.5895
    8DOPE   H8Y 1003   6.098   5.958   5.369 -0.3741  0.1384 -0.3584
    8DOPE   C39 1004   5.905   6.038   5.417 -0.3636 -0.4172  0.0280
    8DOPE   H9X 1005   5.838   6.045   5.504 -1.3456 -1.0869 -0.6613
    8DOPE  C310 1006   5.875   6.096   5.303 -0.4458 -0.2210 -0.9561
    8DOPE  H10X 1007   5.774   6.138   5.294 -0.4922  0.2966  1.3700
    8DOPE  C311 1008   5.945   6.091   5.172 -0.0098  0.0443  0.7367
    8DOPE  H11X 1009   5.964   6.192   5.129 -1.1119 -0.5125 -1.2191
    8DOPE  H11Y 1010   6.043   6.040   5.164 -1.0442 -1.8262 -0.8216
    8DOPE  C312 1011   5.850   6.014   5.073  0.0508 -0.0320  0.5258
    8DOPE  H12X 1012   5.905   5.996   4.978  1.9732 -2.0334  1.9403
    8DOPE  H12Y 1013   5.757   6.074   5.057  0.6172  0.8065  0.3183
    8DOPE  C313 1014   5.791   5.883   5.139 -0.1268  0.2455  0.1269
    8DOPE  H13X 1015   5.876   5.839   5.195  0.9420  1.6406 -0.3525
    8DOPE  H13Y 1016   5.714   5.896   5.217 -0.5705 -1.0420 -0.0644
    8DOPE  C314 1017   5.723   5.782   5.041 -0.2800  0.3792 -1.0340
    8DOPE  H14X 1018   5.614   5.798   5.029 -0.3346  0.6186 -0.3032
    8DOPE  H14Y 1019   5.739   5.680   5.081  1.0212  1.3833  1.2423
    8DOPE  C315 1020   5.788   5.778   4.897  0.8635 -0.1296 -0.0016
    8DOPE  H15X 1021   5.896   5.801   4.910  0.4580  0.7943  2.1791
    8DOPE  H15Y 1022   5.740   5.858   4.838 -1.5784 -0.5830  1.2373
    8DOPE  C316 1023   5.769   5.646   4.819  0.3624 -0.3230 -0.2507
    8DOPE  H16X 1024   5.833   5.570   4.869 -0.5389 -0.9055  0.0537
    8DOPE  H16Y 1025   5.796   5.664   4.713  1.6246 -0.4550  0.0351
    8DOPE  C317 1026   5.624   5.582   4.806 -0.4408  0.5696 -0.6448
    8DOPE  H17X 1027   5.569   5.580   4.903  1.4760 -1.3048  0.4822
    8DOPE  H17Y 1028   5.564   5.654   4.746  1.8897  1.8502 -1.5430
    8DOPE  C318 1029   5.626   5.448   4.741 -0.2950  0.1195  0.3504
    8DOPE  H18X 1030   5.685   5.377   4.802  1.0220  0.1392 -0.8536
    8DOPE  H18Y 1031   5.666   5.447   4.637  0.7829 -0.9412  0.7657
    8DOPE  H18Z 1032   5.524   5.403   4.746 -0.4012  0.4228  1.1430
    9DOPE     N 1033   0.772   4.665   6.756  0.1243  0.4624  0.0776
    9DOPE   HN1 1034   0.810   4.574   6.788  0.0434 -0.0968 -1.3317
    9DOPE   HN2 1035   0.819   4.732   6.819  0.6738 -1.7931  2.2481
    9DOPE   HN3 1036   0.669   4.667   6.773 -0.0329  1.7098 -0.9079
    9DOPE   C12 1037   0.795   4.693   6.608  0.6058  0.1780  0.0613
    9DOPE  H12A 1038   0.730   4.779   6.581  0.4818  0.3433  0.8529
    9DOPE  H12B 1039   0.773   4.601   6.550  1.9965  0.2230 -0.5792
    9DOPE   C11 1040   0.941   4.734   6.587 -0.3627  0.1439  0.2998
    9DOPE  H11A 1041   0.955   4.834   6.633  1.0749  0.0652  0.0667
    9DOPE  H11B 1042   0.967   4.740   6.479 -0.6199  0.6070  0.2634
    9DOPE     P 1043   1.176   4.669   6.682 -0.3784  0.0421 -0.0675
    9DOPE   O13 1044   1.251   4.547   6.703 -0.3478  0.1059  0.1884
    9DOPE   O14 1045   1.187   4.760   6.799 -0.6428  0.6879  0.3026
    9DOPE   O11 1046   1.226   4.743   6.556  0.4693 -0.5004  0.3905
    9DOPE   O12 1047   1.027   4.637   6.649  0.3670 -0.3648  0.3204
    9DOPE    C1 1048   1.251   4.692   6.426  0.3862 -0.0260  0.4697
    9DOPE    HA 1049   1.160   4.655   6.375  0.3955 -0.2788  0.6362
    9DOPE    HB 1050   1.312   4.599   6.425  2.6292  1.3623  0.1730
    9DOPE    C2 1051   1.310   4.804   6.325 -0.0948 -0.5630 -0.2037
    9DOPE    HS 1052   1.241   4.892   6.328  1.2406  0.6639 -2.3183
    9DOPE   O21 1053   1.330   4.750   6.193 -0.0756  1.0260  0.0648
    9DOPE   C21 1054   1.281   4.822   6.098  0.5820  0.0013  0.2691
    9DOPE   O22 1055   1.245   4.934   6.104  0.1326 -0.3421 -0.0586
    9DOPE   C22 1056   1.267   4.734   5.966  0.2450  0.0976  0.3016
    9DOPE   H2R 1057   1.171   4.679   5.976 -0.3021  1.1412  0.8807
    9DOPE   H2S 1058   1.349   4.660   5.956 -2.6196 -3.2919 -0.0489
    9DOPE    C3 1059   1.452   4.853   6.377 -0.3736 -0.9349  0.2189
    9DOPE    HX 1060   1.507   4.761   6.404  2.6831  0.8390  0.5165
    9DOPE    HY 1061   1.432   4.896   6.477 -4.9675 -2.7429  0.3116
    9DOPE   O31 1062   1.511   4.944   6.287 -0.1882  0.4477 -0.5705
    9DOPE   C31 1063   1.646   4.937   6.288 -0.2997 -0.0532  0.2204
    9DOPE   O32 1064   1.713   4.852   6.343 -0.0562 -0.1515 -0.4074
    9DOPE   C32 1065   1.705   5.059   6.215  0.1060 -0.7894  0.3866
    9DOPE   H2X 1066   1.667   5.157   6.250  0.3986 -0.6690  0.3754
    9DOPE   H2Y 1067   1.803   5.068   6.266 -0.4187 -2.1600  1.7045
    9DOPE   C23 1068   1.267   4.814   5.838 -0.0075  0.4265 -0.1652
    9DOPE   H3R 1069   1.355   4.882   5.840 -0.1161  0.5657  2.2881
    9DOPE   H3S 1070   1.169   4.867   5.843 -0.2796 -0.1372  0.5539
    9DOPE   C24 1071   1.257   4.718   5.723 -0.6949  0.2323  0.2730
    9DOPE   H4R 1072   1.186   4.634   5.733 -0.4150  0.0600  0.8467
    9DOPE   H4S 1073   1.354   4.670   5.699 -2.2988 -1.9012 -2.5452
    9DOPE   C25 1074   1.213   4.785   5.588  0.0667  0.1818  0.5151
    9DOPE   H5R 1075   1.134   4.863   5.600 -0.5734 -0.3347 -0.2154
    9DOPE   H5S 1076   1.175   4.704   5.522 -0.5594 -0.6467  1.8645
    9DOPE   C26 1077   1.328   4.857   5.510 -0.6832  0.8787  0.0740
    9DOPE   H6R 1078   1.388   4.768   5.484 -0.0391  1.7529 -1.6034
    9DOPE   H6S 1079   1.398   4.924   5.564 -0.0781  0.8401 -0.6468
    9DOPE   C27 1080   1.301   4.923   5.378  0.5428  0.3913  0.0153
    9DOPE   H7R 1081   1.292   5.031   5.400  0.6315 -0.0600  2.5982
    9DOPE   H7S 1082   1.200   4.881   5.358  0.7845 -1.0010  1.4700
    9DOPE   C28 1083   1.403   4.878   5.268  0.0113 -0.1580 -0.2086
    9DOPE   H8R 1084   1.417   4.768   5.276  0.3208 -0.2378 -1.6145
    9DOPE   H8S 1085   1.496   4.932   5.294 -0.4954  0.8010 -0.3585
    9DOPE   C29 1086   1.350   4.902   5.129  0.4437 -0.3990  0.1649
    9DOPE   H9R 1087   1.243   4.880   5.135  0.4954 -1.3362 -1.7611
    9DOPE  C210 1088   1.413   4.945   5.019 -0.2234 -0.4741  0.9712
    9DOPE  H10R 1089   1.348   4.945   4.930 -1.1346  1.3686  1.5754
    9DOPE  C211 1090   1.559   4.971   5.003  0.4681 -0.7725  0.1423
    9DOPE  H11R 1091   1.605   5.025   5.088  0.4634  0.4590 -0.6196
    9DOPE  H11S 1092   1.569   5.033   4.911 -0.7724  0.6810  0.9313
    9DOPE  C212 1093   1.631   4.841   4.972  0.0742  0.4374 -0.2893
    9DOPE  H12R 1094   1.609   4.764   5.049 -2.1832  0.0519 -1.2508
    9DOPE  H12S 1095   1.741   4.857   4.974  0.2133 -0.5233  0.9579
    9DOPE  C213 1096   1.606   4.782   4.832  0.5668 -0.2574 -0.4700
    9DOPE  H13R 1097   1.593   4.858   4.752 -1.5611 -1.4400 -1.3576
    9DOPE  H13S 1098   1.506   4.733   4.828 -0.0226  0.7125  1.1926
    9DOPE  C214 1099   1.718   4.690   4.786 -0.3184 -0.2961 -0.0076
    9DOPE  H14R 1100   1.747   4.628   4.873  1.1645 -0.9682 -0.9394
    9DOPE  H14S 1101   1.798   4.763   4.760 -2.0247  0.6710 -2.9541
    9DOPE  C215 1102   1.682   4.609   4.654 -0.6784  0.2794 -0.3261
    9DOPE  H15R 1103   1.676   4.679   4.569 -2.9576 -0.8381 -1.1493
    9DOPE  H15S 1104   1.574   4.593   4.670 -0.9343  2.0279 -0.2069
    9DOPE  C216 1105   1.769   4.486   4.622 -0.9555  0.0245 -0.1143
    9DOPE  H16R 1106   1.775   4.414   4.707 -4.1385 -0.3099 -0.0540
    9DOPE  H16S 1107   1.866   4.528   4.589  0.1594 -1.9228  0.5333
    9DOPE  C217 1108   1.729   4.405   4.495  0.9976  0.0555 -0.3319
    9DOPE  H17R 1109   1.740   4.467   4.404 -0.9675  1.0892  0.0755
    9DOPE  H17S 1110   1.620   4.390   4.512  1.0994 -1.0984 -0.5685
    9DOPE  C218 1111   1.788   4.267   4.482 -0.5645 -0.3781 -0.3900
    9DOPE  H18R 1112   1.733   4.208   4.406  0.7092 -0.6621 -1.1201
    9DOPE  H18S 1113   1.791   4.216   4.581  0.7062  2.1373  0.9851
    9DOPE  H18T 1114   1.892   4.263   4.442 -0.0999 -4.2372  0.7511
    9DOPE   C33 1115   1.744   5.035   6.065  0.2532  0.0219  0.5219
    9DOPE   H3X 1116   1.656   5.039   5.997  0.4013  1.0475  0.3763
    9DOPE   H3Y 1117   1.785   4.931   6.064 -0.9916 -0.4886  0.6527
    9DOPE   C34 1118   1.851   5.140   6.017 -0.0089  0.9391 -0.3381
    9DOPE   H4X 1119   1.811   5.243   6.022  0.6658  1.2457 -1.1085
    9DOPE   H4Y 1120   1.945   5.125   6.075  0.2570 -0.0729 -0.9990
    9DOPE   C35 1121   1.880   5.118   5.876  0.0389 -0.2886 -0.3741
    9DOPE   H5X 1122   1.792   5.122   5.808  1.2526 -2.1824 -2.1901
    9DOPE   H5Y 1123   1.925   5.017   5.865  4.3807  0.9875  2.8369
    9DOPE   C36 1124   1.990   5.218   5.826  1.2219 -0.6222 -0.6973
    9DOPE   H6X 1125   2.088   5.213   5.880  0.5153 -2.8288  0.5236
    9DOPE   H6Y 1126   1.951   5.318   5.851  2.9126 -0.0714 -0.1004
    9DOPE   C37 1127   2.008   5.215   5.677 -0.0811  0.2024  0.2273
    9DOPE   H7X 1128   2.063   5.121   5.661  2.2181  1.1444  2.0473
    9DOPE   H7Y 1129   1.912   5.220   5.621  0.2080 -0.0698 -0.3029
    9DOPE   C38 1130   2.103   5.325   5.632 -0.4320  0.3204  0.4075
    9DOPE   H8X 1131   2.185   5.319   5.706 -2.2517  0.5676  2.5467
    9DOPE   H8Y 1132   2.046   5.421   5.639 -0.9128  0.0065  0.8443
    9DOPE   C39 1133   2.153   5.302   5.488 -0.3480  0.7042 -0.4087
    9DOPE   H9X 1134   2.173   5.197   5.463 -1.7200  0.5586 -0.9858
    9DOPE  C310 1135   2.169   5.393   5.394 -0.2716 -0.6810 -0.1168
    9DOPE  H10X 1136   2.203   5.362   5.294 -1.4508  1.2948 -1.1979
    9DOPE  C311 1137   2.156   5.544   5.407  0.0187 -0.7914 -0.0329
    9DOPE  H11X 1138   2.073   5.575   5.475  0.0218 -1.3581  0.2378
    9DOPE  H11Y 1139   2.254   5.590   5.432 -0.4848  0.9728 -1.1501
    9DOPE  C312 1140   2.105   5.615   5.279  0.3260  0.1959  0.5529
    9DOPE  H12X 1141   2.100   5.725   5.296  3.2757  0.6139 -0.6445
    9DOPE  H12Y 1142   2.012   5.569   5.241  2.4452 -1.8507 -2.6789
    9DOPE  C313 1143   2.202   5.616   5.158  0.0577 -0.1960  0.2315
    9DOPE  H13X 1144   2.289   5.681   5.179  0.1227 -0.5552  1.1031
    9DOPE  H13Y 1145   2.239   5.514   5.137 -1.7146 -1.1349  1.3710
    9DOPE  C314 1146   2.132   5.682   5.039 -0.6352 -0.1892  0.3168
    9DOPE  H14X 1147   2.115   5.786   5.076  2.3112 -0.2215  2.1035
    9DOPE  H14Y 1148   2.040   5.630   5.004 -0.6906 -0.3174  0.6415
    9DOPE  C315 1149   2.226   5.695   4.914 -0.5765 -0.6906 -0.1073
    9DOPE  H15X 1150   2.264   5.595   4.887  1.0148 -0.3869  0.8842
    9DOPE  H15Y 1151   2.313   5.756   4.948 -0.0921  0.1668 -2.7002
    9DOPE  C316 1152   2.147   5.763   4.790 -0.9939 -0.7875  0.0923
    9DOPE  H16X 1153   2.118   5.857   4.842  0.9226 -1.7815  3.2892
    9DOPE  H16Y 1154   2.067   5.700   4.746  0.0193 -2.0138 -0.0523
    9DOPE  C317 1155   2.229   5.807   4.664 -0.1301  0.1455 -0.2928
    9DOPE  H17X 1156   2.292   5.721   4.633 -0.9110 -0.7014  0.4078
    9DOPE  H17Y 1157   2.161   5.815   4.576 -1.3340  0.8002  0.6606
    9DOPE  C318 1158   2.322   5.930   4.678 -0.8158 -0.2174  0.1253
    9DOPE  H18X 1159   2.260   6.021   4.693  1.4219  0.8095  4.9447
    9DOPE  H18Y 1160   2.385   5.926   4.769  2.1602  1.5390 -1.6858
    9DOPE  H18Z 1161   2.390   5.945   4.591 -0.5527 -2.8300 -0.1826
   10DOPE     N 1162   3.009   6.115   6.944 -0.1184 -0.5134 -0.0642
   10DOPE   HN1 1163   2.981   6.112   6.844  0.9878  0.2320 -0.4198
   10DOPE   HN2 1164   2.998   6.208   6.988  0.8211 -1.4923  2.4159
   10DOPE   HN3 1165   3.111   6.094   6.944 -0.0961 -0.8393 -2.8982
   10DOPE   C12 1166   2.920   6.027   7.028  0.0042 -0.0755  0.5044
   10DOPE  H12A 1167   2.946   6.044   7.135 -0.0401 -1.4122  0.7456
   10DOPE  H12B 1168   2.952   5.923   7.006  0.1295 -0.2931  1.6609
   10DOPE   C11 1169   2.768   6.056   7.002  0.2204  0.2684 -0.2814
   10DOPE  H11A 1170   2.750   6.165   7.006  1.6221  0.6610 -2.4136
   10DOPE  H11B 1171   2.704   6.013   7.081 -0.2082  0.4277 -0.5421
   10DOPE     P 1172   2.692   5.850   6.848 -0.0491 -0.4601 -0.1812
   10DOPE   O13 1173   2.705   5.770   6.971  0.0812 -0.2465 -0.1828
   10DOPE   O14 1174   2.762   5.811   6.723  0.9375  0.0438 -0.5317
   10DOPE   O11 1175   2.532   5.858   6.826  0.7575 -0.0775 -0.6279
   10DOPE   O12 1176   2.730   6.004   6.878  0.0848  0.5245 -0.7766
   10DOPE    C1 1177   2.451   5.976   6.830 -0.1834 -0.1811 -0.0423
   10DOPE    HA 1178   2.462   6.037   6.922  0.4407 -0.5968  0.1604
   10DOPE    HB 1179   2.349   5.934   6.843 -0.1455  0.0132  0.9172
   10DOPE    C2 1180   2.453   6.059   6.693  0.2603 -0.5779  0.2177
   10DOPE    HS 1181   2.353   6.107   6.688 -0.2744 -1.6625  0.1678
   10DOPE   O21 1182   2.487   5.971   6.584  0.1657  0.4043 -0.1336
   10DOPE   C21 1183   2.414   5.983   6.471  0.0897 -0.3345  0.0286
   10DOPE   O22 1184   2.314   6.056   6.466  0.1764 -0.6641  0.2046
   10DOPE   C22 1185   2.464   5.877   6.368  0.3650  0.3619  0.0704
   10DOPE   H2R 1186   2.404   5.783   6.376  0.7860 -0.0060 -0.8461
   10DOPE   H2S 1187   2.567   5.843   6.391  1.0453  2.2194 -0.0989
   10DOPE    C3 1188   2.555   6.180   6.695 -0.5163 -0.3534 -0.3377
   10DOPE    HX 1189   2.653   6.127   6.702 -0.9714 -1.0090  2.2596
   10DOPE    HY 1190   2.548   6.241   6.787  0.2294  0.7392 -0.9932
   10DOPE   O31 1191   2.541   6.259   6.575 -0.3531  0.7287 -0.1156
   10DOPE   C31 1192   2.454   6.354   6.585  0.3314 -0.6127  1.0344
   10DOPE   O32 1193   2.396   6.380   6.689  0.2447 -0.2667  0.0386
   10DOPE   C32 1194   2.437   6.425   6.450  0.2038 -0.0852 -0.5926
   10DOPE   H2X 1195   2.329   6.448   6.435  0.2720  0.6812  0.0281
   10DOPE   H2Y 1196   2.490   6.522   6.457 -0.1031  0.0724 -0.3981
   10DOPE   C23 1197   2.452   5.936   6.224 -0.1291 -0.5618  0.3010
   10DOPE   H3R 1198   2.511   5.879   6.149 -1.7424  1.4860 -2.7466
   10DOPE   H3S 1199   2.484   6.043   6.226  0.7009 -0.8012 -0.1673
   10DOPE   C24 1200   2.314   5.929   6.171  1.0551  0.4554 -0.1093
   10DOPE   H4R 1201   2.247   5.994   6.231 -2.0280 -2.8297  0.3786
   10DOPE   H4S 1202   2.267   5.829   6.185  0.0651  0.5351 -2.4662
   10DOPE   C25 1203   2.276   5.974   6.029  0.2661 -0.0210 -0.1580
   10DOPE   H5R 1204   2.304   6.082   6.028 -0.0812  0.0745 -1.1429
   10DOPE   H5S 1205   2.166   5.978   6.014  0.3763  0.2898 -0.9662
   10DOPE   C26 1206   2.340   5.899   5.916  0.7329  0.7384 -0.3868
   10DOPE   H6R 1207   2.305   5.794   5.913  2.7098  0.0619 -2.8055
   10DOPE   H6S 1208   2.451   5.893   5.918  0.6592 -1.0982  0.0958
   10DOPE   C27 1209   2.273   5.945   5.787 -0.2198 -0.1687  0.7302
   10DOPE   H7R 1210   2.307   6.048   5.762 -0.4680 -0.5812 -1.5695
   10DOPE   H7S 1211   2.162   5.946   5.795 -0.2154 -1.3127  1.1687
   10DOPE   C28 1212   2.307   5.845   5.668  0.2605 -0.1804  0.0469
   10DOPE   H8R 1213   2.225   5.837   5.593  1.0665 -1.8029 -0.7185
   10DOPE   H8S 1214   2.309   5.745   5.717 -0.6486 -0.6761 -0.8892
   10DOPE   C29 1215   2.445   5.853   5.609 -0.5291 -0.7871  0.7650
   10DOPE   H9R 1216   2.532   5.840   5.674 -1.5859 -1.8528  2.0156
   10DOPE  C210 1217   2.466   5.888   5.481 -0.0245 -0.8415 -0.0056
   10DOPE  H10R 1218   2.570   5.900   5.447 -0.5612  0.3097 -1.3352
   10DOPE  C211 1219   2.367   5.922   5.374 -0.0994 -0.1369  0.1377
   10DOPE  H11R 1220   2.289   5.992   5.411 -0.6894  0.7525 -2.5574
   10DOPE  H11S 1221   2.313   5.825   5.361  1.2329 -0.9267  0.3553
   10DOPE  C212 1222   2.432   5.979   5.250  0.0099 -0.2570  0.0785
   10DOPE  H12R 1223   2.485   5.902   5.190  0.4102 -0.0653  0.1821
   10DOPE  H12S 1224   2.494   6.063   5.287 -1.2029  1.5812 -1.8299
   10DOPE  C213 1225   2.324   6.040   5.155 -0.0063 -0.5597  1.0986
   10DOPE  H13R 1226   2.249   6.101   5.211 -1.8865 -0.6814 -1.1556
   10DOPE  H13S 1227   2.267   5.963   5.099  1.9315 -1.0659 -0.2899
   10DOPE  C214 1228   2.389   6.131   5.045  0.9261  0.0241  0.3135
   10DOPE  H14R 1229   2.420   6.061   4.965  2.1338 -0.1605  0.9301
   10DOPE  H14S 1230   2.474   6.184   5.093  0.4751  1.6940 -0.6297
   10DOPE  C215 1231   2.290   6.245   4.987  0.0926 -0.3096 -0.1357
   10DOPE  H15R 1232   2.271   6.315   5.071  1.1930 -0.6223  0.3928
   10DOPE  H15S 1233   2.193   6.197   4.959  0.3734 -0.2967 -1.1532
   10DOPE  C216 1234   2.351   6.310   4.860  0.3510 -0.4057 -0.1400
   10DOPE  H16R 1235   2.349   6.230   4.783 -1.9809  0.1421 -0.7182
   10DOPE  H16S 1236   2.460   6.328   4.869  0.4951  0.1927 -2.4460
   10DOPE  C217 1237   2.270   6.437   4.806 -0.1268 -0.5059 -0.0115
   10DOPE  H17R 1238   2.163   6.407   4.799 -0.9966  2.7323 -3.7265
   10DOPE  H17S 1239   2.308   6.468   4.707  3.0692 -2.5210  0.4228
   10DOPE  C218 1240   2.278   6.557   4.898  0.2079 -0.1022 -0.3332
   10DOPE  H18R 1241   2.228   6.639   4.843 -0.1367  1.1630  1.7613
   10DOPE  H18S 1242   2.383   6.578   4.928  0.4899 -2.3687  0.5065
   10DOPE  H18T 1243   2.218   6.534   4.988 -0.3378 -3.6758 -1.4512
   10DOPE   C33 1244   2.481   6.349   6.326  0.5509  0.4814  0.1825
   10DOPE   H3X 1245   2.441   6.246   6.323  1.8654 -0.0232 -1.0810
   10DOPE   H3Y 1246   2.590   6.328   6.326  0.6032  0.3515 -3.0952
   10DOPE   C34 1247   2.433   6.407   6.193 -0.7521  0.2015  0.0313
   10DOPE   H4X 1248   2.323   6.420   6.205 -0.4146  1.4269  2.6537
   10DOPE   H4Y 1249   2.484   6.506   6.186  0.3243 -0.2069  1.4831
   10DOPE   C35 1250   2.475   6.326   6.069 -0.2079 -0.2293 -0.4784
   10DOPE   H5X 1251   2.402   6.243   6.077  0.6856 -1.0895 -1.0561
   10DOPE   H5Y 1252   2.576   6.284   6.087 -0.2337 -0.4042 -0.7427
   10DOPE   C36 1253   2.460   6.415   5.946  0.0310 -0.1490  0.3207
   10DOPE   H6X 1254   2.546   6.481   5.923 -0.3594  0.1343 -0.3731
   10DOPE   H6Y 1255   2.368   6.478   5.951  0.4670  0.4915  0.3054
   10DOPE   C37 1256   2.458   6.328   5.819  0.0587 -0.2290 -0.3995
   10DOPE   H7X 1257   2.566   6.306   5.802  0.5175  0.5285  1.3325
   10DOPE   H7Y 1258   2.389   6.241   5.824  1.8117 -1.7948 -2.0494
   10DOPE   C38 1259   2.420   6.406   5.692  0.2987  0.0966  0.3660
   10DOPE   H8X 1260   2.501   6.480   5.677  2.0359 -1.4174  1.7341
   10DOPE   H8Y 1261   2.324   6.459   5.709 -0.0023 -0.6365  0.9838
   10DOPE   C39 1262   2.416   6.326   5.566 -0.1538  0.0798 -0.6713
   10DOPE   H9X 1263   2.400   6.219   5.589 -5.0617  0.2122 -2.2514
   10DOPE  C310 1264   2.427   6.375   5.437  0.0901 -0.4864 -0.4456
   10DOPE  H10X 1265   2.417   6.306   5.352 -1.2736 -0.1568 -0.5728
   10DOPE  C311 1266   2.437   6.520   5.395 -0.3335  0.3138  0.3165
   10DOPE  H11X 1267   2.376   6.538   5.304  0.0950 -1.4009 -0.3445
   10DOPE  H11Y 1268   2.392   6.592   5.467 -1.0558  3.1699 -2.7219
   10DOPE  C312 1269   2.588   6.568   5.378 -0.0437 -0.2985 -0.6296
   10DOPE  H12X 1270   2.643   6.531   5.467  0.0084  1.4762  0.1011
   10DOPE  H12Y 1271   2.598   6.678   5.384  0.7695 -0.3470 -0.9381
   10DOPE  C313 1272   2.665   6.521   5.255 -0.0611  0.4392  0.1509
   10DOPE  H13X 1273   2.775   6.529   5.263  0.3469 -2.5171 -1.0896
   10DOPE  H13Y 1274   2.640   6.415   5.231 -0.0836  0.8630 -1.7933
   10DOPE  C314 1275   2.629   6.579   5.117 -0.3519 -0.1527  0.5282
   10DOPE  H14X 1276   2.657   6.686   5.114 -1.2298  0.0625 -0.6338
   10DOPE  H14Y 1277   2.520   6.578   5.094 -0.6808 -0.6823  2.0306
   10DOPE  C315 1278   2.701   6.512   4.995  0.6999  0.5564 -0.3719
   10DOPE  H15X 1279   2.654   6.547   4.901 -0.7072 -0.8897 -0.2386
   10DOPE  H15Y 1280   2.683   6.402   4.999 -1.7937  0.8967 -0.8829
   10DOPE  C316 1281   2.851   6.533   5.004  0.3084  0.2708  0.1813
   10DOPE  H16X 1282   2.885   6.473   5.091 -1.2885 -1.1172 -0.0875
   10DOPE  H16Y 1283   2.874   6.639   5.027  0.7026  0.4585 -1.0112
   10DOPE  C317 1284   2.915   6.476   4.877  0.0633 -0.2386 -0.0969
   10DOPE  H17X 1285   2.865   6.378   4.868 -1.1153  0.0491  2.3632
   10DOPE  H17Y 1286   2.891   6.533   4.785 -1.5248 -0.9896 -0.1743
   10DOPE  C318 1287   3.069   6.449   4.892  0.5327  0.4064  0.2698
   10DOPE  H18X 1288   3.134   6.539   4.891 -0.8087  1.4092  0.0645
   10DOPE  H18Y 1289   3.097   6.389   4.981 -2.0810 -2.7325 -0.8128
   10DOPE  H18Z 1290   3.107   6.384   4.809 -0.3147 -2.0399  1.7002
   11DOPE     N 1291   0.929   2.711   7.274 -0.2706  0.0201  0.0374
   11DOPE   HN1 1292   0.906   2.811   7.257 -1.7279 -0.2615  0.2373
   11DOPE   HN2 1293   0.838   2.661   7.284  0.2137 -0.6436  1.4065
   11DOPE   HN3 1294   0.984   2.707   7.362  2.2761  4.3291 -1.0599
   11DOPE   C12 1295   1.003   2.639   7.166  0.1747 -0.5891 -0.0495
   11DOPE  H12A 1296   0.953   2.654   7.068 -2.5822 -1.5018  1.1286
   11DOPE  H12B 1297   1.011   2.530   7.185 -1.1234 -0.4350  1.5467
   11DOPE   C11 1298   1.153   2.690   7.167  0.0664 -0.0460  0.0344
   11DOPE  H11A 1299   1.144   2.798   7.143  1.4579  0.1255  0.1953
   11DOPE  H11B 1300   1.203   2.620   7.097  1.7327 -1.8588  2.8569
   11DOPE     P 1301   1.335   2.601   7.333  0.2674 -0.2316  0.0131
   11DOPE   O13 1302   1.282   2.465   7.350  0.2144  0.5318 -0.0354
   11DOPE   O14 1303   1.408   2.647   7.453  0.4354  0.5715 -0.0527
   11DOPE   O11 1304   1.450   2.611   7.216 -0.0742 -1.0823 -0.3486
   11DOPE   O12 1305   1.218   2.697   7.301 -0.0565 -0.3908 -0.0448
   11DOPE    C1 1306   1.477   2.504   7.128 -0.0764  1.0252  0.2630
   11DOPE    HA 1307   1.384   2.444   7.115 -0.0064  0.5334  1.8864
   11DOPE    HB 1308   1.547   2.429   7.170 -0.0407  0.5060 -0.6956
   11DOPE    C2 1309   1.520   2.550   6.984 -0.5150  0.0773 -0.3453
   11DOPE    HS 1310   1.626   2.584   6.982 -0.7841  0.9319 -0.6805
   11DOPE   O21 1311   1.436   2.653   6.933  0.7159 -0.2813 -0.1964
   11DOPE   C21 1312   1.496   2.770   6.903 -0.1093 -0.6173 -0.1086
   11DOPE   O22 1313   1.614   2.794   6.913 -0.2728  0.0783 -0.1392
   11DOPE   C22 1314   1.386   2.866   6.847 -0.6340 -0.0641  0.2717
   11DOPE   H2R 1315   1.437   2.956   6.806 -2.4550  0.4118 -1.0375
   11DOPE   H2S 1316   1.322   2.894   6.934 -0.7143 -0.4724  0.3465
   11DOPE    C3 1317   1.521   2.442   6.870  0.0192  0.0814  0.0242
   11DOPE    HX 1318   1.415   2.422   6.844 -0.5726  0.0713  2.2932
   11DOPE    HY 1319   1.572   2.352   6.908  1.6488  1.2571  0.7436
   11DOPE   O31 1320   1.594   2.488   6.755  0.4358 -0.1810  0.0925
   11DOPE   C31 1321   1.731   2.494   6.758  0.3296  0.1622 -0.0506
   11DOPE   O32 1322   1.801   2.444   6.842  0.1480 -0.2305 -0.4158
   11DOPE   C32 1323   1.781   2.579   6.644  1.1510 -0.0769  0.4483
   11DOPE   H2X 1324   1.819   2.511   6.565  1.5823  0.7390 -0.0617
   11DOPE   H2Y 1325   1.697   2.638   6.601  0.0173 -0.3269  2.2115
   11DOPE   C23 1326   1.299   2.803   6.731  0.1551  0.0655  0.7219
   11DOPE   H3R 1327   1.219   2.879   6.717 -0.1661 -0.2457  0.8260
   11DOPE   H3S 1328   1.243   2.712   6.764  0.6628 -0.9463 -1.0693
   11DOPE   C24 1329   1.372   2.767   6.606  0.5380 -0.0427  0.1349
   11DOPE   H4R 1330   1.294   2.738   6.532  1.1038  0.0350 -0.5024
   11DOPE   H4S 1331   1.424   2.670   6.617  1.4296  0.1041 -2.3336
   11DOPE   C25 1332   1.472   2.869   6.535 -0.5291  0.4127  0.3260
   11DOPE   H5R 1333   1.557   2.880   6.606 -0.6460  0.6567  0.4247
   11DOPE   H5S 1334   1.429   2.971   6.530  0.3228  0.8357  1.2109
   11DOPE   C26 1335   1.524   2.830   6.398 -0.1736  0.0763  0.3686
   11DOPE   H6R 1336   1.572   2.730   6.399  0.7353  0.4526 -1.0571
   11DOPE   H6S 1337   1.610   2.895   6.370  1.1953 -1.6536  0.3669
   11DOPE   C27 1338   1.419   2.853   6.295 -0.6638 -0.5204 -0.2086
   11DOPE   H7R 1339   1.369   2.951   6.310 -1.8530 -1.2659  0.9074
   11DOPE   H7S 1340   1.334   2.781   6.304 -0.3676 -0.8970 -0.3965
   11DOPE   C28 1341   1.477   2.853   6.148 -0.3546 -0.7800  0.5204
   11DOPE   H8R 1342   1.559   2.927   6.134 -0.6454 -0.1513  1.9975
   11DOPE   H8S 1343   1.386   2.876   6.088 -0.7048 -1.4073  0.8003
   11DOPE   C29 1344   1.536   2.723   6.104 -1.0472  0.5044 -0.3857
   11DOPE   H9R 1345   1.595   2.663   6.174 -0.8721  1.2999  0.1548
   11DOPE  C210 1346   1.532   2.672   5.978  0.2354 -0.3698  0.2258
   11DOPE  H10R 1347   1.569   2.571   5.955  0.2089 -0.0195 -1.4797
   11DOPE  C211 1348   1.474   2.746   5.862  0.4258 -0.3982 -0.1761
   11DOPE  H11R 1349   1.470   2.856   5.879 -1.7239 -0.2053 -1.5481
   11DOPE  H11S 1350   1.374   2.706   5.834  0.2358  1.3151 -2.2494
   11DOPE  C212 1351   1.567   2.746   5.735  0.5816 -0.1125 -0.1755
   11DOPE  H12R 1352   1.662   2.795   5.768  0.9834 -0.9541 -0.0650
   11DOPE  H12S 1353   1.521   2.818   5.664  0.5780  0.4115  0.3507
   11DOPE  C213 1354   1.602   2.610   5.678 -0.5043 -0.8171  0.4505
   11DOPE  H13R 1355   1.673   2.549   5.739 -2.8090 -1.6239  2.4701
   11DOPE  H13S 1356   1.645   2.624   5.577  0.5257  0.5139  1.0425
   11DOPE  C214 1357   1.474   2.517   5.658 -1.0882  0.1441 -0.1177
   11DOPE  H14R 1358   1.397   2.573   5.601 -2.1412  0.3220  1.3960
   11DOPE  H14S 1359   1.425   2.497   5.756 -1.2102 -2.5048 -0.6519
   11DOPE  C215 1360   1.497   2.385   5.584 -0.5940  0.7702 -0.2400
   11DOPE  H15R 1361   1.567   2.332   5.652 -0.7407  1.3221  0.3547
   11DOPE  H15S 1362   1.544   2.402   5.485 -0.5634 -0.8526 -0.5237
   11DOPE  C216 1363   1.367   2.307   5.548  0.5644 -0.0703 -0.0653
   11DOPE  H16R 1364   1.305   2.349   5.466  1.2343 -2.3750 -1.8708
   11DOPE  H16S 1365   1.310   2.294   5.643  0.6920 -1.4711 -0.1536
   11DOPE  C217 1366   1.405   2.167   5.506  0.4799  0.5447  0.1401
   11DOPE  H17R 1367   1.323   2.101   5.543  2.3358 -1.3043  1.1857
   11DOPE  H17S 1368   1.486   2.120   5.567 -2.4597 -1.2143  3.0594
   11DOPE  C218 1369   1.427   2.145   5.357 -0.0198 -0.0080 -0.0015
   11DOPE  H18R 1370   1.346   2.186   5.294 -1.4996 -1.0187  1.1704
   11DOPE  H18S 1371   1.453   2.040   5.329 -0.2657  0.3738 -1.7114
   11DOPE  H18T 1372   1.505   2.215   5.319 -1.5565  0.5988 -2.1839
   11DOPE   C33 1373   1.901   2.665   6.686  0.2501  0.9327  0.7278
   11DOPE   H3X 1374   1.978   2.602   6.736 -0.0272 -2.6168 -2.8478
   11DOPE   H3Y 1375   1.870   2.746   6.756 -0.9221  0.2643  1.0014
   11DOPE   C34 1376   1.966   2.745   6.568  0.2346 -0.1912 -0.0991
   11DOPE   H4X 1377   2.025   2.678   6.503  0.8081  0.2338 -0.0217
   11DOPE   H4Y 1378   1.873   2.769   6.513  0.5650  1.2060 -0.0950
   11DOPE   C35 1379   2.033   2.866   6.616 -0.2081  0.2179  0.1028
   11DOPE   H5X 1380   1.967   2.927   6.681 -0.7767  0.0523 -0.3110
   11DOPE   H5Y 1381   2.039   2.943   6.536  0.5456  1.7829  1.6059
   11DOPE   C36 1382   2.177   2.844   6.670  0.5884  0.0707 -0.1927
   11DOPE   H6X 1383   2.175   2.761   6.743  1.3923  0.5995  0.4611
   11DOPE   H6Y 1384   2.220   2.934   6.721  0.0493  0.9176 -1.1970
   11DOPE   C37 1385   2.282   2.809   6.563  0.4774  1.2363  0.7699
   11DOPE   H7X 1386   2.246   2.722   6.505  1.2238  0.7161  1.0836
   11DOPE   H7Y 1387   2.284   2.889   6.486 -1.9449 -2.2678 -3.3694
   11DOPE   C38 1388   2.427   2.782   6.608 -0.7318  0.2381 -0.4669
   11DOPE   H8X 1389   2.488   2.875   6.609 -1.8170  1.0555 -2.7402
   11DOPE   H8Y 1390   2.474   2.725   6.525  0.7722 -1.8855  1.7131
   11DOPE   C39 1391   2.443   2.692   6.724 -0.9874 -0.6970 -0.1058
   11DOPE   H9X 1392   2.509   2.739   6.798  0.2287 -0.3946 -1.3338
   11DOPE  C310 1393   2.397   2.566   6.733  0.5289 -0.1031 -0.4901
   11DOPE  H10X 1394   2.411   2.513   6.828 -0.1865 -2.6668 -1.7097
   11DOPE  C311 1395   2.329   2.481   6.623 -0.1808 -0.4402 -0.1932
   11DOPE  H11X 1396   2.222   2.482   6.653  0.4984  0.3408  2.5571
   11DOPE  H11Y 1397   2.337   2.529   6.523 -0.2119  0.1164  0.0689
   11DOPE  C312 1398   2.376   2.336   6.615 -0.8330 -0.2239 -0.8542
   11DOPE  H12X 1399   2.304   2.289   6.544  0.3770 -1.8847 -1.0388
   11DOPE  H12Y 1400   2.355   2.285   6.711 -1.5994 -0.7456 -1.2823
   11DOPE  C313 1401   2.515   2.318   6.559 -0.2048  0.5082  0.7330
   11DOPE  H13X 1402   2.534   2.369   6.461  0.6669 -0.5637  0.3234
   11DOPE  H13Y 1403   2.588   2.357   6.633 -0.3784 -0.9690  1.7136
   11DOPE  C314 1404   2.550   2.168   6.547 -0.4591  0.2980  0.0262
   11DOPE  H14X 1405   2.511   2.103   6.628 -0.7818  0.8501  0.3227
   11DOPE  H14Y 1406   2.660   2.164   6.559 -0.3941  1.0728 -0.2408
   11DOPE  C315 1407   2.530   2.110   6.407  0.5133  0.2135 -0.2572
   11DOPE  H15X 1408   2.527   2.193   6.333 -0.5339 -1.8927 -2.7347
   11DOPE  H15Y 1409   2.428   2.068   6.408  0.0257  1.3332  1.7938
   11DOPE  C316 1410   2.641   2.020   6.360 -0.2836  0.2388 -0.0729
   11DOPE  H16X 1411   2.661   1.946   6.440  1.9210  1.0982  0.2335
   11DOPE  H16Y 1412   2.737   2.069   6.336  1.3928 -3.1187 -0.8503
   11DOPE  C317 1413   2.603   1.944   6.235 -0.0194 -0.4917 -0.3405
   11DOPE  H17X 1414   2.509   1.888   6.252 -0.1458 -0.2242 -0.1355
   11DOPE  H17Y 1415   2.589   2.028   6.164  1.7268  0.6630  0.5795
   11DOPE  C318 1416   2.711   1.860   6.187  0.1752 -0.1529 -0.1443
   11DOPE  H18X 1417   2.668   1.797   6.107 -2.3897  1.1487  0.0987
   11DOPE  H18Y 1418   2.790   1.928   6.149 -0.3078 -0.0373 -0.9462
   11DOPE  H18Z 1419   2.748   1.798   6.272 -0.0599  1.8932  1.5385
   12DOPE     N 1420   4.138   7.010   7.380  0.1235 -0.2053 -0.2314
   12DOPE   HN1 1421   4.211   7.026   7.451  0.5026  0.4182 -0.7523
   12DOPE   HN2 1422   4.131   7.090   7.314  0.1639 -0.1968 -0.2250
   12DOPE   HN3 1423   4.048   6.993   7.430  1.6130 -3.2867  1.7536
   12DOPE   C12 1424   4.175   6.884   7.307  0.2713 -0.2378 -0.0194
   12DOPE  H12A 1425   4.213   6.808   7.378  1.8457 -1.8605 -2.4511
   12DOPE  H12B 1426   4.254   6.917   7.236 -0.7355  2.7985  0.1035
   12DOPE   C11 1427   4.055   6.829   7.220 -0.6330  0.6016 -0.3147
   12DOPE  H11A 1428   3.986   6.789   7.298  0.7527 -1.4306 -0.0606
   12DOPE  H11B 1429   4.103   6.744   7.169 -0.3138  1.0032 -0.6866
   12DOPE     P 1430   3.888   6.871   7.028  0.1824  0.5490 -0.3576
   12DOPE   O13 1431   3.813   6.982   6.964 -0.2077  0.0553  0.4599
   12DOPE   O14 1432   3.801   6.780   7.107 -0.0444  0.5756 -0.1036
   12DOPE   O11 1433   3.972   6.797   6.921  0.3633 -0.6927 -0.1258
   12DOPE   O12 1434   4.003   6.927   7.127  0.0849 -0.1105 -0.1417
   12DOPE    C1 1435   4.013   6.885   6.805 -0.1699  0.2664 -0.4010
   12DOPE    HA 1436   3.924   6.936   6.763  0.4642  0.7073 -1.2448
   12DOPE    HB 1437   4.054   6.816   6.727 -0.6540 -0.9188  0.3697
   12DOPE    C2 1438   4.123   7.000   6.829 -0.6673 -0.0564  0.1276
   12DOPE    HS 1439   4.092   7.063   6.915 -1.7372  1.0158 -0.9978
   12DOPE   O21 1440   4.136   7.080   6.707 -0.2520  0.2616  0.3003
   12DOPE   C21 1441   4.211   7.188   6.726  0.4493 -0.7351  0.0806
   12DOPE   O22 1442   4.260   7.226   6.833  0.6636 -0.8072 -0.1152
   12DOPE   C22 1443   4.210   7.285   6.606  0.5139  0.9487  0.4802
   12DOPE   H2R 1444   4.315   7.319   6.617  0.7819 -0.2778  2.2100
   12DOPE   H2S 1445   4.125   7.352   6.628 -1.1692 -1.2769  1.2020
   12DOPE    C3 1446   4.257   6.928   6.862  0.0009 -0.3534  0.0089
   12DOPE    HX 1447   4.240   6.867   6.953  1.3892  1.8159  1.8396
   12DOPE    HY 1448   4.343   6.994   6.885 -0.2656  0.6650 -1.7040
   12DOPE   O31 1449   4.300   6.828   6.766  0.1283  0.0079  0.2421
   12DOPE   C31 1450   4.397   6.868   6.686  0.5563 -0.2859 -0.0041
   12DOPE   O32 1451   4.445   6.981   6.682 -0.0409  0.1487 -0.1070
   12DOPE   C32 1452   4.425   6.744   6.603  0.1880  0.3041 -0.0943
   12DOPE   H2X 1453   4.518   6.767   6.545  1.0119 -4.0850 -0.8879
   12DOPE   H2Y 1454   4.447   6.658   6.669  0.3793  0.7107  0.3734
   12DOPE   C23 1455   4.196   7.212   6.468 -0.1362 -0.2427 -0.3140
   12DOPE   H3R 1456   4.106   7.147   6.465  1.5400 -2.7082 -0.1006
   12DOPE   H3S 1457   4.285   7.152   6.440  0.8143 -0.1599  2.3028
   12DOPE   C24 1458   4.165   7.315   6.361 -0.0789  0.5067  0.2713
   12DOPE   H4R 1459   4.250   7.383   6.342 -0.4623  0.8059 -0.4339
   12DOPE   H4S 1460   4.089   7.382   6.406 -1.0228 -1.2741  1.4374
   12DOPE   C25 1461   4.108   7.261   6.225 -0.1620 -0.0488  0.1258
   12DOPE   H5R 1462   4.006   7.219   6.236 -1.1596  1.2727 -2.9835
   12DOPE   H5S 1463   4.172   7.182   6.182 -1.1050 -0.3114 -0.8561
   12DOPE   C26 1464   4.101   7.374   6.119 -0.2774 -0.1644 -0.1574
   12DOPE   H6R 1465   4.204   7.417   6.121 -0.2734 -0.1981  1.3340
   12DOPE   H6S 1466   4.031   7.458   6.140 -1.2923 -0.5643 -1.7345
   12DOPE   C27 1467   4.061   7.312   5.980 -0.0961 -0.0270 -0.0235
   12DOPE   H7R 1468   3.962   7.262   5.984 -0.3325  0.1964 -1.9023
   12DOPE   H7S 1469   4.133   7.238   5.940  0.8898  1.1550 -0.4955
   12DOPE   C28 1470   4.044   7.417   5.868  0.4644 -0.4485 -0.2221
   12DOPE   H8R 1471   3.978   7.498   5.907 -1.1983 -0.7990 -2.1265
   12DOPE   H8S 1472   3.983   7.356   5.797 -0.6043 -1.3405  1.3969
   12DOPE   C29 1473   4.170   7.464   5.812 -0.1204 -0.4566 -0.5486
   12DOPE   H9R 1474   4.217   7.395   5.740  1.0399 -1.2849  0.9643
   12DOPE  C210 1475   4.213   7.595   5.809  0.4825  0.7690  0.3784
   12DOPE  H10R 1476   4.299   7.610   5.743  0.9287  1.2053  1.0428
   12DOPE  C211 1477   4.147   7.717   5.864 -0.2340  0.1461  0.4193
   12DOPE  H11R 1478   4.049   7.694   5.911 -1.3490 -2.0152 -2.6098
   12DOPE  H11S 1479   4.119   7.789   5.784 -1.6548  0.9123  1.5639
   12DOPE  C212 1480   4.238   7.807   5.955  0.6489  0.5363 -0.0373
   12DOPE  H12R 1481   4.179   7.888   6.003  3.0544  1.6905  1.1546
   12DOPE  H12S 1482   4.311   7.856   5.887  1.1632  0.3140  0.3531
   12DOPE  C213 1483   4.315   7.724   6.059  0.9376 -0.0091  0.0200
   12DOPE  H13R 1484   4.380   7.643   6.017  1.1307 -1.0775  2.2384
   12DOPE  H13S 1485   4.238   7.653   6.097 -0.7784 -0.1419 -3.3471
   12DOPE  C214 1486   4.391   7.792   6.178  0.1264 -0.3653  0.4641
   12DOPE  H14R 1487   4.423   7.890   6.136 -0.4476 -0.1934  0.4314
   12DOPE  H14S 1488   4.480   7.733   6.210  1.1024  1.6077  1.5824
   12DOPE  C215 1489   4.305   7.808   6.303  0.2859 -0.1992 -0.2881
   12DOPE  H15R 1490   4.266   7.711   6.338 -2.2052  1.1640  0.9949
   12DOPE  H15S 1491   4.212   7.859   6.270 -0.4499 -0.4193  1.3382
   12DOPE  C216 1492   4.392   7.880   6.410 -0.7484 -0.3936  0.1811
   12DOPE  H16R 1493   4.334   7.927   6.493  0.9570  1.0547  0.6318
   12DOPE  H16S 1494   4.431   7.967   6.353  0.1462 -0.2584  0.9716
   12DOPE  C217 1495   4.498   7.792   6.482 -0.4234 -0.3139  0.1173
   12DOPE  H17R 1496   4.569   7.867   6.522 -0.7924  1.9162 -3.0216
   12DOPE  H17S 1497   4.554   7.735   6.405  0.9584 -0.5250  1.2391
   12DOPE  C218 1498   4.438   7.692   6.586  0.4256 -0.2761  0.1337
   12DOPE  H18R 1499   4.523   7.634   6.629  1.2769 -0.5155 -1.7578
   12DOPE  H18S 1500   4.365   7.622   6.540 -4.0601  2.1404  2.8822
   12DOPE  H18T 1501   4.372   7.746   6.657 -0.2077 -0.8004 -0.0450
   12DOPE   C33 1502   4.315   6.699   6.502  0.5181  0.1564  0.0041
   12DOPE   H3X 1503   4.225   6.666   6.557 -1.7435  2.6633 -1.9385
   12DOPE   H3Y 1504   4.362   6.614   6.448  2.0798  1.1174 -0.2273
   12DOPE   C34 1505   4.284   6.808   6.398  0.0630 -0.0042  0.5254
   12DOPE   H4X 1506   4.207   6.875   6.444  0.3869 -0.4434  1.7471
   12DOPE   H4Y 1507   4.382   6.859   6.382  0.0596  0.0518  0.6782
   12DOPE   C35 1508   4.224   6.756   6.266 -0.9205  0.3198 -0.1822
   12DOPE   H5X 1509   4.120   6.717   6.274 -0.9441 -0.6658 -3.7173
   12DOPE   H5Y 1510   4.278   6.662   6.244  0.7550  1.0610  0.5896
   12DOPE   C36 1511   4.243   6.864   6.155  0.0753 -0.2478 -0.3952
   12DOPE   H6X 1512   4.352   6.861   6.132  0.5530  0.5177  1.5559
   12DOPE   H6Y 1513   4.213   6.965   6.188 -0.8058  0.2155 -2.4326
   12DOPE   C37 1514   4.157   6.833   6.025  0.2974 -0.2473  0.2337
   12DOPE   H7X 1515   4.180   6.729   5.994 -0.9698 -0.9388  1.4605
   12DOPE   H7Y 1516   4.051   6.849   6.055  0.6548 -0.9308  2.0132
   12DOPE   C38 1517   4.179   6.922   5.897  0.0790 -0.4883  0.3182
   12DOPE   H8X 1518   4.144   7.025   5.919  0.0108 -0.6239  0.8786
   12DOPE   H8Y 1519   4.110   6.887   5.818 -0.5376  2.3335 -0.4829
   12DOPE   C39 1520   4.319   6.909   5.840 -0.3167 -0.2543  0.4759
   12DOPE   H9X 1521   4.336   6.822   5.776 -0.8317  0.7437 -1.0841
   12DOPE  C310 1522   4.415   7.004   5.834  0.2760 -0.5220  0.3506
   12DOPE  H10X 1523   4.512   6.983   5.786  1.2441  1.7123  1.1922
   12DOPE  C311 1524   4.416   7.144   5.885  0.3131 -0.7732 -0.6305
   12DOPE  H11X 1525   4.414   7.213   5.799  1.6226 -0.6730 -0.5925
   12DOPE  H11Y 1526   4.328   7.160   5.951  0.5656 -0.6215 -0.3309
   12DOPE  C312 1527   4.537   7.185   5.972 -0.3204 -0.1355 -0.6730
   12DOPE  H12X 1528   4.633   7.158   5.923 -0.3867 -2.2528  0.2868
   12DOPE  H12Y 1529   4.533   7.124   6.064 -2.6420  2.2310  0.9412
   12DOPE  C313 1530   4.522   7.342   5.994 -0.1251 -0.7021 -0.2065
   12DOPE  H13X 1531   4.539   7.388   5.895  0.9558  1.7228  1.0240
   12DOPE  H13Y 1532   4.417   7.370   6.017 -0.6721 -2.3161 -0.5540
   12DOPE  C314 1533   4.636   7.405   6.079  0.2165 -0.4508  0.6122
   12DOPE  H14X 1534   4.610   7.512   6.091 -3.1759 -0.9624 -1.0024
   12DOPE  H14Y 1535   4.734   7.383   6.032 -1.5708  0.2385 -4.0045
   12DOPE  C315 1536   4.618   7.370   6.230  1.0771  0.1734 -0.0352
   12DOPE  H15X 1537   4.605   7.261   6.248 -1.2391  0.2572 -0.9370
   12DOPE  H15Y 1538   4.517   7.411   6.253 -1.2434 -4.1896 -1.3720
   12DOPE  C316 1539   4.714   7.425   6.331  0.8470 -0.2413 -0.4445
   12DOPE  H16X 1540   4.702   7.536   6.324 -0.8013 -0.4232 -0.9214
   12DOPE  H16Y 1541   4.814   7.390   6.300  0.0644 -1.0125 -2.2387
   12DOPE  C317 1542   4.693   7.393   6.483  0.2279 -0.3825  0.3229
   12DOPE  H17X 1543   4.783   7.423   6.541  1.7242  0.0813 -2.0643
   12DOPE  H17Y 1544   4.609   7.455   6.519 -2.5652 -3.0945 -1.0592
   12DOPE  C318 1545   4.658   7.239   6.512  0.7400 -0.2736 -0.3424
   12DOPE  H18X 1546   4.693   7.164   6.439 -0.3474  0.7344 -1.9652
   12DOPE  H18Y 1547   4.701   7.216   6.612  0.4647  1.5425  0.2486
   12DOPE  H18Z 1548   4.548   7.237   6.528  0.6686  2.4767  0.0524
   13DOPE     N 1549   3.519   0.637   6.913  0.0454 -0.0547  0.3797
   13DOPE   HN1 1550   3.605   0.588   6.881  1.5226  1.4421  1.8434
   13DOPE   HN2 1551   3.432   0.613   6.863 -1.3358  3.0316  1.0526
   13DOPE   HN3 1552   3.554   0.732   6.889  0.0049 -0.1007  0.1378
   13DOPE   C12 1553   3.499   0.633   7.062  0.8438 -0.1778  0.1402
   13DOPE  H12A 1554   3.589   0.673   7.113  1.4926 -0.8040 -0.4808
   13DOPE  H12B 1555   3.470   0.537   7.110 -1.6761 -0.4874 -1.7815
   13DOPE   C11 1556   3.389   0.740   7.093 -0.1948  0.0949 -0.2792
   13DOPE  H11A 1557   3.432   0.838   7.061  0.1283 -0.1576 -0.6201
   13DOPE  H11B 1558   3.381   0.735   7.204  2.1359  1.5819  0.0195
   13DOPE     P 1559   3.177   0.841   6.982 -0.0199  0.5566 -0.6462
   13DOPE   O13 1560   3.187   0.949   7.082 -0.1602  0.3313  0.3481
   13DOPE   O14 1561   3.041   0.797   6.959  0.0773  0.2771  0.7302
   13DOPE   O11 1562   3.250   0.880   6.844  0.1359  0.6120  0.3317
   13DOPE   O12 1563   3.264   0.720   7.029  0.7383 -0.1270  0.0192
   13DOPE    C1 1564   3.246   1.012   6.787  0.2701 -0.0072 -0.7099
   13DOPE    HA 1565   3.283   1.086   6.860  0.7176 -0.8130 -0.0961
   13DOPE    HB 1566   3.140   1.031   6.757 -0.5367 -1.1287  1.2434
   13DOPE    C2 1567   3.332   1.022   6.660 -0.4348 -1.0254  0.0508
   13DOPE    HS 1568   3.441   1.018   6.683 -0.5734  0.7235  1.2135
   13DOPE   O21 1569   3.302   1.140   6.590  0.7189 -0.0675 -0.5594
   13DOPE   C21 1570   3.341   1.251   6.648  0.7250 -0.6252 -0.0912
   13DOPE   O22 1571   3.407   1.263   6.752  0.4102 -0.1204 -0.0288
   13DOPE   C22 1572   3.295   1.360   6.549  0.3939 -0.5565 -0.1267
   13DOPE   H2R 1573   3.185   1.359   6.565  0.3296 -1.7262 -0.5752
   13DOPE   H2S 1574   3.328   1.336   6.446 -1.4446 -3.0636 -0.2284
   13DOPE    C3 1575   3.313   0.894   6.568 -0.4587 -0.4338 -0.3020
   13DOPE    HX 1576   3.203   0.886   6.563 -0.4426 -1.5024  0.5893
   13DOPE    HY 1577   3.354   0.809   6.627  3.2314  0.3777 -1.4431
   13DOPE   O31 1578   3.373   0.904   6.432  0.3727 -0.7237  0.0045
   13DOPE   C31 1579   3.504   0.884   6.442  0.2318 -0.3705  0.0255
   13DOPE   O32 1580   3.566   0.862   6.546 -0.4912  0.2341  0.4089
   13DOPE   C32 1581   3.563   0.894   6.298  0.3529 -0.0665  0.1029
   13DOPE   H2X 1582   3.561   1.001   6.268 -2.7772 -0.1704 -0.4050
   13DOPE   H2Y 1583   3.665   0.851   6.301  1.0430  1.5376  2.4362
   13DOPE   C23 1584   3.351   1.505   6.591  0.2295 -0.3441 -0.2967
   13DOPE   H3R 1585   3.334   1.515   6.700 -1.4771  0.4748 -0.6033
   13DOPE   H3S 1586   3.299   1.590   6.542 -0.5364 -1.6974 -1.9382
   13DOPE   C24 1587   3.503   1.523   6.572  0.2767  0.2744 -0.1225
   13DOPE   H4R 1588   3.555   1.447   6.634  0.8281  0.3080 -0.5419
   13DOPE   H4S 1589   3.530   1.623   6.611  1.1902  0.6919 -1.7271
   13DOPE   C25 1590   3.531   1.526   6.426 -0.3100 -0.2742 -0.2439
   13DOPE   H5R 1591   3.449   1.580   6.373  0.6644  0.1078 -1.4150
   13DOPE   H5S 1592   3.529   1.424   6.383 -0.5365 -0.1217 -0.6041
   13DOPE   C26 1593   3.667   1.588   6.383  0.1052  0.1778 -0.6849
   13DOPE   H6R 1594   3.748   1.526   6.427  3.5663  3.6053 -1.6311
   13DOPE   H6S 1595   3.684   1.684   6.437  0.7327 -0.3260  0.0591
   13DOPE   C27 1596   3.694   1.590   6.239  0.5745  0.4011  0.0886
   13DOPE   H7R 1597   3.624   1.652   6.178  0.5930 -1.2794 -1.7457
   13DOPE   H7S 1598   3.688   1.485   6.205  1.0867  0.3931  0.0098
   13DOPE   C28 1599   3.830   1.652   6.204 -0.5078  0.4530 -0.3981
   13DOPE   H8R 1600   3.858   1.753   6.244  1.5342  0.9264 -2.7507
   13DOPE   H8S 1601   3.827   1.671   6.095  0.8347 -1.2158 -0.7662
   13DOPE   C29 1602   3.949   1.551   6.220 -0.1856  0.0587 -0.6683
   13DOPE   H9R 1603   3.934   1.477   6.300 -1.4685 -0.7404 -1.6122
   13DOPE  C210 1604   4.054   1.535   6.135  0.4444 -0.0700 -1.1973
   13DOPE  H10R 1605   4.131   1.467   6.172 -0.2378 -0.6214 -0.7847
   13DOPE  C211 1606   4.087   1.620   6.014 -0.2154  0.6412  0.1650
   13DOPE  H11R 1607   4.045   1.722   6.025 -1.1198  0.4881 -1.5062
   13DOPE  H11S 1608   4.052   1.576   5.918  0.6589  2.3531 -1.0036
   13DOPE  C212 1609   4.243   1.643   6.001 -0.1160  0.7014 -0.6869
   13DOPE  H12R 1610   4.276   1.700   5.912  0.4147  1.6291  0.0758
   13DOPE  H12S 1611   4.292   1.544   6.006 -0.9634  0.3272  0.9668
   13DOPE  C213 1612   4.296   1.717   6.125  0.0179  0.0917 -0.4098
   13DOPE  H13R 1613   4.274   1.654   6.214  0.7834  0.5088  0.0886
   13DOPE  H13S 1614   4.252   1.817   6.147  0.1645 -0.1924  1.3255
   13DOPE  C214 1615   4.446   1.727   6.126  0.1567 -0.5069  0.6627
   13DOPE  H14R 1616   4.475   1.807   6.055  0.9051  1.6446  3.2123
   13DOPE  H14S 1617   4.492   1.627   6.110  1.4836  0.0624  0.7521
   13DOPE  C215 1618   4.494   1.771   6.263 -0.1476 -0.3119 -0.9956
   13DOPE  H15R 1619   4.472   1.702   6.347 -1.9857  2.0660  0.6002
   13DOPE  H15S 1620   4.437   1.860   6.296 -0.8729  0.2260 -3.4473
   13DOPE  C216 1621   4.646   1.807   6.265  0.0689  0.4183  0.4962
   13DOPE  H16R 1622   4.650   1.904   6.210 -0.7470 -1.0633 -2.3932
   13DOPE  H16S 1623   4.705   1.730   6.212 -0.6697 -0.8659  1.4825
   13DOPE  C217 1624   4.697   1.837   6.404 -0.1851 -0.2366  0.0197
   13DOPE  H17R 1625   4.671   1.760   6.481 -0.8261 -1.1552 -1.0832
   13DOPE  H17S 1626   4.647   1.929   6.442 -0.8640 -0.6609  0.1838
   13DOPE  C218 1627   4.847   1.850   6.415  0.0742 -0.8355  0.5086
   13DOPE  H18R 1628   4.872   1.859   6.523  2.0751  1.9739 -0.0718
   13DOPE  H18S 1629   4.879   1.947   6.371 -0.9315  0.5834  2.6740
   13DOPE  H18T 1630   4.904   1.770   6.365  0.3375  0.0862 -0.6980
   13DOPE   C33 1631   3.473   0.822   6.200  0.0401 -0.2055  0.3861
   13DOPE   H3X 1632   3.384   0.885   6.181 -2.0525 -3.0313  0.1774
   13DOPE   H3Y 1633   3.443   0.720   6.232  0.6402 -0.3493  0.5020
   13DOPE   C34 1634   3.542   0.820   6.060 -0.1459  0.0168 -0.3378
   13DOPE   H4X 1635   3.584   0.920   6.033 -1.7977  0.4799 -1.3408
   13DOPE   H4Y 1636   3.626   0.748   6.069 -0.0904  0.1743  0.4841
   13DOPE   C35 1637   3.453   0.768   5.944 -0.3362  0.2177 -0.2448
   13DOPE   H5X 1638   3.361   0.830   5.945 -1.3092 -1.1978  0.2475
   13DOPE   H5Y 1639   3.424   0.663   5.968  0.9272  0.0698  0.7553
   13DOPE   C36 1640   3.520   0.782   5.803  0.0036 -0.1108 -0.2239
   13DOPE   H6X 1641   3.622   0.739   5.809  0.4780  1.0009 -0.0194
   13DOPE   H6Y 1642   3.540   0.889   5.781  0.7377 -0.1691  0.1243
   13DOPE   C37 1643   3.437   0.715   5.696  0.7676  0.3130 -0.0406
   13DOPE   H7X 1644   3.425   0.606   5.717  1.5772  0.4642  1.3510
   13DOPE   H7Y 1645   3.338   0.763   5.703  0.2568 -0.2907 -2.2650
   13DOPE   C38 1646   3.493   0.742   5.558 -0.0428 -0.0711  0.6931
   13DOPE   H8X 1647   3.455   0.659   5.495  0.7099  0.4695 -0.4880
   13DOPE   H8Y 1648   3.604   0.736   5.559  0.0530  1.3012  0.0698
   13DOPE   C39 1649   3.444   0.871   5.496  0.8318 -0.4491  0.0952
   13DOPE   H9X 1650   3.335   0.867   5.485  0.8816 -1.2270 -0.1241
   13DOPE  C310 1651   3.510   0.975   5.442  0.2170  0.2100 -0.1986
   13DOPE  H10X 1652   3.456   1.053   5.386 -0.4142  1.0901  1.5379
   13DOPE  C311 1653   3.654   1.000   5.434  0.9718  0.3917 -0.8633
   13DOPE  H11X 1654   3.678   1.097   5.483  0.1885  0.2432 -0.1772
   13DOPE  H11Y 1655   3.706   0.926   5.499 -0.8759  1.6768  2.3487
   13DOPE  C312 1656   3.694   0.995   5.287  1.1838 -0.1798 -0.2807
   13DOPE  H12X 1657   3.621   1.056   5.229  1.6657  0.7255  0.0499
   13DOPE  H12Y 1658   3.686   0.888   5.258 -0.3930 -1.4828  4.0959
   13DOPE  C313 1659   3.831   1.035   5.251 -0.0485 -0.0158  0.0871
   13DOPE  H13X 1660   3.906   0.994   5.322  0.1235 -0.3285 -0.2669
   13DOPE  H13Y 1661   3.859   0.992   5.152 -0.6836  0.9322 -0.5212
   13DOPE  C314 1662   3.846   1.187   5.240 -0.4849  0.1872  0.1899
   13DOPE  H14X 1663   3.815   1.237   5.335 -3.2112  1.0987 -1.0807
   13DOPE  H14Y 1664   3.773   1.224   5.164 -0.0197 -1.3339 -1.0499
   13DOPE  C315 1665   3.991   1.227   5.206  0.1702 -0.6713 -0.0207
   13DOPE  H15X 1666   4.052   1.154   5.263  1.8966 -1.0842 -2.2317
   13DOPE  H15Y 1667   4.010   1.334   5.229 -0.8653  0.0796 -2.3400
   13DOPE  C316 1668   4.037   1.214   5.060 -0.1586  0.3969 -0.2093
   13DOPE  H16X 1669   3.966   1.249   4.983 -0.5280 -1.3170 -0.7030
   13DOPE  H16Y 1670   4.047   1.104   5.044  1.8972  0.7745 -1.9462
   13DOPE  C317 1671   4.178   1.277   5.038  1.1319 -0.7665  0.3878
   13DOPE  H17X 1672   4.176   1.388   5.043  0.1637 -0.8186  2.3472
   13DOPE  H17Y 1673   4.230   1.248   5.132  0.5355  2.0316  1.6734
   13DOPE  C318 1674   4.250   1.232   4.911 -0.2986 -0.0355  0.5395
   13DOPE  H18X 1675   4.222   1.301   4.829  0.7043 -1.0589 -0.7059
   13DOPE  H18Y 1676   4.360   1.226   4.928 -0.1684 -1.5474 -0.6509
   13DOPE  H18Z 1677   4.212   1.137   4.868 -0.4659  0.5626 -0.6803
   14DOPE     N 1678   6.667   4.997   6.898  0.3019  0.0235 -0.1823
   14DOPE   HN1 1679   6.681   4.919   6.830  1.7152 -1.4240  1.6727
   14DOPE   HN2 1680   6.609   4.959   6.975 -1.5822  1.1072 -1.0031
   14DOPE   HN3 1681   6.607   5.068   6.852 -0.2766 -1.3176 -1.5697
   14DOPE   C12 1682   6.793   5.058   6.946 -0.9089 -0.1239  0.6784
   14DOPE  H12A 1683   6.775   5.120   7.037 -1.2100  0.0451  0.5056
   14DOPE  H12B 1684   6.831   5.119   6.862 -1.8406 -0.4741 -0.0095
   14DOPE   C11 1685   6.905   4.955   6.986  0.1670 -0.5753  0.1993
   14DOPE  H11A 1686   6.865   4.879   7.057 -1.8444 -0.2114 -0.4773
   14DOPE  H11B 1687   6.982   5.012   7.042 -0.6166 -2.1403  3.1155
   14DOPE     P 1688   7.092   4.820   6.865 -0.0275 -0.2601  0.1582
   14DOPE   O13 1689   7.093   4.725   6.979 -0.4294  0.7733  0.5071
   14DOPE   O14 1690   7.184   4.930   6.860  0.2727 -1.1057  0.0143
   14DOPE   O11 1691   7.108   4.739   6.725  0.8625  0.0357  0.1744
   14DOPE   O12 1692   6.949   4.888   6.869  0.4486 -0.4098  0.0540
   14DOPE    C1 1693   7.240   4.710   6.693  0.2164 -0.0535  0.0069
   14DOPE    HA 1694   7.295   4.663   6.777 -0.4901 -0.3650  0.3005
   14DOPE    HB 1695   7.297   4.802   6.669  0.5834 -0.4378 -0.6266
   14DOPE    C2 1696   7.237   4.613   6.573  0.1783 -0.0565  0.3044
   14DOPE    HS 1697   7.340   4.574   6.559  0.7869  0.4127  2.8848
   14DOPE   O21 1698   7.180   4.664   6.457 -0.6908 -0.0065  0.2587
   14DOPE   C21 1699   7.259   4.729   6.379  0.0296 -0.7108 -0.2309
   14DOPE   O22 1700   7.377   4.763   6.401 -0.1668  0.2763  0.3420
   14DOPE   C22 1701   7.186   4.745   6.247  0.8657  0.1504  0.5234
   14DOPE   H2R 1702   7.145   4.848   6.246  3.5424  1.3052  0.8616
   14DOPE   H2S 1703   7.104   4.670   6.251 -0.0176  1.1084  0.9243
   14DOPE    C3 1704   7.154   4.493   6.613  0.3596  0.2703 -0.1359
   14DOPE    HX 1705   7.050   4.526   6.635  0.9022  1.2135  1.1622
   14DOPE    HY 1706   7.202   4.463   6.709 -1.6932  1.1960  1.2576
   14DOPE   O31 1707   7.144   4.386   6.519 -0.1825  0.1782 -0.0720
   14DOPE   C31 1708   7.043   4.379   6.433 -0.1439 -0.2728  0.2979
   14DOPE   O32 1709   6.958   4.461   6.413 -0.0110  0.1636  0.2544
   14DOPE   C32 1710   7.067   4.266   6.333 -0.3272 -0.0335 -0.0299
   14DOPE   H2X 1711   7.174   4.250   6.312 -0.4743 -1.9332  0.4785
   14DOPE   H2Y 1712   7.036   4.164   6.363 -1.8110  0.0564 -1.1273
   14DOPE   C23 1713   7.277   4.722   6.128  0.4448  0.0834  0.2747
   14DOPE   H3R 1714   7.385   4.739   6.146  0.2628  0.3903  1.0962
   14DOPE   H3S 1715   7.251   4.790   6.044 -2.0891 -0.5081  0.4886
   14DOPE   C24 1716   7.255   4.579   6.080 -0.6981 -0.2699  0.1265
   14DOPE   H4R 1717   7.146   4.558   6.070 -1.1213  1.7426 -0.0076
   14DOPE   H4S 1718   7.300   4.520   6.163 -0.8204  2.2919  2.1681
   14DOPE   C25 1719   7.346   4.541   5.952  0.4534 -0.1689  0.6558
   14DOPE   H5R 1720   7.389   4.439   5.957  0.9490  0.0512  0.9321
   14DOPE   H5S 1721   7.432   4.611   5.952 -0.9584  1.6733  0.6356
   14DOPE   C26 1722   7.275   4.554   5.818  0.1072 -0.4091  0.6411
   14DOPE   H6R 1723   7.261   4.662   5.797 -2.2051 -0.4827  1.5619
   14DOPE   H6S 1724   7.170   4.521   5.832 -0.4245  0.2644 -1.4156
   14DOPE   C27 1725   7.336   4.485   5.696 -0.1082  0.6425  0.3096
   14DOPE   H7R 1726   7.371   4.381   5.713 -2.1179 -0.3974 -1.5149
   14DOPE   H7S 1727   7.428   4.541   5.666  1.0947 -1.1863  0.4019
   14DOPE   C28 1728   7.245   4.484   5.569  0.2660  0.7772  0.4713
   14DOPE   H8R 1729   7.155   4.427   5.601  1.0048 -0.7165 -0.0246
   14DOPE   H8S 1730   7.286   4.423   5.486 -1.6017 -0.9659  0.7396
   14DOPE   C29 1731   7.216   4.622   5.520 -0.3515 -0.4759 -0.8470
   14DOPE   H9R 1732   7.301   4.681   5.483 -0.5380  0.2743 -0.1043
   14DOPE  C210 1733   7.091   4.672   5.493 -0.1608  0.0975 -0.6310
   14DOPE  H10R 1734   7.085   4.769   5.441  0.8423  0.0318 -0.8891
   14DOPE  C211 1735   6.960   4.595   5.507  0.3832 -0.2679 -0.0800
   14DOPE  H11R 1736   6.965   4.494   5.461  0.6072  0.8888 -2.7929
   14DOPE  H11S 1737   6.878   4.643   5.450 -0.2618 -0.5401  0.5918
   14DOPE  C212 1738   6.904   4.583   5.652  0.0408 -0.2437  0.6366
   14DOPE  H12R 1739   6.941   4.670   5.711 -1.4951  0.6227  0.3649
   14DOPE  H12S 1740   6.939   4.489   5.699 -0.4785 -0.3463  0.8209
   14DOPE  C213 1741   6.753   4.573   5.669  0.7817  0.2496  0.0134
   14DOPE  H13R 1742   6.704   4.492   5.610  0.0291 -0.0670  1.0427
   14DOPE  H13S 1743   6.705   4.668   5.637  0.8863 -0.1513 -1.4360
   14DOPE  C214 1744   6.699   4.544   5.810  0.5972  0.0932 -1.0450
   14DOPE  H14R 1745   6.705   4.434   5.823 -1.0217 -0.1254 -1.9381
   14DOPE  H14S 1746   6.594   4.576   5.828  0.1251 -1.8633 -0.0087
   14DOPE  C215 1747   6.778   4.612   5.927  0.1473 -0.1622  0.1747
   14DOPE  H15R 1748   6.761   4.719   5.905 -1.5536 -0.7178 -1.5251
   14DOPE  H15S 1749   6.881   4.572   5.918  0.9057  1.7591 -0.2252
   14DOPE  C216 1750   6.710   4.575   6.059  0.2664 -0.2206 -0.2035
   14DOPE  H16R 1751   6.725   4.468   6.082  1.0015 -0.1472 -0.3189
   14DOPE  H16S 1752   6.603   4.602   6.042  0.7917  1.6863 -0.7318
   14DOPE  C217 1753   6.760   4.654   6.183  0.2612  0.2259 -0.2078
   14DOPE  H17R 1754   6.871   4.646   6.191  0.5360  2.1826 -1.3490
   14DOPE  H17S 1755   6.712   4.610   6.273 -1.5855 -2.0865 -2.1952
   14DOPE  C218 1756   6.715   4.794   6.201  0.3401 -0.2977 -0.3830
   14DOPE  H18R 1757   6.745   4.847   6.295 -0.5308  0.4383 -0.5095
   14DOPE  H18S 1758   6.605   4.785   6.201  0.2332  0.0138 -3.4151
   14DOPE  H18T 1759   6.735   4.858   6.112 -2.0551  0.1349 -0.6773
   14DOPE   C33 1760   7.002   4.288   6.196 -0.0409 -0.9680 -0.0016
   14DOPE   H3X 1761   7.056   4.373   6.150 -0.7941 -0.3827  0.1920
   14DOPE   H3Y 1762   6.896   4.318   6.207 -0.2595 -1.5823 -0.3433
   14DOPE   C34 1763   7.012   4.172   6.092  0.3946 -0.1728 -0.2809
   14DOPE   H4X 1764   7.120   4.146   6.083  0.6413  1.2494 -1.8546
   14DOPE   H4Y 1765   6.949   4.090   6.132  0.7794 -0.5501 -0.4378
   14DOPE   C35 1766   6.962   4.226   5.963  0.1138  0.1251 -0.3931
   14DOPE   H5X 1767   6.983   4.335   5.954  2.2180 -0.0528  1.4909
   14DOPE   H5Y 1768   6.853   4.210   5.959 -0.0825  0.7926  1.4357
   14DOPE   C36 1769   7.013   4.149   5.843  0.5018  0.2877  0.0733
   14DOPE   H6X 1770   6.960   4.052   5.848 -0.9323  1.0150 -0.6306
   14DOPE   H6Y 1771   7.122   4.133   5.859  0.4816  1.4448  1.7133
   14DOPE   C37 1772   6.972   4.217   5.709 -0.2720  0.1247  0.2958
   14DOPE   H7X 1773   6.866   4.247   5.716 -0.6284 -1.2679  1.1039
   14DOPE   H7Y 1774   7.030   4.312   5.701 -0.2256  0.6290  4.4816
   14DOPE   C38 1775   7.002   4.128   5.588  0.0266 -0.1233 -0.0309
   14DOPE   H8X 1776   6.928   4.045   5.583 -0.3747  0.1732  0.7607
   14DOPE   H8Y 1777   7.107   4.093   5.601  0.4525  1.8281  2.6404
   14DOPE   C39 1778   6.995   4.211   5.464  0.0639 -0.7161 -0.1100
   14DOPE   H9X 1779   7.054   4.304   5.462  0.2312 -0.8059  0.4918
   14DOPE  C310 1780   6.930   4.175   5.352 -0.0363  0.3948 -0.0781
   14DOPE  H10X 1781   6.918   4.250   5.273 -0.1137  0.0181 -0.4302
   14DOPE  C311 1782   6.844   4.053   5.313  0.5009  0.0358  0.2204
   14DOPE  H11X 1783   6.906   3.998   5.239  1.3877  0.5546  0.5509
   14DOPE  H11Y 1784   6.805   3.987   5.393  0.4226 -1.8638 -1.3168
   14DOPE  C312 1785   6.727   4.091   5.220 -0.2973 -0.3451  0.0407
   14DOPE  H12X 1786   6.635   4.108   5.281 -0.7708 -0.0119 -0.7463
   14DOPE  H12Y 1787   6.706   3.994   5.171 -1.4171  0.0742 -0.3423
   14DOPE  C313 1788   6.746   4.188   5.102  0.0511  0.4708 -0.0226
   14DOPE  H13X 1789   6.732   4.293   5.133  1.3969  0.9344 -0.8949
   14DOPE  H13Y 1790   6.849   4.177   5.062  0.3514  1.4542  0.4488
   14DOPE  C314 1791   6.644   4.164   4.988  0.1796 -0.3678 -0.3943
   14DOPE  H14X 1792   6.652   4.242   4.909  0.5037 -0.6180 -0.6134
   14DOPE  H14Y 1793   6.542   4.168   5.030  0.4736  1.8475  0.2368
   14DOPE  C315 1794   6.657   4.031   4.916 -0.1478  0.1192 -0.2910
   14DOPE  H15X 1795   6.602   3.956   4.977 -0.7147 -0.6634 -1.7127
   14DOPE  H15Y 1796   6.763   3.999   4.923  0.6334  1.7266 -3.2016
   14DOPE  C316 1797   6.610   4.036   4.766 -0.5580  0.3778  0.2849
   14DOPE  H16X 1798   6.649   4.128   4.717 -0.2551  0.3547  0.4772
   14DOPE  H16Y 1799   6.499   4.040   4.760 -0.5056  0.3603 -1.1068
   14DOPE  C317 1800   6.663   3.916   4.689  0.1689  0.2775 -0.1699
   14DOPE  H17X 1801   6.773   3.916   4.705  0.3770  0.5509 -1.4628
   14DOPE  H17Y 1802   6.609   3.823   4.716 -0.6430  0.4747 -1.0362
   14DOPE  C318 1803   6.654   3.931   4.541 -0.0444 -0.1690 -0.0309
   14DOPE  H18X 1804   6.549   3.941   4.507 -0.0803 -0.3762  0.0106
   14DOPE  H18Y 1805   6.695   4.024   4.498 -3.4260  1.6086  0.2778
   14DOPE  H18Z 1806   6.713   3.847   4.499  0.8233  0.9158 -1.0386
   15DOPE     N 1807   3.529   1.544   7.180  0.0050 -0.8772  0.4804
   15DOPE   HN1 1808   3.520   1.496   7.273  2.6216  1.4337  2.0843
   15DOPE   HN2 1809   3.460   1.622   7.180  1.6127  0.7473  3.5441
   15DOPE   HN3 1810   3.493   1.482   7.105 -3.2634 -0.1306  1.2390
   15DOPE   C12 1811   3.662   1.608   7.150  0.0046 -0.1897  0.6050
   15DOPE  H12A 1812   3.739   1.529   7.137  0.3889  0.3853 -0.7781
   15DOPE  H12B 1813   3.694   1.676   7.232  2.1786 -1.1296  0.6270
   15DOPE   C11 1814   3.652   1.693   7.021 -0.2843  0.8594 -0.0249
   15DOPE  H11A 1815   3.626   1.624   6.938 -0.1500  1.7999 -0.8635
   15DOPE  H11B 1816   3.749   1.737   6.991  0.4266  0.1999  1.2337
   15DOPE     P 1817   3.593   1.935   7.092  0.4665  0.3573 -0.2277
   15DOPE   O13 1818   3.708   1.996   7.021  0.3804 -0.5549 -0.3011
   15DOPE   O14 1819   3.616   1.920   7.236  0.1927  0.5884  0.3266
   15DOPE   O11 1820   3.468   2.029   7.073 -0.6366  0.3130 -0.3307
   15DOPE   O12 1821   3.555   1.796   7.035  0.2768 -0.6793  0.4468
   15DOPE    C1 1822   3.336   1.980   7.047 -0.3287 -0.0362  1.1232
   15DOPE    HA 1823   3.278   1.981   7.142  2.0229 -1.4067  2.6843
   15DOPE    HB 1824   3.331   1.872   7.024  0.5063  0.0119  0.6927
   15DOPE    C2 1825   3.253   2.034   6.928  0.2309 -0.1050 -0.1846
   15DOPE    HS 1826   3.171   1.959   6.922  0.2051  0.0516 -2.4904
   15DOPE   O21 1827   3.348   2.039   6.823  0.2641 -0.4944  0.2101
   15DOPE   C21 1828   3.335   1.942   6.729  0.3053 -0.8215  0.3273
   15DOPE   O22 1829   3.268   1.840   6.740 -0.0240 -0.8048 -0.0161
   15DOPE   C22 1830   3.430   1.964   6.612 -0.4042 -0.6227  0.0301
   15DOPE   H2R 1831   3.531   1.932   6.646 -0.3274 -0.0699  0.3232
   15DOPE   H2S 1832   3.449   2.073   6.614  0.6127 -0.7913  1.5903
   15DOPE    C3 1833   3.195   2.177   6.952 -1.1078 -0.2247 -0.3312
   15DOPE    HX 1834   3.282   2.243   6.970 -1.1979 -0.0097 -0.6870
   15DOPE    HY 1835   3.127   2.184   7.040  0.1314  1.6515  0.5411
   15DOPE   O31 1836   3.132   2.223   6.838  0.0764  0.2015 -0.1564
   15DOPE   C31 1837   3.027   2.158   6.791  0.6090 -0.6272 -0.3597
   15DOPE   O32 1838   2.979   2.057   6.843 -0.9783 -0.0747 -0.0129
   15DOPE   C32 1839   2.987   2.212   6.661 -0.2141 -0.0674  0.1329
   15DOPE   H2X 1840   2.877   2.195   6.653 -0.7297  1.7305  2.2673
   15DOPE   H2Y 1841   2.998   2.322   6.658 -1.2816  0.0589  0.4793
   15DOPE   C23 1842   3.392   1.908   6.476  0.4911  0.1224 -0.1618
   15DOPE   H3R 1843   3.302   1.964   6.443 -0.6396 -0.3631  1.9248
   15DOPE   H3S 1844   3.360   1.804   6.497  0.4174 -0.0787 -1.2242
   15DOPE   C24 1845   3.502   1.921   6.377  0.3535  0.0890 -1.0159
   15DOPE   H4R 1846   3.468   1.860   6.290 -0.0890 -0.1497 -0.6745
   15DOPE   H4S 1847   3.594   1.872   6.414  0.6242  0.5016 -1.1319
   15DOPE   C25 1848   3.542   2.064   6.341  0.5656 -0.0790  0.5429
   15DOPE   H5R 1849   3.612   2.111   6.413 -0.4849  1.2235  0.7595
   15DOPE   H5S 1850   3.444   2.117   6.337  1.4045  1.4636 -0.8170
   15DOPE   C26 1851   3.604   2.081   6.198 -0.0281  0.2880  0.7091
   15DOPE   H6R 1852   3.633   2.187   6.178 -1.9594  0.6778 -0.2482
   15DOPE   H6S 1853   3.528   2.051   6.122  0.5771 -0.9195  0.5624
   15DOPE   C27 1854   3.716   1.986   6.171 -0.4548 -0.1944  0.2324
   15DOPE   H7R 1855   3.677   1.882   6.179 -0.2225 -0.3322 -0.3538
   15DOPE   H7S 1856   3.791   1.995   6.253  2.1970  0.4474 -2.0952
   15DOPE   C28 1857   3.795   2.015   6.040  0.7138 -0.1434  0.5412
   15DOPE   H8R 1858   3.887   1.954   6.029 -0.3576 -1.4541 -2.0595
   15DOPE   H8S 1859   3.823   2.121   6.060  0.2945 -0.3016  2.1391
   15DOPE   C29 1860   3.723   1.994   5.910  0.2336 -0.0442 -0.3971
   15DOPE   H9R 1861   3.615   2.015   5.907 -0.2183 -1.8346  1.4195
   15DOPE  C210 1862   3.778   1.937   5.794  0.1416 -0.0369 -0.3144
   15DOPE  H10R 1863   3.715   1.904   5.711  2.4529 -2.8512 -1.1062
   15DOPE  C211 1864   3.925   1.898   5.774  0.1111 -0.0362  0.4507
   15DOPE  H11R 1865   3.965   1.845   5.862  2.2564  0.9125  0.1150
   15DOPE  H11S 1866   3.995   1.980   5.746  1.2972 -1.3838 -0.7287
   15DOPE  C212 1867   3.938   1.802   5.656  0.0656 -0.0502 -0.2193
   15DOPE  H12R 1868   3.870   1.717   5.677  0.7054 -0.5565 -0.1501
   15DOPE  H12S 1869   4.044   1.770   5.656  0.2647  0.4870 -2.2011
   15DOPE  C213 1870   3.907   1.857   5.518 -0.0426 -0.4543 -0.4205
   15DOPE  H13R 1871   3.989   1.926   5.486  1.1758 -1.3595  0.6340
   15DOPE  H13S 1872   3.808   1.908   5.515  0.3620  0.3268 -1.5642
   15DOPE  C214 1873   3.921   1.744   5.419 -0.2114  0.5757  0.7124
   15DOPE  H14R 1874   3.873   1.653   5.459  1.2800 -0.9339 -0.7619
   15DOPE  H14S 1875   4.028   1.714   5.410 -0.7552 -1.4525  0.4654
   15DOPE  C215 1876   3.862   1.772   5.275 -0.3737 -0.6592 -0.2516
   15DOPE  H15R 1877   3.923   1.860   5.248 -1.1540  0.2028  0.7198
   15DOPE  H15S 1878   3.754   1.795   5.265 -0.2081 -0.8859 -4.2038
   15DOPE  C216 1879   3.901   1.660   5.187  0.2653 -0.0983 -0.7783
   15DOPE  H16R 1880   3.839   1.569   5.201 -0.4666 -0.3687 -4.5827
   15DOPE  H16S 1881   4.010   1.639   5.189  0.0565 -1.2058  0.9758
   15DOPE  C217 1882   3.864   1.695   5.041  0.3359 -0.0624  0.0380
   15DOPE  H17R 1883   3.919   1.786   5.009  0.2196  0.2455  0.6974
   15DOPE  H17S 1884   3.757   1.721   5.025  0.4433 -0.6479 -1.7989
   15DOPE  C218 1885   3.926   1.599   4.936 -0.3408  0.4551  0.7120
   15DOPE  H18R 1886   4.033   1.575   4.958 -0.3331  1.7747  2.2602
   15DOPE  H18S 1887   3.918   1.646   4.836  1.3932  0.0663  0.3510
   15DOPE  H18T 1888   3.874   1.501   4.929 -0.2721  0.4368  0.4469
   15DOPE   C33 1889   3.069   2.158   6.540  0.0476 -0.5877  0.1184
   15DOPE   H3X 1890   3.053   2.048   6.544  0.9759 -0.7068  0.8537
   15DOPE   H3Y 1891   3.176   2.184   6.547  0.0830 -0.2664 -1.2664
   15DOPE   C34 1892   3.020   2.229   6.413 -0.0030  0.9968  0.3421
   15DOPE   H4X 1893   2.910   2.222   6.418 -0.1706  2.9181 -0.1642
   15DOPE   H4Y 1894   3.037   2.338   6.425  0.1240  1.4183 -2.7837
   15DOPE   C35 1895   3.073   2.169   6.281 -0.1495 -0.5471 -0.1616
   15DOPE   H5X 1896   3.060   2.059   6.283  0.8417 -0.6941 -1.1126
   15DOPE   H5Y 1897   3.184   2.167   6.274 -0.1366 -2.2393  0.0393
   15DOPE   C36 1898   3.023   2.228   6.143 -0.1111  0.4917 -0.4211
   15DOPE   H6X 1899   3.038   2.338   6.138  1.2408  0.3192 -0.6617
   15DOPE   H6Y 1900   2.915   2.204   6.140 -0.2777  0.9818  0.8332
   15DOPE   C37 1901   3.103   2.166   6.036  0.1977 -0.3456  0.9313
   15DOPE   H7X 1902   3.213   2.179   6.050 -0.0132  2.3013  0.6054
   15DOPE   H7Y 1903   3.082   2.057   6.040 -0.4663 -0.1907  2.0605
   15DOPE   C38 1904   3.073   2.224   5.895  0.7273  0.3224  0.9187
   15DOPE   H8X 1905   2.967   2.209   5.863  1.0800  0.4355 -0.3365
   15DOPE   H8Y 1906   3.128   2.172   5.814 -2.5523  0.0735 -1.3610
   15DOPE   C39 1907   3.099   2.371   5.898 -0.8676 -0.1208  0.0384
   15DOPE   H9X 1908   3.179   2.398   5.968  0.6396 -1.0969 -1.2543
   15DOPE  C310 1909   3.019   2.472   5.851 -0.0447 -0.0470 -0.0168
   15DOPE  H10X 1910   3.059   2.572   5.870  0.0203  0.2703 -1.6294
   15DOPE  C311 1911   2.911   2.457   5.745  0.4101  0.0522 -0.5406
   15DOPE  H11X 1912   2.887   2.351   5.724 -0.9992 -0.2835  2.2833
   15DOPE  H11Y 1913   2.818   2.509   5.776 -1.4588 -1.5719 -3.0700
   15DOPE  C312 1914   2.958   2.530   5.615 -0.2809 -1.0593  0.0311
   15DOPE  H12X 1915   3.016   2.620   5.642  0.8620 -1.8215  0.1440
   15DOPE  H12Y 1916   2.870   2.561   5.553  0.1014 -0.1393 -0.0562
   15DOPE  C313 1917   3.064   2.462   5.526 -0.1003  0.7856  0.1388
   15DOPE  H13X 1918   3.087   2.527   5.439 -1.9246  1.5781  0.2146
   15DOPE  H13Y 1919   3.157   2.456   5.587  0.1819 -0.3226 -0.3739
   15DOPE  C314 1920   3.022   2.319   5.483  0.1886 -0.1170  0.4964
   15DOPE  H14X 1921   2.912   2.306   5.483  0.0611  0.5481  2.6458
   15DOPE  H14Y 1922   3.060   2.254   5.566  1.3470  0.3979  0.3900
   15DOPE  C315 1923   3.090   2.265   5.354  0.5097  0.5097  0.1315
   15DOPE  H15X 1924   3.199   2.259   5.372  0.6141 -0.9457 -0.8061
   15DOPE  H15Y 1925   3.077   2.336   5.269  0.5936 -0.1421 -0.4315
   15DOPE  C316 1926   3.047   2.118   5.314  0.6434 -0.1349  0.5508
   15DOPE  H16X 1927   3.036   2.074   5.416  1.2658  1.8447  1.5374
   15DOPE  H16Y 1928   3.123   2.060   5.258  1.1766  1.0315  0.0392
   15DOPE  C317 1929   2.910   2.105   5.247  0.5654 -0.8782 -0.6833
   15DOPE  H17X 1930   2.851   2.183   5.300 -1.1749 -1.7633 -1.2584
   15DOPE  H17Y 1931   2.918   2.140   5.142 -0.0550  3.2897  0.4441
   15DOPE  C318 1932   2.839   1.969   5.253 -0.2474 -0.0036  0.2603
   15DOPE  H18X 1933   2.755   1.973   5.181 -0.3961  0.4274  0.4543
   15DOPE  H18Y 1934   2.899   1.880   5.225  0.5649  0.3879  0.7108
   15DOPE  H18Z 1935   2.792   1.948   5.351  0.1280  0.7295  0.6048
   16DOPE     N 1936   1.340   4.435   6.955 -0.4549  0.2003  0.0434
   16DOPE   HN1 1937   1.430   4.385   6.971  0.1871  1.3249  0.0547
   16DOPE   HN2 1938   1.316   4.450   6.855  1.5751 -1.7639 -0.8259
   16DOPE   HN3 1939   1.329   4.527   7.002 -0.6588  1.8637 -2.9910
   16DOPE   C12 1940   1.233   4.343   6.997 -0.0937 -0.2359 -0.8141
   16DOPE  H12A 1941   1.254   4.317   7.103  1.1225  2.1467 -0.3927
   16DOPE  H12B 1942   1.235   4.257   6.927 -1.2711  0.2508 -1.4824
   16DOPE   C11 1943   1.095   4.410   6.990 -0.0446  0.1011  0.0225
   16DOPE  H11A 1944   1.080   4.446   6.886  0.2765  2.0894  0.6230
   16DOPE  H11B 1945   1.080   4.497   7.058  0.7907  0.6356 -0.4532
   16DOPE     P 1946   0.842   4.340   6.977  0.0270  0.6122  0.5302
   16DOPE   O13 1947   0.846   4.440   6.866  0.0318  0.1340  0.2383
   16DOPE   O14 1948   0.770   4.374   7.107 -0.0304 -0.1037 -0.0319
   16DOPE   O11 1949   0.797   4.197   6.920 -0.2591  0.0618 -0.2658
   16DOPE   O12 1950   0.993   4.311   7.020  0.3298 -0.7199  0.2836
   16DOPE    C1 1951   0.894   4.085   6.895 -0.4162  0.2232 -0.0920
   16DOPE    HA 1952   0.891   4.007   6.973 -1.5337 -2.7120 -2.8200
   16DOPE    HB 1953   0.999   4.122   6.895 -0.1690 -0.4754  0.1861
   16DOPE    C2 1954   0.868   4.009   6.760  0.0099 -0.0453 -0.5811
   16DOPE    HS 1955   0.953   3.945   6.729 -1.0061 -1.5570 -0.3131
   16DOPE   O21 1956   0.836   4.106   6.659  0.3165 -0.0735  0.1645
   16DOPE   C21 1957   0.937   4.185   6.611 -0.4201 -0.4526 -0.1185
   16DOPE   O22 1958   1.052   4.179   6.654  0.2247  0.1704 -0.0924
   16DOPE   C22 1959   0.895   4.273   6.502  0.3755 -0.9052  0.2026
   16DOPE   H2R 1960   0.831   4.349   6.551 -0.4571 -1.2779 -0.2819
   16DOPE   H2S 1961   0.833   4.216   6.429  2.2105  0.8825 -3.0016
   16DOPE    C3 1962   0.754   3.916   6.785 -0.5722 -0.0021 -0.2185
   16DOPE    HX 1963   0.682   3.979   6.842  0.3290  1.0517 -0.2057
   16DOPE    HY 1964   0.782   3.833   6.853 -0.9638  2.0770  2.6718
   16DOPE   O31 1965   0.696   3.874   6.658 -0.2319 -0.2833 -0.5076
   16DOPE   C31 1966   0.577   3.818   6.662 -0.4447  0.2402 -0.1145
   16DOPE   O32 1967   0.509   3.799   6.762 -0.1193 -0.3044 -0.1580
   16DOPE   C32 1968   0.519   3.801   6.518  0.4278  1.0649 -0.0220
   16DOPE   H2X 1969   0.481   3.696   6.510  0.8141  0.9315 -0.0998
   16DOPE   H2Y 1970   0.434   3.873   6.521 -0.7996 -0.3668  1.3914
   16DOPE   C23 1971   1.010   4.347   6.427 -0.3813  0.6615 -0.3189
   16DOPE   H3R 1972   1.080   4.271   6.385 -0.3117  0.0744  0.8209
   16DOPE   H3S 1973   1.058   4.415   6.501  3.4359  0.1353 -2.0701
   16DOPE   C24 1974   0.959   4.439   6.319 -0.1874 -0.7507  0.9380
   16DOPE   H4R 1975   1.003   4.540   6.334 -0.9228 -0.3897  0.7582
   16DOPE   H4S 1976   0.850   4.461   6.329  0.1629  0.5019  2.2602
   16DOPE   C25 1977   0.978   4.385   6.174  0.4517 -0.2634 -0.3814
   16DOPE   H5R 1978   0.928   4.455   6.104  2.5399  2.8418  1.0392
   16DOPE   H5S 1979   0.922   4.289   6.169 -1.1466  0.6905 -1.9828
   16DOPE   C26 1980   1.122   4.381   6.128  0.0545 -0.4286 -0.2563
   16DOPE   H6R 1981   1.171   4.303   6.190  1.5866  0.8462  0.2107
   16DOPE   H6S 1982   1.166   4.483   6.123  1.6949 -1.1497 -1.6454
   16DOPE   C27 1983   1.131   4.353   5.973 -0.0241  0.6860  0.4678
   16DOPE   H7R 1984   1.077   4.434   5.919 -2.0246  0.5306  2.0889
   16DOPE   H7S 1985   1.070   4.262   5.950  0.4714  0.5587 -0.3944
   16DOPE   C28 1986   1.274   4.324   5.931 -0.1605 -0.3841  0.3558
   16DOPE   H8R 1987   1.328   4.419   5.950 -0.8196 -0.2922  1.8654
   16DOPE   H8S 1988   1.272   4.317   5.820  0.6868 -1.8394  0.4161
   16DOPE   C29 1989   1.344   4.207   5.989  0.5383 -0.1780  0.9136
   16DOPE   H9R 1990   1.302   4.111   5.956 -2.9479  1.4223  0.2649
   16DOPE  C210 1991   1.435   4.209   6.089  0.4666 -0.9716 -0.0168
   16DOPE  H10R 1992   1.476   4.112   6.122 -0.9272 -0.9817  1.8467
   16DOPE  C211 1993   1.496   4.329   6.162  0.6809  0.4304 -0.4671
   16DOPE  H11R 1994   1.463   4.421   6.110 -0.3128  1.4074  1.7731
   16DOPE  H11S 1995   1.607   4.315   6.157  0.3175 -2.7326 -2.2500
   16DOPE  C212 1996   1.467   4.342   6.315 -0.3452 -0.1313 -0.7699
   16DOPE  H12R 1997   1.367   4.389   6.329 -1.2647 -2.5196  1.7596
   16DOPE  H12S 1998   1.541   4.413   6.359 -1.7123 -0.1197  1.7077
   16DOPE  C213 1999   1.459   4.200   6.383  0.1341  0.2340 -0.2977
   16DOPE  H13R 2000   1.379   4.134   6.343  0.7801 -0.4189 -0.5457
   16DOPE  H13S 2001   1.436   4.225   6.489  1.0037  1.5914 -0.4021
   16DOPE  C214 2002   1.590   4.135   6.411  0.9569  0.2842 -0.2299
   16DOPE  H14R 2003   1.635   4.179   6.503 -0.4640 -1.9762  1.6428
   16DOPE  H14S 2004   1.659   4.147   6.324  0.4130  0.0154 -0.7020
   16DOPE  C215 2005   1.577   3.984   6.446 -0.8298  0.6066 -0.3520
   16DOPE  H15R 2006   1.490   3.959   6.511 -0.9452 -1.5697 -1.2828
   16DOPE  H15S 2007   1.661   3.951   6.512 -2.3349 -0.1427  1.2707
   16DOPE  C216 2008   1.570   3.896   6.321  0.6494  0.2295  0.0577
   16DOPE  H16R 2009   1.657   3.923   6.258  1.1477  0.0465  0.6563
   16DOPE  H16S 2010   1.477   3.912   6.263  0.7920 -1.5940 -0.7406
   16DOPE  C217 2011   1.583   3.737   6.343 -0.3883  0.2751 -0.3190
   16DOPE  H17R 2012   1.479   3.707   6.368 -0.6620  1.8046  0.5084
   16DOPE  H17S 2013   1.642   3.707   6.433 -1.5239  0.7550  0.6131
   16DOPE  C218 2014   1.660   3.662   6.232  0.3548 -0.2067  0.1439
   16DOPE  H18R 2015   1.758   3.711   6.211  0.2554 -0.8542 -2.0738
   16DOPE  H18S 2016   1.613   3.648   6.132 -0.3868  2.2984  0.0689
   16DOPE  H18T 2017   1.675   3.561   6.274 -1.2983 -0.0552  1.1858
   16DOPE   C33 2018   0.606   3.828   6.393 -0.1951 -0.1374  0.0733
   16DOPE   H3X 2019   0.565   3.797   6.294  0.4606 -0.7516 -0.0147
   16DOPE   H3Y 2020   0.707   3.782   6.396  0.3968  1.0107 -1.2039
   16DOPE   C34 2021   0.609   3.980   6.371 -0.0278 -0.7290 -0.2119
   16DOPE   H4X 2022   0.505   4.018   6.385  0.5380  0.0317  2.5767
   16DOPE   H4Y 2023   0.665   4.025   6.455  3.1861  0.8423 -2.9422
   16DOPE   C35 2024   0.673   4.038   6.247 -0.7717  0.5178  0.1200
   16DOPE   H5X 2025   0.776   3.995   6.247 -0.9936 -0.0327  0.8366
   16DOPE   H5Y 2026   0.689   4.146   6.263  2.2960  0.3645 -1.1395
   16DOPE   C36 2027   0.591   4.005   6.122  0.0589 -0.5349  0.6420
   16DOPE   H6X 2028   0.485   4.025   6.146 -0.0830  1.3259 -1.2967
   16DOPE   H6Y 2029   0.619   3.903   6.085  0.6449  0.8003 -2.9779
   16DOPE   C37 2030   0.628   4.092   5.999  0.4849  0.1235  0.0765
   16DOPE   H7X 2031   0.594   4.198   5.999  0.9484  0.2780  0.7562
   16DOPE   H7Y 2032   0.737   4.113   5.999  0.4874  0.1880  1.1595
   16DOPE   C38 2033   0.591   4.022   5.867  0.0187 -0.1939 -0.1524
   16DOPE   H8X 2034   0.480   4.018   5.869  0.0268 -0.2546  0.3646
   16DOPE   H8Y 2035   0.632   3.919   5.867  2.7915  0.8172  0.9703
   16DOPE   C39 2036   0.639   4.102   5.756  0.4322 -0.9040 -0.4642
   16DOPE   H9X 2037   0.579   4.195   5.756 -1.3842 -1.9950  0.9157
   16DOPE  C310 2038   0.735   4.086   5.666 -0.1902  0.1047 -0.3261
   16DOPE  H10X 2039   0.740   4.157   5.582 -2.2612 -2.5588 -2.9788
   16DOPE  C311 2040   0.833   3.971   5.648 -0.6215 -0.2665 -0.3001
   16DOPE  H11X 2041   0.941   3.996   5.657 -0.0446 -2.7070  0.2703
   16DOPE  H11Y 2042   0.805   3.902   5.730 -1.2232  0.7624  0.3830
   16DOPE  C312 2043   0.806   3.898   5.517 -0.3170  0.1722  0.2518
   16DOPE  H12X 2044   0.698   3.896   5.489 -0.3370 -1.2352  0.3601
   16DOPE  H12Y 2045   0.825   3.790   5.536 -0.1378  0.0897 -0.3642
   16DOPE  C313 2046   0.899   3.933   5.397  0.1492  0.0191 -0.2919
   16DOPE  H13X 2047   0.893   4.044   5.398  1.3131  0.1129  1.6139
   16DOPE  H13Y 2048   1.006   3.909   5.414  0.0948  0.0091  0.0498
   16DOPE  C314 2049   0.834   3.879   5.265 -0.5714 -0.6506 -0.4232
   16DOPE  H14X 2050   0.739   3.936   5.255  0.3210  1.2090  1.0034
   16DOPE  H14Y 2051   0.806   3.772   5.277 -0.9855 -0.5737 -0.6820
   16DOPE  C315 2052   0.918   3.882   5.138  0.0260  0.3195 -0.3490
   16DOPE  H15X 2053   1.005   3.812   5.138 -1.6327 -1.9494 -3.0214
   16DOPE  H15Y 2054   0.960   3.984   5.127 -0.3185  0.3807 -1.1553
   16DOPE  C316 2055   0.839   3.827   5.017  0.0987 -0.3402 -0.4783
   16DOPE  H16X 2056   0.747   3.887   4.996 -1.0125 -1.8014  0.0487
   16DOPE  H16Y 2057   0.806   3.725   5.044 -0.9479  0.0939 -0.0477
   16DOPE  C317 2058   0.936   3.818   4.893  0.7451  0.7859 -0.6338
   16DOPE  H17X 2059   0.963   3.920   4.859 -2.3665  0.9102 -3.1673
   16DOPE  H17Y 2060   1.022   3.760   4.934  0.1199 -2.2495 -3.1972
   16DOPE  C318 2061   0.884   3.750   4.766 -0.1303  0.2965  0.2943
   16DOPE  H18X 2062   0.939   3.785   4.677 -0.0657  1.4095  0.7575
   16DOPE  H18Y 2063   0.907   3.641   4.769 -1.0713  0.0971  0.4493
   16DOPE  H18Z 2064   0.774   3.763   4.754 -0.5006 -2.0376  0.6055
   17DOPE     N 2065   2.592   6.826   7.535 -0.0281 -0.2644 -0.3104
   17DOPE   HN1 2066   2.572   6.793   7.438 -1.4416 -3.5263  0.9524
   17DOPE   HN2 2067   2.497   6.824   7.575 -0.4129 -1.0858 -1.2408
   17DOPE   HN3 2068   2.618   6.927   7.533 -0.6846 -0.0788  0.2519
   17DOPE   C12 2069   2.683   6.742   7.615 -0.5545  0.2522  0.4259
   17DOPE  H12A 2070   2.677   6.767   7.723 -1.9302  0.1138  0.4070
   17DOPE  H12B 2071   2.787   6.763   7.582  0.8115 -3.6041  1.7846
   17DOPE   C11 2072   2.653   6.593   7.591 -0.3352  0.0829 -0.9559
   17DOPE  H11A 2073   2.559   6.561   7.642 -0.2118  1.4290  0.1713
   17DOPE  H11B 2074   2.737   6.546   7.647  0.2782  0.2222 -1.7431
   17DOPE     P 2075   2.720   6.436   7.384  0.1641 -0.6599  0.1510
   17DOPE   O13 2076   2.624   6.365   7.297  0.0822 -0.1136 -0.6837
   17DOPE   O14 2077   2.796   6.341   7.474 -0.3298 -0.1216  0.0721
   17DOPE   O11 2078   2.831   6.510   7.304  0.4025  0.4784  0.5963
   17DOPE   O12 2079   2.648   6.552   7.463  0.4764  0.0432 -0.2892
   17DOPE    C1 2080   2.809   6.648   7.261 -0.0510  0.2319 -0.4625
   17DOPE    HA 2081   2.840   6.714   7.345  2.2216  0.7929 -1.6650
   17DOPE    HB 2082   2.703   6.670   7.236 -0.9449  3.0639  4.3682
   17DOPE    C2 2083   2.897   6.688   7.141  0.1014  0.1247  1.2823
   17DOPE    HS 2084   2.862   6.788   7.106  0.6473 -0.7173 -2.0327
   17DOPE   O21 2085   2.894   6.590   7.035 -0.6199 -0.4106  0.0873
   17DOPE   C21 2086   2.782   6.600   6.959 -0.1215 -0.2883 -0.2871
   17DOPE   O22 2087   2.684   6.669   6.976  0.1810 -0.1068 -0.8905
   17DOPE   C22 2088   2.796   6.497   6.850  0.1456  0.1692  0.0325
   17DOPE   H2R 2089   2.725   6.413   6.871 -0.8130  0.8348 -0.4806
   17DOPE   H2S 2090   2.897   6.452   6.851 -0.1112 -0.4338  0.8656
   17DOPE    C3 2091   3.041   6.704   7.186 -0.3227  0.1109  0.0004
   17DOPE    HX 2092   3.092   6.622   7.241  2.1763  2.5827  1.6666
   17DOPE    HY 2093   3.033   6.796   7.248 -0.8380  0.2950 -0.3392
   17DOPE   O31 2094   3.129   6.740   7.080 -0.0933  0.2930  0.5363
   17DOPE   C31 2095   3.209   6.645   7.030 -0.0990  0.5343 -0.5291
   17DOPE   O32 2096   3.198   6.527   7.060  0.7753  0.0757  0.1400
   17DOPE   C32 2097   3.287   6.694   6.910  0.0557  0.1794 -1.0517
   17DOPE   H2X 2098   3.216   6.735   6.835  0.3119  1.6619 -0.5193
   17DOPE   H2Y 2099   3.351   6.781   6.936 -1.9748  1.5898 -0.4601
   17DOPE   C23 2100   2.751   6.556   6.708 -0.1555  0.2255 -0.3499
   17DOPE   H3R 2101   2.648   6.594   6.725  0.7995  2.3819  1.2218
   17DOPE   H3S 2102   2.745   6.471   6.637 -0.5108  0.1358 -0.2120
   17DOPE   C24 2103   2.839   6.662   6.648  0.0528 -0.1247 -0.0647
   17DOPE   H4R 2104   2.945   6.628   6.652  0.0396 -0.2098 -0.3911
   17DOPE   H4S 2105   2.844   6.751   6.714 -0.4737 -2.1848  2.9481
   17DOPE   C25 2106   2.784   6.708   6.514  0.3920 -0.0669 -0.3393
   17DOPE   H5R 2107   2.811   6.812   6.483  0.2446 -0.0897 -0.5418
   17DOPE   H5S 2108   2.675   6.699   6.532  0.5167 -1.1544 -0.1031
   17DOPE   C26 2109   2.830   6.625   6.389 -0.0945 -0.6045 -0.2701
   17DOPE   H6R 2110   2.819   6.516   6.402  0.7697 -0.9549 -2.1618
   17DOPE   H6S 2111   2.938   6.646   6.370 -0.5329  0.5705 -1.6075
   17DOPE   C27 2112   2.758   6.673   6.259  0.5354  0.7664  0.4440
   17DOPE   H7R 2113   2.785   6.780   6.241 -0.8602  1.2694  1.2098
   17DOPE   H7S 2114   2.651   6.674   6.289 -0.1473 -1.9984 -1.4920
   17DOPE   C28 2115   2.784   6.586   6.142  0.1721 -0.6222  0.3270
   17DOPE   H8R 2116   2.702   6.605   6.071  0.7621 -0.6384 -0.3686
   17DOPE   H8S 2117   2.793   6.481   6.177  3.0039 -0.4133  0.5248
   17DOPE   C29 2118   2.909   6.614   6.076 -0.4558  0.0003  0.6330
   17DOPE   H9R 2119   3.004   6.574   6.113 -0.2526  0.2656  0.3989
   17DOPE  C210 2120   2.923   6.683   5.959 -0.3735  0.3784  0.3553
   17DOPE  H10R 2121   3.024   6.686   5.917 -0.4989 -0.2474 -0.0050
   17DOPE  C211 2122   2.809   6.738   5.880  0.3387  0.3965  0.2568
   17DOPE  H11R 2123   2.809   6.848   5.891 -0.4942  0.5545 -1.1109
   17DOPE  H11S 2124   2.711   6.708   5.921  0.6005  0.2038  0.7448
   17DOPE  C212 2125   2.810   6.706   5.725  0.1278  0.1306 -0.0369
   17DOPE  H12R 2126   2.721   6.757   5.683 -1.0189 -1.4962  0.3002
   17DOPE  H12S 2127   2.795   6.597   5.712  0.8312 -0.1988  1.6130
   17DOPE  C213 2128   2.942   6.747   5.659 -0.5338  0.1287  0.0416
   17DOPE  H13R 2129   3.025   6.678   5.687  0.2482  1.2391  0.5272
   17DOPE  H13S 2130   2.973   6.847   5.694 -1.4855  0.0703  1.1022
   17DOPE  C214 2131   2.941   6.733   5.507  0.2256  0.3999  0.7861
   17DOPE  H14R 2132   2.850   6.774   5.457 -0.8603 -1.4909  1.0966
   17DOPE  H14S 2133   2.948   6.630   5.465  1.1309  0.9161 -0.4042
   17DOPE  C215 2134   3.070   6.801   5.445  0.3534  0.1991 -0.5675
   17DOPE  H15R 2135   3.152   6.745   5.497 -0.3897 -0.7878 -0.4257
   17DOPE  H15S 2136   3.079   6.903   5.487 -0.7352 -0.7391  2.1934
   17DOPE  C216 2137   3.098   6.792   5.297 -0.1892 -0.2962  0.0683
   17DOPE  H16R 2138   3.053   6.877   5.241  0.2082  0.4344  0.8327
   17DOPE  H16S 2139   3.071   6.691   5.261  2.5008 -1.9188  2.1973
   17DOPE  C217 2140   3.250   6.791   5.260 -0.1887  0.2953 -0.1771
   17DOPE  H17R 2141   3.298   6.706   5.313  0.8672  2.4152  2.4943
   17DOPE  H17S 2142   3.301   6.883   5.296 -0.2199  0.6008 -0.9096
   17DOPE  C218 2143   3.269   6.781   5.110  0.8759 -0.0927 -0.1058
   17DOPE  H18R 2144   3.225   6.869   5.059  0.3426 -0.3095 -0.0326
   17DOPE  H18S 2145   3.218   6.688   5.076 -0.9302  0.1525  1.7195
   17DOPE  H18T 2146   3.376   6.784   5.082  0.1944  1.4672 -2.9650
   17DOPE   C33 2147   3.377   6.583   6.845 -0.3315 -0.5309 -0.0739
   17DOPE   H3X 2148   3.428   6.624   6.755 -0.2030 -0.6566 -0.0603
   17DOPE   H3Y 2149   3.320   6.494   6.811  0.6264 -1.2476  0.1268
   17DOPE   C34 2150   3.488   6.546   6.943 -0.1684 -0.4814 -0.0655
   17DOPE   H4X 2151   3.552   6.631   6.974 -3.1505  0.9823  2.6764
   17DOPE   H4Y 2152   3.445   6.505   7.037 -1.6584  1.4976  0.2008
   17DOPE   C35 2153   3.594   6.450   6.878  0.1012  0.0755 -0.4940
   17DOPE   H5X 2154   3.671   6.444   6.958 -0.2139  3.2743  0.1736
   17DOPE   H5Y 2155   3.648   6.500   6.794  0.6529 -0.9865 -0.7947
   17DOPE   C36 2156   3.530   6.319   6.833 -0.6140  0.6477 -0.1373
   17DOPE   H6X 2157   3.433   6.326   6.780  0.9093  2.4697 -2.8842
   17DOPE   H6Y 2158   3.516   6.263   6.928  2.5483 -0.1669 -0.0087
   17DOPE   C37 2159   3.622   6.232   6.746 -0.2133  0.5734  0.4082
   17DOPE   H7X 2160   3.731   6.247   6.756  0.2990 -2.4528  0.2411
   17DOPE   H7Y 2161   3.602   6.124   6.765  0.3583  0.0072 -1.9533
   17DOPE   C38 2162   3.583   6.257   6.594  0.0668  0.5373 -0.0682
   17DOPE   H8X 2163   3.592   6.361   6.558 -1.1209  0.2439 -1.2764
   17DOPE   H8Y 2164   3.480   6.219   6.576  0.9084 -2.5975  1.0711
   17DOPE   C39 2165   3.695   6.187   6.512 -0.5965  0.1348  0.3481
   17DOPE   H9X 2166   3.794   6.193   6.559  0.1621  1.0703 -1.2499
   17DOPE  C310 2167   3.673   6.108   6.408 -0.6088 -0.1616 -0.0573
   17DOPE  H10X 2168   3.759   6.057   6.364 -0.1219  1.5783 -1.2485
   17DOPE  C311 2169   3.531   6.094   6.356 -0.0858  0.3808  0.5390
   17DOPE  H11X 2170   3.470   6.046   6.435  0.8437  0.0706  1.0871
   17DOPE  H11Y 2171   3.482   6.189   6.329  1.1783  0.9488  0.1472
   17DOPE  C312 2172   3.515   5.999   6.233 -0.8683 -0.0097 -0.4196
   17DOPE  H12X 2173   3.409   5.981   6.204 -0.5655 -1.9358 -0.4790
   17DOPE  H12Y 2174   3.567   5.903   6.254 -0.9403 -0.1112 -0.7115
   17DOPE  C313 2175   3.565   6.073   6.115 -0.4181 -0.2209 -0.1647
   17DOPE  H13X 2176   3.520   6.174   6.128 -0.1786 -0.1604  0.1994
   17DOPE  H13Y 2177   3.675   6.091   6.109 -0.4265 -0.2045 -0.2821
   17DOPE  C314 2178   3.531   5.997   5.985 -0.9523 -0.0184  0.1109
   17DOPE  H14X 2179   3.427   5.957   5.990 -0.6363 -0.7735  1.0411
   17DOPE  H14Y 2180   3.595   5.907   5.972 -0.6525  0.3113 -0.7403
   17DOPE  C315 2181   3.522   6.096   5.871  0.0512  0.2606  0.1469
   17DOPE  H15X 2182   3.605   6.170   5.866 -0.9954  2.0050  4.2378
   17DOPE  H15Y 2183   3.432   6.160   5.869 -1.1236 -1.3270 -2.2710
   17DOPE  C316 2184   3.523   6.021   5.734 -0.2611  0.0959 -0.7558
   17DOPE  H16X 2185   3.594   5.935   5.740 -0.5197 -0.0360  0.7956
   17DOPE  H16Y 2186   3.561   6.085   5.652 -2.5477  2.3086 -0.1815
   17DOPE  C317 2187   3.382   5.984   5.683 -0.1416  0.4601 -0.2240
   17DOPE  H17X 2188   3.353   5.901   5.751 -0.7658 -0.0560 -1.1002
   17DOPE  H17Y 2189   3.315   6.069   5.710 -0.6110 -0.0391  0.2100
   17DOPE  C318 2190   3.375   5.938   5.538  0.5859  0.1748 -0.4520
   17DOPE  H18X 2191   3.340   6.019   5.470 -1.0327  0.2464  0.4367
   17DOPE  H18Y 2192   3.479   5.906   5.515  2.1941  4.0683  0.5346
   17DOPE  H18Z 2193   3.304   5.854   5.530  0.7543  0.0715 -0.8779
   18DOPE     N 2194   7.614   3.116   7.018  0.4818 -0.8013  0.3520
   18DOPE   HN1 2195   7.620   3.091   6.917 -1.4310  1.6606 -0.4563
   18DOPE   HN2 2196   7.516   3.118   7.051  0.1984  0.2152 -0.4936
   18DOPE   HN3 2197   7.650   3.212   7.031  1.7254 -1.5213  3.0311
   18DOPE   C12 2198   7.705   3.018   7.103 -0.6180  0.2377 -0.2227
   18DOPE  H12A 2199   7.685   2.914   7.069 -0.4730  0.3331 -0.5993
   18DOPE  H12B 2200   7.678   3.039   7.209 -1.5929  0.8400 -0.5789
   18DOPE   C11 2201   7.855   3.052   7.093  0.0652  0.0462 -0.5111
   18DOPE  H11A 2202   7.891   2.977   7.167  0.7176 -0.4499 -1.3202
   18DOPE  H11B 2203   7.878   3.155   7.127 -2.1448  0.8405 -1.2213
   18DOPE     P 2204   8.054   3.001   6.935 -0.2218 -0.2763 -0.0110
   18DOPE   O13 2205   8.066   2.853   6.935  0.5566  0.3819 -0.5019
   18DOPE   O14 2206   8.136   3.090   7.026 -0.1683 -0.1914 -0.2274
   18DOPE   O11 2207   8.072   3.052   6.787 -0.0300 -0.6025 -0.4929
   18DOPE   O12 2208   7.899   3.032   6.963 -0.0003  0.2958  0.0120
   18DOPE    C1 2209   7.962   3.083   6.704  0.9566 -0.4309 -0.2196
   18DOPE    HA 2210   7.997   3.159   6.631  0.9399 -0.8698 -0.6903
   18DOPE    HB 2211   7.880   3.138   6.756  1.5350  1.9684 -1.7158
   18DOPE    C2 2212   7.897   2.961   6.626 -0.2710 -0.8429  0.2824
   18DOPE    HS 2213   7.850   2.888   6.695  1.3694 -1.6266  0.6143
   18DOPE   O21 2214   8.005   2.887   6.560 -0.1011  0.0068 -0.6140
   18DOPE   C21 2215   7.969   2.777   6.511  0.1865 -0.6584  0.4667
   18DOPE   O22 2216   7.862   2.721   6.535 -0.0142 -0.4997 -0.3506
   18DOPE   C22 2217   8.090   2.720   6.433  0.4752 -0.2229 -0.0725
   18DOPE   H2R 2218   8.084   2.612   6.459 -0.3389  0.1116  1.2020
   18DOPE   H2S 2219   8.185   2.763   6.471  0.2372  0.1904  0.0623
   18DOPE    C3 2220   7.791   3.013   6.523  0.2974  0.3885 -0.2083
   18DOPE    HX 2221   7.709   3.053   6.586  0.4693  0.1109  0.1996
   18DOPE    HY 2222   7.730   2.933   6.476 -4.6356  3.2850  0.6477
   18DOPE   O31 2223   7.851   3.096   6.418  0.0913 -0.5501 -0.3450
   18DOPE   C31 2224   7.836   3.224   6.430 -0.0517  0.9322 -0.3291
   18DOPE   O32 2225   7.772   3.291   6.514 -0.2347  0.6672 -0.2576
   18DOPE   C32 2226   7.913   3.282   6.313 -0.1818  0.3246  0.5307
   18DOPE   H2X 2227   7.907   3.393   6.320  0.1267  0.3487  0.4442
   18DOPE   H2Y 2228   8.020   3.251   6.323 -0.1469  0.5724  0.9332
   18DOPE   C23 2229   8.081   2.740   6.282  0.9994  0.4953  0.4466
   18DOPE   H3R 2230   7.980   2.716   6.245  1.4035 -1.3889  0.4895
   18DOPE   H3S 2231   8.154   2.665   6.245 -1.4535 -2.1287  0.6416
   18DOPE   C24 2232   8.128   2.879   6.240  0.4384 -0.2894 -0.4426
   18DOPE   H4R 2233   8.232   2.878   6.279 -0.4011 -0.5041  1.9252
   18DOPE   H4S 2234   8.080   2.955   6.305  1.3767 -0.4443  0.4518
   18DOPE   C25 2235   8.132   2.913   6.088  0.8134  0.0846 -0.8959
   18DOPE   H5R 2236   8.159   3.020   6.073 -0.1676  0.2768 -1.4155
   18DOPE   H5S 2237   8.031   2.884   6.053  0.8395  0.5238 -1.3467
   18DOPE   C26 2238   8.241   2.827   6.014  0.3675 -0.5084  0.2143
   18DOPE   H6R 2239   8.208   2.721   6.009  0.2684 -0.5098  0.7645
   18DOPE   H6S 2240   8.335   2.824   6.074  0.1625 -2.1908  0.5053
   18DOPE   C27 2241   8.252   2.881   5.872  0.1615 -0.2992 -0.4470
   18DOPE   H7R 2242   8.298   2.982   5.880  0.8680 -0.5963 -0.6696
   18DOPE   H7S 2243   8.147   2.904   5.844  0.1987  0.1241 -0.2451
   18DOPE   C28 2244   8.332   2.783   5.783  0.1070  0.0765  0.0889
   18DOPE   H8R 2245   8.262   2.706   5.744 -1.2573  0.7875  1.0460
   18DOPE   H8S 2246   8.409   2.733   5.846 -1.2737 -1.5087  0.5955
   18DOPE   C29 2247   8.378   2.853   5.662 -0.1391 -0.0782 -0.1022
   18DOPE   H9R 2248   8.446   2.936   5.688 -1.6418  1.4652 -0.9096
   18DOPE  C210 2249   8.359   2.834   5.530 -0.4937  0.5759  0.6401
   18DOPE  H10R 2250   8.401   2.901   5.454  1.2514  0.7938  1.7442
   18DOPE  C211 2251   8.300   2.706   5.477 -0.9007 -0.5737  0.7696
   18DOPE  H11R 2252   8.189   2.701   5.482 -1.1648 -1.0619 -2.7124
   18DOPE  H11S 2253   8.339   2.616   5.530  0.9301 -0.7275 -0.7073
   18DOPE  C212 2254   8.346   2.668   5.329  0.1886  0.2786  0.3685
   18DOPE  H12R 2255   8.323   2.560   5.319  0.7512  0.0322  1.6097
   18DOPE  H12S 2256   8.455   2.683   5.314 -0.1604  0.8454 -1.9297
   18DOPE  C213 2257   8.277   2.756   5.227 -0.5238 -0.6682  0.1988
   18DOPE  H13R 2258   8.296   2.865   5.240  0.2037 -0.9277  1.4665
   18DOPE  H13S 2259   8.170   2.743   5.256 -0.4206  0.4443  1.1679
   18DOPE  C214 2260   8.306   2.700   5.084 -0.6465 -0.4404 -0.2010
   18DOPE  H14R 2261   8.278   2.593   5.087  1.4362 -1.0110  0.7913
   18DOPE  H14S 2262   8.414   2.684   5.065 -0.6455 -0.5047 -0.1426
   18DOPE  C215 2263   8.237   2.783   4.970  0.5669  0.3807 -0.4820
   18DOPE  H15R 2264   8.282   2.884   4.967  2.5456 -0.2837  2.2551
   18DOPE  H15S 2265   8.137   2.800   5.017  2.2615  1.8650  2.9675
   18DOPE  C216 2266   8.216   2.697   4.847 -0.7848 -0.1998 -0.4123
   18DOPE  H16R 2267   8.163   2.603   4.874 -0.3711 -0.0384  1.0116
   18DOPE  H16S 2268   8.309   2.654   4.804  1.0370  3.4557 -0.5020
   18DOPE  C217 2269   8.153   2.768   4.731  0.0085 -0.2643 -0.4819
   18DOPE  H17R 2270   8.179   2.876   4.730 -2.0718  0.2851 -2.0060
   18DOPE  H17S 2271   8.044   2.763   4.753 -0.1100 -0.7021 -1.1479
   18DOPE  C218 2272   8.178   2.713   4.591 -0.4249 -0.1604  0.5177
   18DOPE  H18R 2273   8.139   2.610   4.578 -0.4530  0.1479 -2.4938
   18DOPE  H18S 2274   8.288   2.705   4.578 -0.0810 -0.6779  3.2101
   18DOPE  H18T 2275   8.144   2.786   4.514  1.4431  0.8615  0.5851
   18DOPE   C33 2276   7.863   3.241   6.177  0.2861  0.0456  1.1987
   18DOPE   H3X 2277   7.768   3.294   6.152 -0.0087 -1.5663 -1.4697
   18DOPE   H3Y 2278   7.834   3.134   6.174 -0.3621  0.2193 -2.3023
   18DOPE   C34 2279   7.958   3.260   6.054  0.2960 -0.3326 -0.7254
   18DOPE   H4X 2280   7.986   3.368   6.055 -0.5543 -0.0919  0.7565
   18DOPE   H4Y 2281   8.048   3.200   6.076  1.2082  1.5727  1.0250
   18DOPE   C35 2282   7.897   3.239   5.919 -0.3862 -0.1009 -0.7217
   18DOPE   H5X 2283   7.814   3.311   5.903 -0.3388  0.5687  1.6579
   18DOPE   H5Y 2284   7.858   3.135   5.925  0.4351 -0.4124 -0.6559
   18DOPE   C36 2285   8.008   3.243   5.811 -0.1126 -0.7145 -0.0004
   18DOPE   H6X 2286   8.110   3.212   5.840  0.2429  1.6180  1.4742
   18DOPE   H6Y 2287   8.026   3.348   5.779  0.1050 -1.0480 -1.0120
   18DOPE   C37 2288   7.974   3.153   5.687 -0.4625 -1.0604  0.2708
   18DOPE   H7X 2289   8.068   3.138   5.631  0.2418 -1.0821  1.4312
   18DOPE   H7Y 2290   7.943   3.057   5.734  0.7964 -1.6451 -0.0405
   18DOPE   C38 2291   7.853   3.198   5.604 -0.1835 -0.4850  0.7944
   18DOPE   H8X 2292   7.755   3.184   5.655 -0.9277 -1.1131 -0.7792
   18DOPE   H8Y 2293   7.849   3.137   5.512 -4.2606  1.2984 -0.4305
   18DOPE   C39 2294   7.869   3.342   5.566  0.0363 -1.2122  0.7417
   18DOPE   H9X 2295   7.971   3.380   5.583 -0.0698 -2.0496  3.8684
   18DOPE  C310 2296   7.773   3.426   5.514  0.8171 -0.3442 -0.1670
   18DOPE  H10X 2297   7.793   3.535   5.513  0.5723 -0.2891  0.4343
   18DOPE  C311 2298   7.629   3.394   5.482 -0.2633  0.1109  0.5093
   18DOPE  H11X 2299   7.600   3.420   5.378 -1.2244 -1.7421  0.2690
   18DOPE  H11Y 2300   7.621   3.283   5.487 -0.5411 -0.0233 -1.7542
   18DOPE  C312 2301   7.526   3.455   5.584  0.7787  0.2179  0.7073
   18DOPE  H12X 2302   7.423   3.427   5.553  1.2086  0.1356 -0.7285
   18DOPE  H12Y 2303   7.539   3.565   5.569 -0.0474  0.3255  0.7163
   18DOPE  C313 2304   7.553   3.414   5.728  0.2577  0.1648  0.0251
   18DOPE  H13X 2305   7.557   3.305   5.749  2.0043 -0.0811 -1.3383
   18DOPE  H13Y 2306   7.653   3.459   5.748  0.9221 -0.6839 -1.2162
   18DOPE  C314 2307   7.447   3.471   5.822  0.3405  0.6993 -0.4675
   18DOPE  H14X 2308   7.346   3.438   5.789 -0.3561  1.1614  1.1322
   18DOPE  H14Y 2309   7.439   3.582   5.822 -1.0138  0.6272  0.2249
   18DOPE  C315 2310   7.485   3.419   5.966  0.2979 -0.1515 -0.5530
   18DOPE  H15X 2311   7.596   3.425   5.973  0.2784 -1.3218  1.7382
   18DOPE  H15Y 2312   7.464   3.312   5.987 -2.5771  0.5776  0.7397
   18DOPE  C316 2313   7.429   3.506   6.076  0.4452  0.3929 -0.0321
   18DOPE  H16X 2314   7.319   3.494   6.091  0.2588  1.0805 -0.8098
   18DOPE  H16Y 2315   7.440   3.615   6.056 -1.5498  0.5176 -0.6362
   18DOPE  C317 2316   7.490   3.485   6.213 -0.1881  0.7104 -0.2866
   18DOPE  H17X 2317   7.489   3.377   6.239  1.6524  0.5022 -0.9031
   18DOPE  H17Y 2318   7.596   3.515   6.195 -0.1547  0.5669 -0.3285
   18DOPE  C318 2319   7.432   3.571   6.325  0.3779  0.0639 -0.3004
   18DOPE  H18X 2320   7.441   3.680   6.305 -0.5472  0.5940  1.8581
   18DOPE  H18Y 2321   7.330   3.539   6.356  0.3558 -1.6723 -2.0057
   18DOPE  H18Z 2322   7.488   3.561   6.421  0.2088  0.4757 -0.1556
   19DOPE     N 2323   0.166   4.534   7.095  0.0651 -0.0104 -0.2403
   19DOPE   HN1 2324   0.107   4.581   7.167 -0.5731 -1.4593  0.2099
   19DOPE   HN2 2325   0.185   4.437   7.126 -2.5874 -0.3977  0.4455
   19DOPE   HN3 2326   0.255   4.588   7.092  0.8854 -1.3103  0.1145
   19DOPE   C12 2327   0.100   4.522   6.964  0.0825 -0.4373  0.1772
   19DOPE  H12A 2328   0.074   4.622   6.923  0.9729 -0.8976 -1.5852
   19DOPE  H12B 2329   0.007   4.462   6.976 -1.3677  1.8603  1.1764
   19DOPE   C11 2330   0.194   4.446   6.861  0.3357  0.1248  0.0362
   19DOPE  H11A 2331   0.130   4.433   6.771 -1.2666 -0.6839  1.2286
   19DOPE  H11B 2332   0.220   4.344   6.896 -1.1605 -0.3620 -0.1707
   19DOPE     P 2333   0.442   4.511   6.880  0.2050 -0.0478 -0.0727
   19DOPE   O13 2334   0.425   4.495   7.029  0.1529  0.0570 -0.0661
   19DOPE   O14 2335   0.521   4.630   6.835 -0.1666  0.5310 -0.2569
   19DOPE   O11 2336   0.497   4.371   6.822  0.7092 -0.1074  0.3618
   19DOPE   O12 2337   0.301   4.527   6.816 -0.2211  0.0253  0.4528
   19DOPE    C1 2338   0.561   4.375   6.701 -0.2679 -0.4390 -0.2891
   19DOPE    HA 2339   0.639   4.296   6.708  1.2559  0.9322 -1.0004
   19DOPE    HB 2340   0.618   4.468   6.680  1.6630 -1.7580 -1.1327
   19DOPE    C2 2341   0.463   4.335   6.585  0.0128 -0.3531 -0.0197
   19DOPE    HS 2342   0.534   4.321   6.500  0.0464 -1.2006  0.1352
   19DOPE   O21 2343   0.365   4.442   6.540  0.3259  0.6377  0.0165
   19DOPE   C21 2344   0.423   4.541   6.481 -0.1136 -0.2832 -0.4219
   19DOPE   O22 2345   0.545   4.553   6.471 -0.0950  0.0928  0.6806
   19DOPE   C22 2346   0.321   4.653   6.432 -1.0963 -0.7191 -0.5329
   19DOPE   H2R 2347   0.351   4.748   6.481  1.4410 -0.4944 -2.3472
   19DOPE   H2S 2348   0.217   4.620   6.453 -0.5452 -1.9756  0.4132
   19DOPE    C3 2349   0.386   4.199   6.610  0.0684 -0.3739  0.2123
   19DOPE    HX 2350   0.319   4.217   6.697 -1.0636  3.2461 -1.1944
   19DOPE    HY 2351   0.457   4.116   6.628  0.0163 -0.6012 -0.6035
   19DOPE   O31 2352   0.319   4.152   6.495  0.1655  0.2380 -0.1068
   19DOPE   C31 2353   0.182   4.149   6.499 -0.0180 -0.5192  0.3614
   19DOPE   O32 2354   0.120   4.193   6.591 -0.1372 -0.5520  0.0123
   19DOPE   C32 2355   0.133   4.096   6.366  0.2883 -0.4889  0.8073
   19DOPE   H2X 2356   0.218   4.111   6.297 -0.3015 -1.0132 -0.0431
   19DOPE   H2Y 2357   0.112   3.989   6.389  0.4721 -0.7139 -0.0538
   19DOPE   C23 2358   0.351   4.705   6.295 -0.6074 -0.5588 -0.0170
   19DOPE   H3R 2359   0.450   4.755   6.285 -0.9415  0.2117  0.4060
   19DOPE   H3S 2360   0.273   4.779   6.267  0.1185  0.1011 -0.3222
   19DOPE   C24 2361   0.345   4.598   6.189 -0.8968  0.1102  0.7264
   19DOPE   H4R 2362   0.436   4.535   6.196 -0.9106  0.1652  1.4317
   19DOPE   H4S 2363   0.343   4.653   6.092 -0.4065  1.7548  1.6248
   19DOPE   C25 2364   0.214   4.524   6.188 -0.1247  0.1003  0.0086
   19DOPE   H5R 2365   0.125   4.589   6.208  0.0106  0.8030 -1.5082
   19DOPE   H5S 2366   0.220   4.450   6.270  0.6497 -0.1768 -0.2927
   19DOPE   C26 2367   0.175   4.449   6.058  0.1780  0.0397  0.4122
   19DOPE   H6R 2368   0.185   4.525   5.978 -1.8528  0.0951  0.1501
   19DOPE   H6S 2369   0.075   4.401   6.051  0.5669 -0.6154 -1.0644
   19DOPE   C27 2370   0.267   4.322   6.025 -0.0698 -0.0159 -0.6699
   19DOPE   H7R 2371   0.245   4.232   6.086 -0.5006  0.1207 -0.6267
   19DOPE   H7S 2372   0.372   4.347   6.052  0.2809 -0.5860 -1.4511
   19DOPE   C28 2373   0.256   4.282   5.874 -0.0236  0.3834 -0.0779
   19DOPE   H8R 2374   0.147   4.284   5.849 -0.0879  0.9493  0.2309
   19DOPE   H8S 2375   0.303   4.182   5.861 -0.1540  0.3071  0.0417
   19DOPE   C29 2376   0.324   4.380   5.785 -0.5618  0.5981 -0.2478
   19DOPE   H9R 2377   0.427   4.399   5.818 -0.7124  3.1432 -1.0173
   19DOPE  C210 2378   0.271   4.451   5.683 -0.6574 -0.3346 -0.3456
   19DOPE  H10R 2379   0.336   4.529   5.640  0.0698  0.7985  2.5309
   19DOPE  C211 2380   0.128   4.459   5.645  0.3885 -0.0350  0.7530
   19DOPE  H11R 2381   0.075   4.542   5.696  0.8138  0.1134  0.9582
   19DOPE  H11S 2382   0.071   4.376   5.692 -1.5861  1.7020  1.5858
   19DOPE  C212 2383   0.105   4.453   5.488 -0.0498  0.5439  0.4451
   19DOPE  H12R 2384   0.117   4.349   5.451 -0.1431  1.2168 -1.6116
   19DOPE  H12S 2385   0.192   4.510   5.447 -0.0728 -1.1319 -2.1656
   19DOPE  C213 2386  -0.023   4.518   5.434  0.3082  0.5480  0.0275
   19DOPE  H13R 2387  -0.031   4.621   5.475  0.7565  0.9934 -0.9803
   19DOPE  H13S 2388  -0.108   4.460   5.476  2.2970 -1.4698  1.4742
   19DOPE  C214 2389  -0.020   4.516   5.283  0.1700 -0.1674  0.0178
   19DOPE  H14R 2390   0.003   4.415   5.243  2.0578 -0.8770  2.6540
   19DOPE  H14S 2391   0.064   4.576   5.242 -0.2069 -0.9281 -1.9930
   19DOPE  C215 2392  -0.152   4.562   5.216 -0.8443  1.0672 -0.4834
   19DOPE  H15R 2393  -0.232   4.502   5.265 -0.1538  0.2736 -0.3041
   19DOPE  H15S 2394  -0.156   4.531   5.109 -0.9824 -0.6546 -0.0148
   19DOPE  C216 2395  -0.181   4.707   5.227  0.4094 -0.1337  0.2589
   19DOPE  H16R 2396  -0.097   4.752   5.170  0.6194 -0.2934  0.4323
   19DOPE  H16S 2397  -0.171   4.761   5.324  0.3898  0.4727 -0.0763
   19DOPE  C217 2398  -0.313   4.764   5.159  0.4863  0.1490  0.6532
   19DOPE  H17R 2399  -0.301   4.874   5.147 -0.7757  0.1170 -1.1703
   19DOPE  H17S 2400  -0.389   4.745   5.237 -0.2820  1.1352  0.1618
   19DOPE  C218 2401  -0.340   4.698   5.022 -0.2979  0.8482 -0.5121
   19DOPE  H18R 2402  -0.351   4.588   5.025  0.4994  0.7487 -0.8989
   19DOPE  H18S 2403  -0.261   4.705   4.944 -0.5299  0.1728 -0.8168
   19DOPE  H18T 2404  -0.435   4.735   4.978 -1.2542  0.0090  0.7863
   19DOPE   C33 2405   0.005   4.178   6.330  0.2642  0.6068  0.7629
   19DOPE   H3X 2406   0.000   4.289   6.332  1.2390  0.8244 -2.7914
   19DOPE   H3Y 2407  -0.076   4.144   6.398 -1.4404  0.4053 -1.2863
   19DOPE   C34 2408  -0.054   4.132   6.187  0.3455 -0.6004  0.0843
   19DOPE   H4X 2409   0.026   4.130   6.110  0.9665  2.9720  0.4432
   19DOPE   H4Y 2410  -0.092   4.028   6.194 -0.0021 -0.4504  0.5040
   19DOPE   C35 2411  -0.181   4.205   6.149 -0.0449  0.7756 -0.3683
   19DOPE   H5X 2412  -0.174   4.316   6.150  0.5443  0.7404 -0.8035
   19DOPE   H5Y 2413  -0.260   4.175   6.221 -0.8034 -0.1587 -1.5587
   19DOPE   C36 2414  -0.243   4.166   6.012  0.2807  0.9947  0.1293
   19DOPE   H6X 2415  -0.346   4.207   6.009 -0.5947 -0.8990  1.7172
   19DOPE   H6Y 2416  -0.244   4.055   6.015  1.0401  0.9881  0.5412
   19DOPE   C37 2417  -0.154   4.204   5.896  0.6409 -0.4394 -0.2274
   19DOPE   H7X 2418  -0.156   4.314   5.883 -0.8396 -0.1957  1.6140
   19DOPE   H7Y 2419  -0.049   4.170   5.904  0.9600  0.8000  1.1414
   19DOPE   C38 2420  -0.213   4.145   5.767  0.4728  0.1704  0.0884
   19DOPE   H8X 2421  -0.317   4.173   5.740  0.7808  1.2400 -0.0271
   19DOPE   H8Y 2422  -0.230   4.037   5.788  0.7499  0.0699 -0.1834
   19DOPE   C39 2423  -0.117   4.156   5.648  0.6936  0.3191  0.0072
   19DOPE   H9X 2424  -0.096   4.259   5.617 -0.9430 -0.0080 -2.4294
   19DOPE  C310 2425  -0.042   4.060   5.592 -0.2988  0.0135  0.1144
   19DOPE  H10X 2426   0.020   4.085   5.505 -1.5894  0.2228 -0.7846
   19DOPE  C311 2427  -0.038   3.913   5.625  0.6746 -0.4605  0.3626
   19DOPE  H11X 2428  -0.142   3.874   5.640 -0.1764  1.2931 -0.7232
   19DOPE  H11Y 2429  -0.002   3.861   5.534  1.1874 -1.6741  1.2244
   19DOPE  C312 2430   0.040   3.868   5.752  0.1537 -0.0120 -0.1621
   19DOPE  H12X 2431   0.006   3.763   5.768  1.1401 -0.6085 -1.7569
   19DOPE  H12Y 2432   0.015   3.928   5.842 -1.3043  1.3420 -1.3966
   19DOPE  C313 2433   0.185   3.863   5.734  0.2291  0.7148 -0.2201
   19DOPE  H13X 2434   0.209   3.825   5.632  1.4301  0.6799  0.0672
   19DOPE  H13Y 2435   0.218   3.968   5.735  2.5973  0.0334 -0.9016
   19DOPE  C314 2436   0.272   3.779   5.836 -0.5506 -0.2053 -0.2242
   19DOPE  H14X 2437   0.380   3.786   5.812 -0.6294 -0.0642 -0.5520
   19DOPE  H14Y 2438   0.247   3.673   5.814  1.3935 -0.2992 -2.4726
   19DOPE  C315 2439   0.245   3.818   5.983 -0.1316 -0.4577 -0.3798
   19DOPE  H15X 2440   0.136   3.814   6.005 -0.4062  2.2967 -0.8459
   19DOPE  H15Y 2441   0.278   3.923   5.997 -1.5813  0.0264 -0.3643
   19DOPE  C316 2442   0.325   3.730   6.079  0.3897  0.1000  0.0701
   19DOPE  H16X 2443   0.434   3.747   6.069  0.8375 -2.7388 -0.8372
   19DOPE  H16Y 2444   0.308   3.626   6.044  1.3195  0.3853 -1.2992
   19DOPE  C317 2445   0.270   3.734   6.223 -0.3678  0.2030 -0.0560
   19DOPE  H17X 2446   0.326   3.659   6.283  0.5461  0.6332 -0.3415
   19DOPE  H17Y 2447   0.291   3.835   6.265  0.0590  0.4016 -0.7298
   19DOPE  C318 2448   0.128   3.698   6.245  0.0979 -0.0953 -0.5495
   19DOPE  H18X 2449   0.106   3.598   6.201  3.3427 -1.9421  1.6080
   19DOPE  H18Y 2450   0.101   3.675   6.350 -0.3749 -0.2239 -0.6914
   19DOPE  H18Z 2451   0.059   3.775   6.203  2.1187  0.8657 -2.3307
   20DOPE     N 2452   6.608   6.480   7.089 -0.2489  0.2470  0.3370
   20DOPE   HN1 2453   6.534   6.407   7.090 -2.2102  2.0063 -2.1690
   20DOPE   HN2 2454   6.701   6.450   7.125  1.2279  0.2499 -3.1184
   20DOPE   HN3 2455   6.567   6.554   7.151  1.4944  1.2337  0.3711
   20DOPE   C12 2456   6.623   6.543   6.957  0.4435 -0.4679  0.1836
   20DOPE  H12A 2457   6.663   6.471   6.882  0.4203 -1.3465  1.0046
   20DOPE  H12B 2458   6.706   6.616   6.968 -0.0166  0.0482  0.3040
   20DOPE   C11 2459   6.502   6.626   6.917  0.6029  0.1951  0.3847
   20DOPE  H11A 2460   6.425   6.562   6.868  1.0002  0.3362 -0.4410
   20DOPE  H11B 2461   6.538   6.691   6.835  1.1131 -1.2380 -0.5805
   20DOPE     P 2462   6.478   6.839   7.059 -0.0795 -0.2434 -0.2325
   20DOPE   O13 2463   6.613   6.838   7.118 -0.5438 -0.4899  0.0425
   20DOPE   O14 2464   6.368   6.902   7.141  0.1180 -0.5370  0.2628
   20DOPE   O11 2465   6.492   6.909   6.924  0.3725 -0.1370  0.4277
   20DOPE   O12 2466   6.436   6.691   7.025  0.8217  0.3120  0.5876
   20DOPE    C1 2467   6.374   6.915   6.845 -0.1651 -0.2083  0.2612
   20DOPE    HA 2468   6.297   6.979   6.893 -2.0906  0.3513 -3.2665
   20DOPE    HB 2469   6.325   6.817   6.824 -2.0028  0.6181  0.4683
   20DOPE    C2 2470   6.414   6.979   6.704 -0.3624  0.3990  0.0613
   20DOPE    HS 2471   6.318   7.008   6.656  0.4927  0.6169 -1.6211
   20DOPE   O21 2472   6.496   6.883   6.632  0.7711  0.0828 -0.0732
   20DOPE   C21 2473   6.422   6.780   6.576  0.2774  0.0907  0.1633
   20DOPE   O22 2474   6.299   6.767   6.585 -1.1786 -0.5449  0.2468
   20DOPE   C22 2475   6.517   6.692   6.496  0.4535 -0.9191 -0.6534
   20DOPE   H2R 2476   6.554   6.606   6.556 -0.6266 -0.1356  1.1979
   20DOPE   H2S 2477   6.602   6.757   6.467 -0.3605  0.4069 -0.1693
   20DOPE    C3 2478   6.503   7.105   6.718  0.0580 -0.4668  0.3547
   20DOPE    HX 2479   6.595   7.069   6.769 -0.2660  0.7608  1.9057
   20DOPE    HY 2480   6.444   7.172   6.785  0.8901  0.2631  0.3855
   20DOPE   O31 2481   6.534   7.165   6.591  0.3076 -0.3441  1.2271
   20DOPE   C31 2482   6.655   7.146   6.539 -0.4824  0.0242 -0.3001
   20DOPE   O32 2483   6.747   7.092   6.599 -0.5375  0.3460  0.3563
   20DOPE   C32 2484   6.665   7.202   6.400  0.5840 -0.3571 -0.0141
   20DOPE   H2X 2485   6.574   7.170   6.345  0.2273 -0.5466  0.6750
   20DOPE   H2Y 2486   6.668   7.313   6.397  0.3850 -0.3703 -1.7744
   20DOPE   C23 2487   6.469   6.642   6.358  0.2323  0.2546  0.4430
   20DOPE   H3R 2488   6.359   6.628   6.369 -0.0007  0.8230 -1.0344
   20DOPE   H3S 2489   6.531   6.556   6.326  0.8913  1.1499 -0.7408
   20DOPE   C24 2490   6.482   6.747   6.243  0.6390 -0.0065 -0.9513
   20DOPE   H4R 2491   6.440   6.844   6.275 -0.2685 -0.3143 -1.1823
   20DOPE   H4S 2492   6.428   6.697   6.160  0.8352 -2.3186  0.2221
   20DOPE   C25 2493   6.625   6.769   6.187 -0.1282 -0.0949  0.0240
   20DOPE   H5R 2494   6.687   6.677   6.189  1.8271  1.0794 -2.0920
   20DOPE   H5S 2495   6.668   6.839   6.261 -0.1184 -0.5422  0.4528
   20DOPE   C26 2496   6.624   6.832   6.049  0.3933 -0.5016  0.1038
   20DOPE   H6R 2497   6.576   6.931   6.067 -0.0629 -0.3868 -1.5637
   20DOPE   H6S 2498   6.559   6.760   5.995 -1.9950 -1.2994  3.6337
   20DOPE   C27 2499   6.763   6.843   5.987 -0.7202  0.8107 -0.5432
   20DOPE   H7R 2500   6.808   6.750   6.027  1.4044  1.8019 -0.4571
   20DOPE   H7S 2501   6.826   6.921   6.036  0.5057 -0.5543  0.1166
   20DOPE   C28 2502   6.775   6.857   5.837  0.5067  0.3390 -0.1224
   20DOPE   H8R 2503   6.707   6.931   5.791 -0.1834  0.7326  1.4503
   20DOPE   H8S 2504   6.751   6.761   5.786  1.9771  1.1915 -2.6018
   20DOPE   C29 2505   6.914   6.882   5.789 -0.4904 -0.9825  0.0726
   20DOPE   H9R 2506   6.961   6.972   5.830 -1.7335 -0.7336  1.0386
   20DOPE  C210 2507   6.986   6.819   5.697  0.0318  0.0738 -0.3847
   20DOPE  H10R 2508   7.090   6.847   5.676  0.9589 -2.5729  0.2778
   20DOPE  C211 2509   6.956   6.685   5.616  0.0012  0.2897  0.0057
   20DOPE  H11R 2510   6.902   6.606   5.674 -2.0159  2.3948  1.1605
   20DOPE  H11S 2511   7.049   6.627   5.596  0.0073  0.0550  0.6804
   20DOPE  C212 2512   6.870   6.714   5.489  0.2389  0.0010 -0.4028
   20DOPE  H12R 2513   6.902   6.806   5.437 -1.9701 -0.4045 -2.6466
   20DOPE  H12S 2514   6.767   6.719   5.531  1.0792 -0.9342  2.0121
   20DOPE  C213 2515   6.879   6.604   5.391 -0.3504  0.1100  0.4564
   20DOPE  H13R 2516   6.856   6.510   5.445 -1.2185  0.2470  0.3347
   20DOPE  H13S 2517   6.989   6.599   5.371  0.1619  1.2088  2.7008
   20DOPE  C214 2518   6.792   6.620   5.257 -0.0271  0.0124 -0.0782
   20DOPE  H14R 2519   6.804   6.724   5.220 -0.1621  0.9964  2.4365
   20DOPE  H14S 2520   6.687   6.617   5.294  0.4488  2.2711  1.7193
   20DOPE  C215 2521   6.816   6.514   5.158 -0.1465 -0.1952  0.3384
   20DOPE  H15R 2522   6.799   6.412   5.198  0.8513 -0.1276  0.9559
   20DOPE  H15S 2523   6.926   6.498   5.150 -0.2882 -0.9634 -0.1354
   20DOPE  C216 2524   6.743   6.525   5.023 -0.4963 -0.0888 -0.6372
   20DOPE  H16R 2525   6.778   6.615   4.967  0.8338  1.6101  2.6434
   20DOPE  H16S 2526   6.633   6.533   5.033 -0.5939 -0.5083 -1.3303
   20DOPE  C217 2527   6.762   6.415   4.922  0.7632 -0.3365 -0.2723
   20DOPE  H17R 2528   6.714   6.319   4.951 -0.2592  0.1710 -0.2538
   20DOPE  H17S 2529   6.871   6.393   4.924  1.1665  1.5626  1.4385
   20DOPE  C218 2530   6.719   6.438   4.776  0.0363 -0.6399  0.1733
   20DOPE  H18R 2531   6.608   6.451   4.782  0.1960  0.0522  2.8285
   20DOPE  H18S 2532   6.732   6.343   4.720  0.4422 -0.3410 -0.2422
   20DOPE  H18T 2533   6.753   6.523   4.713 -0.2135 -0.6947 -0.0431
   20DOPE   C33 2534   6.781   7.133   6.324  0.2719  0.0655 -0.6639
   20DOPE   H3X 2535   6.774   7.026   6.353  1.6289  0.2998  0.6442
   20DOPE   H3Y 2536   6.880   7.165   6.363  0.2258  1.0081 -1.2826
   20DOPE   C34 2537   6.779   7.154   6.170 -0.3295 -0.2723  0.2059
   20DOPE   H4X 2538   6.883   7.131   6.140 -0.4898 -0.7051 -0.0345
   20DOPE   H4Y 2539   6.712   7.092   6.106  1.0526  0.0218 -1.6090
   20DOPE   C35 2540   6.747   7.296   6.126 -0.4090  0.5336 -0.5008
   20DOPE   H5X 2541   6.810   7.355   6.196 -0.8698 -1.9912  2.2500
   20DOPE   H5Y 2542   6.637   7.308   6.134 -0.5320  1.9555 -3.2974
   20DOPE   C36 2543   6.804   7.324   5.986 -0.0550 -0.4672 -0.3157
   20DOPE   H6X 2544   6.906   7.279   5.996 -0.3956 -0.9327  1.3881
   20DOPE   H6Y 2545   6.809   7.435   5.986  1.1124 -0.5078 -0.5435
   20DOPE   C37 2546   6.727   7.274   5.864 -0.6950  0.2873 -0.6606
   20DOPE   H7X 2547   6.759   7.174   5.830  1.9131  1.0971 -0.8438
   20DOPE   H7Y 2548   6.617   7.278   5.878 -0.4413  1.8653  1.4282
   20DOPE   C38 2549   6.756   7.353   5.731 -0.4666  0.0072 -0.3541
   20DOPE   H8X 2550   6.862   7.374   5.705 -0.5235  0.0275 -0.5763
   20DOPE   H8Y 2551   6.715   7.455   5.749  1.1883  0.6847 -0.2805
   20DOPE   C39 2552   6.691   7.300   5.608 -0.2567 -0.0849  0.6754
   20DOPE   H9X 2553   6.620   7.216   5.623 -0.8867  0.3383  0.1212
   20DOPE  C310 2554   6.709   7.354   5.488 -0.0850  0.2614 -0.3184
   20DOPE  H10X 2555   6.655   7.311   5.402 -0.1911  1.5186 -0.9000
   20DOPE  C311 2556   6.806   7.458   5.443  0.4657  0.0147 -0.1415
   20DOPE  H11X 2557   6.870   7.494   5.527  1.9454 -0.3847 -1.0663
   20DOPE  H11Y 2558   6.866   7.414   5.361 -0.7477 -0.7128 -0.6559
   20DOPE  C312 2559   6.748   7.587   5.391 -0.2257  0.2246  0.2391
   20DOPE  H12X 2560   6.841   7.648   5.378  0.6765 -0.7128  1.9295
   20DOPE  H12Y 2561   6.689   7.636   5.471 -0.5682 -1.1414  0.8521
   20DOPE  C313 2562   6.661   7.562   5.272 -0.6546 -0.2794 -0.8285
   20DOPE  H13X 2563   6.727   7.523   5.192 -0.3529  1.2712 -1.3744
   20DOPE  H13Y 2564   6.586   7.490   5.310 -1.7714 -0.7948 -3.7356
   20DOPE  C314 2565   6.596   7.691   5.215 -0.0316  0.8825  0.2929
   20DOPE  H14X 2566   6.671   7.772   5.212  0.7369  0.1363 -1.4422
   20DOPE  H14Y 2567   6.508   7.711   5.281 -1.5454 -1.1464 -0.9810
   20DOPE  C315 2568   6.552   7.669   5.073  0.6930  0.0711  0.5501
   20DOPE  H15X 2569   6.645   7.650   5.016  0.1514 -0.4250 -0.2024
   20DOPE  H15Y 2570   6.495   7.759   5.042 -0.1110 -1.0006 -1.2312
   20DOPE  C316 2571   6.444   7.555   5.056  0.3712 -0.1360 -0.2632
   20DOPE  H16X 2572   6.352   7.574   5.116 -0.6767 -1.8413 -1.2376
   20DOPE  H16Y 2573   6.485   7.458   5.090 -3.2719 -1.1671  1.8119
   20DOPE  C317 2574   6.395   7.545   4.911  0.1397  0.0660 -0.3657
   20DOPE  H17X 2575   6.368   7.643   4.866  0.5999  0.8223  0.9635
   20DOPE  H17Y 2576   6.482   7.509   4.852 -0.6007 -2.5270 -0.0022
   20DOPE  C318 2577   6.280   7.438   4.895 -0.6747 -0.0956  0.1443
   20DOPE  H18X 2578   6.200   7.470   4.964  0.6881  0.2358  1.6482
   20DOPE  H18Y 2579   6.249   7.423   4.790  0.2639 -1.5352  0.0447
   20DOPE  H18Z 2580   6.321   7.344   4.937  2.8706  0.4537 -1.6834
   21DOPE     N 2581   3.244   7.415   6.927  0.2944  0.3733 -0.4615
   21DOPE   HN1 2582   3.274   7.501   6.977 -0.5802  1.9960 -2.5946
   21DOPE   HN2 2583   3.213   7.447   6.834 -0.5116  0.8066 -0.0589
   21DOPE   HN3 2584   3.167   7.371   6.983  0.2434 -0.5773 -1.2442
   21DOPE   C12 2585   3.371   7.332   6.921  0.3735 -0.6746 -0.3835
   21DOPE  H12A 2586   3.354   7.235   6.869 -0.3771 -0.8777  0.2233
   21DOPE  H12B 2587   3.401   7.315   7.026 -1.8366  0.0243  0.4235
   21DOPE   C11 2588   3.480   7.418   6.841 -0.1518 -0.1008 -0.2916
   21DOPE  H11A 2589   3.436   7.421   6.739 -0.3000 -0.0062 -0.2241
   21DOPE  H11B 2590   3.577   7.363   6.834  0.0347  0.1818  0.0232
   21DOPE     P 2591   3.617   7.564   7.012  0.1340  0.1079  0.0479
   21DOPE   O13 2592   3.578   7.485   7.132 -0.3905  0.2490 -0.3335
   21DOPE   O14 2593   3.638   7.710   7.030 -0.2492  0.5825  0.1450
   21DOPE   O11 2594   3.742   7.490   6.946  0.7879 -0.1745 -0.1605
   21DOPE   O12 2595   3.502   7.543   6.902  0.1042 -0.7555 -0.0131
   21DOPE    C1 2596   3.830   7.543   6.848 -0.1325  0.0714  0.2162
   21DOPE    HA 2597   3.936   7.528   6.878 -0.7048 -4.0586  0.8307
   21DOPE    HB 2598   3.824   7.654   6.842  0.4165  0.0215 -1.8126
   21DOPE    C2 2599   3.808   7.496   6.702 -0.2470  0.3181 -1.0965
   21DOPE    HS 2600   3.708   7.532   6.671  0.5590  2.1089 -1.7846
   21DOPE   O21 2601   3.824   7.352   6.700  0.9026 -0.3162  0.1691
   21DOPE   C21 2602   3.745   7.288   6.614 -0.2069 -0.4305  0.3151
   21DOPE   O22 2603   3.665   7.340   6.544  0.7074 -0.7019  0.0959
   21DOPE   C22 2604   3.754   7.144   6.636 -0.1836  0.9400  0.1476
   21DOPE   H2R 2605   3.677   7.121   6.712 -0.1436 -0.6699 -0.2655
   21DOPE   H2S 2606   3.856   7.119   6.672  0.9209  0.6610 -2.8603
   21DOPE    C3 2607   3.912   7.574   6.611  1.1224  0.8217  0.8427
   21DOPE    HX 2608   4.008   7.529   6.642  2.7524  1.1005 -3.2365
   21DOPE    HY 2609   3.905   7.682   6.633 -1.2587  0.9675 -0.3182
   21DOPE   O31 2610   3.896   7.536   6.470 -0.1651  0.7999 -0.1983
   21DOPE   C31 2611   3.784   7.582   6.411 -0.1335  0.1012  0.0625
   21DOPE   O32 2612   3.703   7.658   6.460  0.4181  0.3557  0.9995
   21DOPE   C32 2613   3.800   7.544   6.271  0.7046  0.2874  0.1526
   21DOPE   H2X 2614   3.885   7.597   6.224  0.9717 -2.0849 -2.2771
   21DOPE   H2Y 2615   3.842   7.441   6.262  0.4465  0.1941 -0.0136
   21DOPE   C23 2616   3.705   7.066   6.509  0.1541  0.7317 -0.0300
   21DOPE   H3R 2617   3.610   7.105   6.466  0.1234 -0.1559 -0.8005
   21DOPE   H3S 2618   3.690   6.959   6.534 -0.2771  1.2364  1.9983
   21DOPE   C24 2619   3.810   7.062   6.393  0.0382  0.6661 -0.4248
   21DOPE   H4R 2620   3.898   7.006   6.431  0.5978  1.0917 -1.0624
   21DOPE   H4S 2621   3.845   7.167   6.386  1.9396  0.0771 -0.3013
   21DOPE   C25 2622   3.769   6.994   6.256 -0.0884  0.3532 -0.2013
   21DOPE   H5R 2623   3.688   6.919   6.270  0.0991  0.4178  1.4167
   21DOPE   H5S 2624   3.852   6.943   6.204 -1.8106 -2.1415 -0.6945
   21DOPE   C26 2625   3.727   7.102   6.152 -0.5425  0.6221 -0.3278
   21DOPE   H6R 2626   3.801   7.184   6.165 -0.4533  0.6845 -1.1868
   21DOPE   H6S 2627   3.632   7.139   6.195  0.1684 -0.6407  2.6160
   21DOPE   C27 2628   3.711   7.029   6.019  0.1768 -0.3631 -0.5705
   21DOPE   H7R 2629   3.624   6.963   6.037  0.6234 -0.9944 -0.7048
   21DOPE   H7S 2630   3.800   6.965   5.999 -0.5137 -1.9417  1.1888
   21DOPE   C28 2631   3.688   7.121   5.901  0.0762  0.3829 -0.2100
   21DOPE   H8R 2632   3.778   7.185   5.888  1.4065 -1.1319  1.2383
   21DOPE   H8S 2633   3.604   7.188   5.930 -0.8121 -1.0543  0.6635
   21DOPE   C29 2634   3.651   7.050   5.773  0.4333 -0.0259  0.1730
   21DOPE   H9R 2635   3.557   6.993   5.773  0.6430 -0.3798  1.0467
   21DOPE  C210 2636   3.702   7.072   5.649 -0.0790  0.2280  0.3956
   21DOPE  H10R 2637   3.663   7.017   5.561 -1.9333  1.7236  0.2286
   21DOPE  C211 2638   3.814   7.161   5.609 -0.4365  0.2987 -0.4842
   21DOPE  H11R 2639   3.806   7.261   5.656 -2.0221  0.8264 -1.7967
   21DOPE  H11S 2640   3.805   7.176   5.499  2.3777 -0.6643 -0.9338
   21DOPE  C212 2641   3.962   7.118   5.628  0.9338  0.3729 -0.0260
   21DOPE  H12R 2642   3.970   7.018   5.579  0.1285  0.6640 -0.7859
   21DOPE  H12S 2643   3.987   7.108   5.736  1.1087 -3.7321 -0.2831
   21DOPE  C213 2644   4.059   7.213   5.559  0.5007  0.2802  0.1970
   21DOPE  H13R 2645   4.044   7.316   5.600 -0.9410  0.8593 -1.6180
   21DOPE  H13S 2646   4.045   7.214   5.449  0.0872  0.1558  0.2442
   21DOPE  C214 2647   4.191   7.167   5.603 -0.0286  0.6347  0.3296
   21DOPE  H14R 2648   4.190   7.057   5.593 -0.6272  0.7776 -1.5431
   21DOPE  H14S 2649   4.213   7.191   5.710  1.0951 -0.7293  0.4322
   21DOPE  C215 2650   4.299   7.211   5.498 -0.1388  0.5952  0.5752
   21DOPE  H15R 2651   4.396   7.159   5.510  1.8235  3.7541 -0.1994
   21DOPE  H15S 2652   4.322   7.318   5.516 -3.2923  1.3971  0.4152
   21DOPE  C216 2653   4.255   7.209   5.348 -0.2982  0.6231  0.5951
   21DOPE  H16R 2654   4.229   7.310   5.310  1.0483  0.5165 -0.7164
   21DOPE  H16S 2655   4.173   7.140   5.323  0.9764 -0.9327  0.5482
   21DOPE  C217 2656   4.367   7.162   5.252 -0.7140  0.0144  1.3333
   21DOPE  H17R 2657   4.408   7.064   5.284 -2.7728 -1.6758 -0.8543
   21DOPE  H17S 2658   4.450   7.234   5.260  1.1516 -1.8331 -0.1953
   21DOPE  C218 2659   4.323   7.148   5.108  0.4756  0.7480  0.4296
   21DOPE  H18R 2660   4.248   7.065   5.103  1.3447 -0.0037 -0.6158
   21DOPE  H18S 2661   4.411   7.114   5.050 -1.1814 -0.6737 -1.4334
   21DOPE  H18T 2662   4.291   7.248   5.071 -1.3050 -0.0070 -0.1970
   21DOPE   C33 2663   3.673   7.563   6.184 -0.2582  0.5620  0.9786
   21DOPE   H3X 2664   3.669   7.669   6.152  0.2923  0.9137  2.0371
   21DOPE   H3Y 2665   3.582   7.544   6.245  0.0304 -0.3584  1.1318
   21DOPE   C34 2666   3.664   7.469   6.059 -0.7210  0.2587  0.6779
   21DOPE   H4X 2667   3.758   7.468   6.000 -0.0868  1.4024  1.6205
   21DOPE   H4Y 2668   3.654   7.364   6.092  1.1786 -0.2025 -0.0725
   21DOPE   C35 2669   3.564   7.521   5.954  0.8635  0.8048  0.5253
   21DOPE   H5X 2670   3.608   7.620   5.926 -2.8463  2.6307  0.6068
   21DOPE   H5Y 2671   3.467   7.545   6.001  0.3819 -1.3461  0.7432
   21DOPE   C36 2672   3.551   7.451   5.820 -0.0365 -0.4287  0.0144
   21DOPE   H6X 2673   3.504   7.351   5.835  0.0319 -0.7197 -1.5717
   21DOPE   H6Y 2674   3.657   7.449   5.789  0.1272  1.6814  0.2812
   21DOPE   C37 2675   3.465   7.534   5.723  0.5343 -0.1421  0.1279
   21DOPE   H7X 2676   3.366   7.559   5.767 -0.2072  0.8611 -1.9591
   21DOPE   H7Y 2677   3.515   7.632   5.715  0.0464  0.2753  1.7698
   21DOPE   C38 2678   3.433   7.454   5.594  0.5959  0.1323 -0.2551
   21DOPE   H8X 2679   3.366   7.372   5.625 -0.6716  1.2724  0.1112
   21DOPE   H8Y 2680   3.526   7.403   5.559  0.1542 -0.6789 -0.2712
   21DOPE   C39 2681   3.364   7.536   5.494 -0.2249  0.1253  0.2016
   21DOPE   H9X 2682   3.404   7.638   5.482  0.7085 -0.3888 -1.4204
   21DOPE  C310 2683   3.281   7.493   5.397 -0.5113  0.6476 -0.2633
   21DOPE  H10X 2684   3.231   7.568   5.335 -1.9583 -0.9976 -1.1893
   21DOPE  C311 2685   3.233   7.347   5.395  0.0619 -0.3770  0.1412
   21DOPE  H11X 2686   3.273   7.297   5.305 -3.2923 -2.0472 -0.5807
   21DOPE  H11Y 2687   3.255   7.279   5.480 -2.4034 -0.1385  1.0544
   21DOPE  C312 2688   3.080   7.342   5.379  0.4473 -0.4722  0.3755
   21DOPE  H12X 2689   3.065   7.402   5.286  0.6664  0.1446  0.7287
   21DOPE  H12Y 2690   3.031   7.383   5.470  0.8721  0.9954 -0.0213
   21DOPE  C313 2691   3.046   7.197   5.348  0.1695 -0.0049  0.0234
   21DOPE  H13X 2692   3.089   7.156   5.254  1.0979 -0.0136  0.4364
   21DOPE  H13Y 2693   3.087   7.137   5.432  0.1144 -0.4757 -0.2794
   21DOPE  C314 2694   2.894   7.177   5.327 -0.0476  0.7409  0.0933
   21DOPE  H14X 2695   2.843   7.240   5.403 -1.9475 -0.5788 -0.0079
   21DOPE  H14Y 2696   2.873   7.070   5.345  2.6378  0.1166 -0.0260
   21DOPE  C315 2697   2.856   7.203   5.183 -0.4125 -0.3125 -0.2818
   21DOPE  H15X 2698   2.892   7.304   5.155  0.4133  0.0543  1.9514
   21DOPE  H15Y 2699   2.746   7.202   5.170 -0.5530 -2.3822  0.6353
   21DOPE  C316 2700   2.901   7.095   5.084 -0.3690  0.0122  0.0020
   21DOPE  H16X 2701   2.877   6.998   5.133 -0.6555  1.1020  2.1670
   21DOPE  H16Y 2702   3.010   7.111   5.074 -0.4753 -0.1364 -1.6209
   21DOPE  C317 2703   2.841   7.111   4.943  0.1911 -0.7109  0.2342
   21DOPE  H17X 2704   2.734   7.142   4.945  0.9102  1.9001  1.2796
   21DOPE  H17Y 2705   2.894   7.194   4.893  3.9062 -0.9507  3.3489
   21DOPE  C318 2706   2.838   6.980   4.861  0.4138  0.3570 -0.3772
   21DOPE  H18X 2707   2.764   6.988   4.778 -0.9059 -2.0727  0.4496
   21DOPE  H18Y 2708   2.946   6.963   4.844  0.9190  1.6850  1.2521
   21DOPE  H18Z 2709   2.797   6.900   4.925 -0.4976 -0.7024 -2.1849
   22DOPE     N 2710   7.340   5.136   6.804  0.2422 -0.0983 -0.2110
   22DOPE   HN1 2711   7.291   5.226   6.790  1.5148  0.6816  0.2234
   22DOPE   HN2 2712   7.382   5.104   6.714 -1.5950  1.4455 -1.6986
   22DOPE   HN3 2713   7.274   5.061   6.834 -1.5944  1.1730 -0.8979
   22DOPE   C12 2714   7.453   5.152   6.904 -0.0130  0.4737  0.0281
   22DOPE  H12A 2715   7.403   5.189   6.996 -0.8771 -1.0288  0.2031
   22DOPE  H12B 2716   7.523   5.230   6.867  0.2306 -0.8002 -2.3401
   22DOPE   C11 2717   7.518   5.015   6.939  0.4683 -1.1017 -1.0105
   22DOPE  H11A 2718   7.440   4.942   6.971  0.2350  0.5540  2.7873
   22DOPE  H11B 2719   7.587   5.038   7.023 -0.7273 -1.2572  0.0416
   22DOPE     P 2720   7.723   5.016   6.773 -0.4844 -0.2177  0.0740
   22DOPE   O13 2721   7.813   4.898   6.759 -0.0403 -0.9305  0.0817
   22DOPE   O14 2722   7.761   5.123   6.860 -0.4321  0.4397 -0.0074
   22DOPE   O11 2723   7.694   5.069   6.624 -0.0097  0.2192 -0.2869
   22DOPE   O12 2724   7.581   4.969   6.820  0.2252  0.2833 -0.2687
   22DOPE    C1 2725   7.797   5.068   6.522  0.1524  0.3050 -0.4615
   22DOPE    HA 2726   7.858   4.975   6.514  1.5870  1.3178 -1.8243
   22DOPE    HB 2727   7.872   5.143   6.555 -0.8522  1.4296 -0.6878
   22DOPE    C2 2728   7.733   5.102   6.388 -0.4524 -0.3281  0.4502
   22DOPE    HS 2729   7.806   5.144   6.316 -1.3201  0.7386  0.1510
   22DOPE   O21 2730   7.623   5.198   6.411  0.0022  0.6710  0.0597
   22DOPE   C21 2731   7.668   5.312   6.462 -0.3989 -0.6192 -0.0371
   22DOPE   O22 2732   7.788   5.348   6.453 -0.3149  0.1003  0.0061
   22DOPE   C22 2733   7.566   5.392   6.540  0.3474  0.0265 -0.0525
   22DOPE   H2R 2734   7.604   5.495   6.562  1.5522 -0.5356  0.6124
   22DOPE   H2S 2735   7.561   5.351   6.643  1.3363  3.9097  1.7623
   22DOPE    C3 2736   7.670   4.980   6.315 -1.0907 -0.2759 -0.0574
   22DOPE    HX 2737   7.606   4.914   6.377  0.7642 -3.3910 -1.2343
   22DOPE    HY 2738   7.753   4.907   6.301 -1.6664 -0.7733 -0.9442
   22DOPE   O31 2739   7.618   5.014   6.184  0.2866  0.5970 -0.1443
   22DOPE   C31 2740   7.490   5.050   6.174 -0.4380 -0.3074  0.4399
   22DOPE   O32 2741   7.398   5.027   6.251 -0.5091  0.0586  0.6636
   22DOPE   C32 2742   7.470   5.123   6.036 -0.4554  0.0373 -0.3415
   22DOPE   H2X 2743   7.419   5.221   6.044  1.8224  1.2430  0.2140
   22DOPE   H2Y 2744   7.565   5.139   5.980 -1.3069  0.6968 -1.6326
   22DOPE   C23 2745   7.425   5.402   6.477  0.1086 -0.9321 -0.0163
   22DOPE   H3R 2746   7.358   5.450   6.551  0.4104 -2.2915  1.1773
   22DOPE   H3S 2747   7.380   5.304   6.451 -1.5570 -0.2433  0.1444
   22DOPE   C24 2748   7.416   5.494   6.352  0.4323  0.3756  0.5665
   22DOPE   H4R 2749   7.447   5.598   6.374 -1.0496  0.6786  1.3622
   22DOPE   H4S 2750   7.309   5.513   6.330  0.3638 -0.6144 -0.0386
   22DOPE   C25 2751   7.479   5.445   6.225 -0.0085 -0.0060 -0.4073
   22DOPE   H5R 2752   7.445   5.341   6.210  1.7355 -1.3794  3.5994
   22DOPE   H5S 2753   7.588   5.441   6.249 -0.5406 -1.6281  2.0605
   22DOPE   C26 2754   7.437   5.534   6.107  0.0480  0.2669  0.4834
   22DOPE   H6R 2755   7.475   5.635   6.137  1.8123 -0.1166 -0.3029
   22DOPE   H6S 2756   7.327   5.533   6.091  0.2239  1.5607 -1.0326
   22DOPE   C27 2757   7.497   5.492   5.965 -0.7084 -0.6916  0.1842
   22DOPE   H7R 2758   7.482   5.383   5.951  0.7429 -1.1299  1.7558
   22DOPE   H7S 2759   7.606   5.513   5.964  0.0903 -4.2083 -0.0611
   22DOPE   C28 2760   7.434   5.570   5.852 -0.1231  0.5901  0.3667
   22DOPE   H8R 2761   7.484   5.668   5.836 -0.4430  0.7151  0.1410
   22DOPE   H8S 2762   7.335   5.610   5.881  0.7179  2.9543  0.1539
   22DOPE   C29 2763   7.422   5.485   5.725  0.3046  0.0682  0.6906
   22DOPE   H9R 2764   7.518   5.448   5.686  0.6538  0.9186  0.7105
   22DOPE  C210 2765   7.309   5.473   5.646  0.0687 -0.5765 -0.2786
   22DOPE  H10R 2766   7.308   5.428   5.546 -1.4823  0.3888 -0.7348
   22DOPE  C211 2767   7.175   5.524   5.694 -0.1549 -0.1149 -0.2810
   22DOPE  H11R 2768   7.177   5.630   5.727 -0.4469  0.8279 -3.0510
   22DOPE  H11S 2769   7.141   5.462   5.781  2.1402 -1.5111 -0.2928
   22DOPE  C212 2770   7.075   5.521   5.575 -0.4798 -0.2194  0.1809
   22DOPE  H12R 2771   7.124   5.580   5.494 -2.1277  0.8447 -0.0938
   22DOPE  H12S 2772   6.981   5.575   5.598  0.1153  0.5566  0.8134
   22DOPE  C213 2773   7.032   5.373   5.538 -0.2149 -0.5020 -0.8498
   22DOPE  H13R 2774   6.955   5.343   5.613 -0.0068 -0.7871 -0.7450
   22DOPE  H13S 2775   7.108   5.292   5.541 -1.8326 -2.1972 -2.7667
   22DOPE  C214 2776   6.984   5.360   5.397  0.5637 -0.4488  0.1673
   22DOPE  H14R 2777   7.067   5.357   5.323  1.6173 -1.7978  1.3500
   22DOPE  H14S 2778   6.908   5.440   5.385  1.0371  0.7923  3.9920
   22DOPE  C215 2779   6.903   5.229   5.373  0.0945 -0.1380  0.3489
   22DOPE  H15R 2780   6.818   5.234   5.444  0.2665 -1.9988  0.7392
   22DOPE  H15S 2781   6.963   5.139   5.396  0.0742 -0.3328 -0.3376
   22DOPE  C216 2782   6.835   5.207   5.234  0.0809 -0.4600  0.6671
   22DOPE  H16R 2783   6.804   5.100   5.227  1.2972 -0.7680 -0.2680
   22DOPE  H16S 2784   6.916   5.212   5.159 -0.2223 -0.5406  0.3328
   22DOPE  C217 2785   6.728   5.317   5.210 -0.2374  0.5310  0.8973
   22DOPE  H17R 2786   6.699   5.318   5.103 -0.0646  0.9142  0.8543
   22DOPE  H17S 2787   6.780   5.414   5.225  1.8220 -0.7995  3.2027
   22DOPE  C218 2788   6.608   5.300   5.311  0.6617  0.1886  0.1374
   22DOPE  H18R 2789   6.511   5.334   5.269  0.3169  0.9554  1.5215
   22DOPE  H18S 2790   6.612   5.369   5.398 -2.0578  0.6648 -0.0258
   22DOPE  H18T 2791   6.593   5.194   5.337 -2.1891  0.8756  1.7272
   22DOPE   C33 2792   7.389   5.027   5.934 -0.4928  0.1809 -0.7431
   22DOPE   H3X 2793   7.294   5.008   5.988  1.2980 -0.9593  2.3075
   22DOPE   H3Y 2794   7.442   4.930   5.921 -1.7203 -0.8431  1.4117
   22DOPE   C34 2795   7.367   5.089   5.796 -0.3362  0.0419  0.3416
   22DOPE   H4X 2796   7.305   5.180   5.794  2.7714  2.3121  0.0522
   22DOPE   H4Y 2797   7.462   5.133   5.758  0.4337 -2.4791 -0.9196
   22DOPE   C35 2798   7.338   4.983   5.686 -0.3008 -0.3952  0.4960
   22DOPE   H5X 2799   7.245   4.932   5.720  0.2096 -0.8407  1.2489
   22DOPE   H5Y 2800   7.414   4.903   5.676 -1.3767 -1.6741  1.9751
   22DOPE   C36 2801   7.306   5.037   5.544  0.0902 -0.2887  0.6270
   22DOPE   H6X 2802   7.251   5.133   5.546  0.3615 -0.1351  2.6786
   22DOPE   H6Y 2803   7.236   4.980   5.479  1.4134 -2.4617  1.0197
   22DOPE   C37 2804   7.432   5.059   5.463  0.5650 -0.7989 -0.7796
   22DOPE   H7X 2805   7.493   5.101   5.545 -2.2157  0.7371  0.6426
   22DOPE   H7Y 2806   7.483   4.961   5.448  0.9196 -0.8633  0.7054
   22DOPE   C38 2807   7.414   5.144   5.341  0.1178 -0.5102 -0.1879
   22DOPE   H8X 2808   7.368   5.242   5.368 -1.4732 -0.6151 -2.2352
   22DOPE   H8Y 2809   7.329   5.108   5.279  0.8285 -2.9324  0.1524
   22DOPE   C39 2810   7.540   5.185   5.267 -0.6355 -0.5828 -0.1097
   22DOPE   H9X 2811   7.589   5.105   5.209  1.0484  1.3349 -1.5123
   22DOPE  C310 2812   7.610   5.299   5.255  0.2712 -0.2753 -0.1133
   22DOPE  H10X 2813   7.693   5.301   5.183  0.5362  1.7873  0.2060
   22DOPE  C311 2814   7.581   5.427   5.323  0.3911  0.3393 -0.1853
   22DOPE  H11X 2815   7.497   5.481   5.273 -0.3702 -0.8113 -0.1873
   22DOPE  H11Y 2816   7.541   5.419   5.426  0.0251  2.0501 -0.1683
   22DOPE  C312 2817   7.704   5.523   5.310 -0.2896  0.3094 -0.3994
   22DOPE  H12X 2818   7.740   5.548   5.208  0.7465 -1.5289 -0.5290
   22DOPE  H12Y 2819   7.789   5.471   5.359 -0.5743  0.2311  0.0194
   22DOPE  C313 2820   7.684   5.653   5.379  0.4339  0.5843  0.1428
   22DOPE  H13X 2821   7.602   5.711   5.331 -0.3374 -2.4939 -2.6313
   22DOPE  H13Y 2822   7.657   5.635   5.485 -1.8839  0.7954 -0.3533
   22DOPE  C314 2823   7.804   5.742   5.382 -0.6595  0.2638  0.0485
   22DOPE  H14X 2824   7.824   5.761   5.274 -1.8870  0.5117 -0.1488
   22DOPE  H14Y 2825   7.892   5.687   5.422 -1.6980 -0.5316  1.3430
   22DOPE  C315 2826   7.782   5.882   5.442  0.1584  0.1416 -0.1471
   22DOPE  H15X 2827   7.706   5.940   5.385 -0.2362 -1.5733 -1.4340
   22DOPE  H15Y 2828   7.881   5.932   5.443  0.2063  0.1678 -2.0524
   22DOPE  C316 2829   7.717   5.881   5.583 -0.0418 -0.0681  0.2450
   22DOPE  H16X 2830   7.624   5.821   5.575 -0.3183  0.4014 -0.1320
   22DOPE  H16Y 2831   7.687   5.987   5.594  0.1891  0.0088  0.1415
   22DOPE  C317 2832   7.796   5.822   5.695 -1.0307  0.1325 -0.0106
   22DOPE  H17X 2833   7.817   5.713   5.684  1.2260  0.5973 -1.0408
   22DOPE  H17Y 2834   7.893   5.875   5.683 -0.6191 -0.9163 -1.7552
   22DOPE  C318 2835   7.735   5.844   5.834 -0.1101  0.1383  0.4601
   22DOPE  H18X 2836   7.713   5.950   5.855  0.8866  0.5317 -0.3711
   22DOPE  H18Y 2837   7.641   5.786   5.848 -0.0124 -0.0607  0.2963
   22DOPE  H18Z 2838   7.809   5.813   5.911  0.6320 -0.7495 -0.5744
   23DOPE     N 2839   5.677   7.307   7.036  0.1233 -0.1017  0.2971
   23DOPE   HN1 2840   5.675   7.203   7.034  0.1347 -0.1741  2.0988
   23DOPE   HN2 2841   5.628   7.343   7.121  2.1786  3.3648  0.2065
   23DOPE   HN3 2842   5.644   7.361   6.953  1.6048 -0.3564 -0.4852
   23DOPE   C12 2843   5.816   7.354   7.045 -0.1970 -0.0143 -0.3244
   23DOPE  H12A 2844   5.823   7.433   6.967  0.7368  0.2405 -0.0015
   23DOPE  H12B 2845   5.886   7.281   6.999 -0.8197  0.3311 -1.8978
   23DOPE   C11 2846   5.866   7.417   7.177  0.0092  0.1298 -0.4555
   23DOPE  H11A 2847   5.974   7.440   7.166  0.0543 -0.2402 -0.8376
   23DOPE  H11B 2848   5.854   7.343   7.260  1.3360  0.7001  0.2757
   23DOPE     P 2849   5.839   7.658   7.282 -0.4315  0.1615  0.0110
   23DOPE   O13 2850   5.980   7.687   7.255 -0.1787 -0.1579  0.7631
   23DOPE   O14 2851   5.808   7.649   7.425 -0.4179  0.3181 -0.4197
   23DOPE   O11 2852   5.741   7.764   7.216  0.5651 -0.2529  0.2436
   23DOPE   O12 2853   5.788   7.526   7.200  0.3038  0.1282  0.6337
   23DOPE    C1 2854   5.623   7.742   7.146 -0.6546 -0.1667  0.0651
   23DOPE    HA 2855   5.564   7.836   7.140 -0.9758 -0.3688  0.0496
   23DOPE    HB 2856   5.561   7.657   7.179 -3.2884  1.7872  0.4770
   23DOPE    C2 2857   5.659   7.717   6.998 -0.1573 -0.2804 -0.0045
   23DOPE    HS 2858   5.701   7.615   6.986 -0.9702 -0.5703 -0.4717
   23DOPE   O21 2859   5.751   7.820   6.947 -0.7755 -1.0136 -0.0586
   23DOPE   C21 2860   5.833   7.773   6.863  0.7781  0.4830 -0.2449
   23DOPE   O22 2861   5.855   7.658   6.832  0.1920 -0.2271  0.4178
   23DOPE   C22 2862   5.905   7.884   6.797 -0.4000 -0.0518  0.3441
   23DOPE   H2R 2863   5.974   7.938   6.865 -1.1261  1.5755 -0.1614
   23DOPE   H2S 2864   5.819   7.945   6.762 -1.1026 -1.3956 -0.3580
   23DOPE    C3 2865   5.522   7.707   6.922 -0.1154 -0.7572  0.1556
   23DOPE    HX 2866   5.477   7.808   6.932  1.3379 -0.1098  0.3127
   23DOPE    HY 2867   5.458   7.634   6.977 -0.2872 -2.2375 -1.8777
   23DOPE   O31 2868   5.539   7.677   6.777 -0.2777  0.6561  0.0744
   23DOPE   C31 2869   5.575   7.555   6.736  0.4658 -0.1575  1.0213
   23DOPE   O32 2870   5.596   7.466   6.816  0.0803  0.5061  0.5091
   23DOPE   C32 2871   5.599   7.554   6.585  0.4632  0.0026 -0.0379
   23DOPE   H2X 2872   5.496   7.554   6.542  0.5546 -1.9803 -0.3559
   23DOPE   H2Y 2873   5.655   7.647   6.563  0.0330  0.2863  0.0444
   23DOPE   C23 2874   5.981   7.830   6.677  0.4541  0.2991 -0.0529
   23DOPE   H3R 2875   5.914   7.775   6.606 -0.5582 -0.4329  1.4279
   23DOPE   H3S 2876   6.054   7.754   6.711 -0.6035 -0.1547  1.2648
   23DOPE   C24 2877   6.052   7.946   6.591  0.9616 -0.3188 -0.2186
   23DOPE   H4R 2878   6.124   8.003   6.653  0.0436  1.7155 -0.9416
   23DOPE   H4S 2879   5.976   8.022   6.562  0.5385 -0.0783  1.3907
   23DOPE   C25 2880   6.128   7.893   6.461  0.3991  0.2484  0.7595
   23DOPE   H5R 2881   6.213   7.829   6.493  0.7741  1.1638  1.6646
   23DOPE   H5S 2882   6.182   7.983   6.425 -0.9722  0.9293  0.3416
   23DOPE   C26 2883   6.037   7.826   6.362 -0.2049  0.4590 -0.8333
   23DOPE   H6R 2884   5.945   7.885   6.341 -2.8837 -2.6766  1.0090
   23DOPE   H6S 2885   5.999   7.736   6.415 -2.9774  1.8527 -0.2640
   23DOPE   C27 2886   6.109   7.781   6.237 -0.4245 -0.5216 -0.0314
   23DOPE   H7R 2887   6.193   7.716   6.271 -0.2580 -0.1778  0.2281
   23DOPE   H7S 2888   6.143   7.871   6.181 -1.7985 -1.5805 -2.7506
   23DOPE   C28 2889   6.010   7.718   6.133  0.3562  0.2535  0.3179
   23DOPE   H8R 2890   5.924   7.785   6.114 -0.6106 -0.8648  0.6522
   23DOPE   H8S 2891   5.975   7.622   6.178  0.6439  0.2550  0.5468
   23DOPE   C29 2892   6.064   7.705   5.990  0.5520 -1.0323  0.2247
   23DOPE   H9R 2893   6.106   7.605   5.970 -1.2126 -2.0474  1.2463
   23DOPE  C210 2894   6.039   7.788   5.889 -0.6711  0.2431 -0.3502
   23DOPE  H10R 2895   6.090   7.768   5.794 -1.1853 -2.1971 -0.1651
   23DOPE  C211 2896   5.963   7.922   5.904 -0.0522  0.1964 -0.2162
   23DOPE  H11R 2897   5.987   7.967   6.002 -0.4326 -0.3389  0.1323
   23DOPE  H11S 2898   5.855   7.896   5.915 -0.8166  3.1480  0.2393
   23DOPE  C212 2899   5.968   8.021   5.788  1.5084 -0.2669 -0.3372
   23DOPE  H12R 2900   5.905   8.109   5.812 -1.2785 -1.7049 -1.8596
   23DOPE  H12S 2901   5.923   7.979   5.695  0.7258 -0.3783  0.0778
   23DOPE  C213 2902   6.112   8.072   5.767  0.2297 -0.0333 -0.1936
   23DOPE  H13R 2903   6.170   7.982   5.738  1.4779  1.0129 -1.1117
   23DOPE  H13S 2904   6.137   8.103   5.871 -0.3282  0.7032 -0.2723
   23DOPE  C214 2905   6.121   8.200   5.685 -0.1580  0.2095  0.1386
   23DOPE  H14R 2906   6.060   8.278   5.735 -1.5256  0.0401 -1.1853
   23DOPE  H14S 2907   6.075   8.172   5.587 -1.5143  0.4813  0.6773
   23DOPE  C215 2908   6.259   8.261   5.662 -0.1673 -0.0830 -0.0679
   23DOPE  H15R 2909   6.329   8.177   5.645  2.5100  1.5526  2.0951
   23DOPE  H15S 2910   6.306   8.314   5.748  1.9750  1.1423 -1.9099
   23DOPE  C216 2911   6.268   8.356   5.545 -0.7701  0.2942 -0.3398
   23DOPE  H16R 2912   6.201   8.441   5.570  1.2856  2.0974 -0.6028
   23DOPE  H16S 2913   6.232   8.306   5.453 -2.5805 -0.3541  0.6772
   23DOPE  C217 2914   6.410   8.404   5.509 -0.3911 -0.3354  0.6320
   23DOPE  H17R 2915   6.474   8.326   5.463 -1.8141 -1.3086  0.2043
   23DOPE  H17S 2916   6.466   8.451   5.592  1.7569  1.1947 -1.5426
   23DOPE  C218 2917   6.398   8.504   5.390 -0.4182 -0.4440 -0.2153
   23DOPE  H18R 2918   6.498   8.543   5.363 -1.4244  1.9065 -0.7915
   23DOPE  H18S 2919   6.334   8.589   5.421  0.0998 -0.9109  2.3935
   23DOPE  H18T 2920   6.356   8.457   5.298 -0.3353  0.5924 -0.7909
   23DOPE   C33 2921   5.667   7.425   6.535  0.2311  0.2153 -0.2844
   23DOPE   H3X 2922   5.603   7.341   6.570  2.3006 -1.4989 -0.4550
   23DOPE   H3Y 2923   5.763   7.413   6.589 -0.1632  1.5421  0.7750
   23DOPE   C34 2924   5.683   7.441   6.385  0.1165 -0.9346  0.2427
   23DOPE   H4X 2925   5.585   7.433   6.333  0.8461 -0.5174 -1.2502
   23DOPE   H4Y 2926   5.732   7.541   6.374  0.1350 -0.9666  0.0171
   23DOPE   C35 2927   5.773   7.331   6.320  0.3057 -0.1852  0.1858
   23DOPE   H5X 2928   5.746   7.233   6.366  0.5096 -0.0052  0.6900
   23DOPE   H5Y 2929   5.877   7.359   6.346 -0.1600  1.3229  0.5212
   23DOPE   C36 2930   5.755   7.315   6.171  0.8182  0.2147  1.2832
   23DOPE   H6X 2931   5.831   7.251   6.121 -1.7352 -0.0994 -2.6783
   23DOPE   H6Y 2932   5.758   7.415   6.121 -2.0304  0.5900  1.7164
   23DOPE   C37 2933   5.614   7.245   6.132 -0.1263 -0.0321 -0.9467
   23DOPE   H7X 2934   5.597   7.149   6.186 -3.6478  1.1883  0.3982
   23DOPE   H7Y 2935   5.535   7.315   6.167  1.1834  0.1665  1.8484
   23DOPE   C38 2936   5.607   7.223   5.977 -0.0631 -0.3081  0.1737
   23DOPE   H8X 2937   5.687   7.150   5.955 -0.1879 -0.3905 -0.0103
   23DOPE   H8Y 2938   5.637   7.318   5.928  0.4895 -0.0701  0.9566
   23DOPE   C39 2939   5.473   7.178   5.920  0.4979 -0.1305 -0.3486
   23DOPE   H9X 2940   5.416   7.105   5.981  1.5262 -1.0728 -0.4833
   23DOPE  C310 2941   5.432   7.214   5.800  0.2725 -0.9548 -0.1066
   23DOPE  H10X 2942   5.342   7.169   5.756 -0.9325  0.2046  1.1096
   23DOPE  C311 2943   5.517   7.302   5.707  0.1494 -0.0182 -0.1459
   23DOPE  H11X 2944   5.502   7.406   5.743  1.1729  0.4611 -1.0362
   23DOPE  H11Y 2945   5.625   7.279   5.706  0.2506 -0.2078 -4.5377
   23DOPE  C312 2946   5.464   7.296   5.562  0.0021 -0.2587  0.1421
   23DOPE  H12X 2947   5.502   7.388   5.512 -0.5950  0.2645  0.6257
   23DOPE  H12Y 2948   5.356   7.319   5.549 -0.0161  0.6406  1.5798
   23DOPE  C313 2949   5.505   7.187   5.457 -0.0825 -0.1265 -0.0605
   23DOPE  H13X 2950   5.518   7.088   5.507 -1.3209 -0.3322 -0.1276
   23DOPE  H13Y 2951   5.426   7.181   5.379 -0.5356  2.7944  0.0642
   23DOPE  C314 2952   5.639   7.222   5.377 -0.3259 -0.2712 -0.6160
   23DOPE  H14X 2953   5.718   7.234   5.455 -0.2770 -1.6446 -0.4329
   23DOPE  H14Y 2954   5.634   7.321   5.327  3.2575  0.5302  0.3156
   23DOPE  C315 2955   5.673   7.120   5.265 -0.0734 -0.0311 -0.4143
   23DOPE  H15X 2956   5.668   7.015   5.301 -1.0643  0.4043  0.7745
   23DOPE  H15Y 2957   5.779   7.139   5.238  0.1021  0.1810  0.4215
   23DOPE  C316 2958   5.582   7.134   5.147  0.1188 -0.1830  0.1939
   23DOPE  H16X 2959   5.476   7.132   5.181 -0.8175  0.6308 -2.4250
   23DOPE  H16Y 2960   5.602   7.054   5.073  0.8926  0.8609 -0.7700
   23DOPE  C317 2961   5.589   7.275   5.075 -0.6914  0.3280  0.3895
   23DOPE  H17X 2962   5.591   7.369   5.133  0.5658  0.7986 -0.3673
   23DOPE  H17Y 2963   5.690   7.280   5.029 -0.0904 -0.4157  1.5802
   23DOPE  C318 2964   5.472   7.299   4.976  0.3003 -0.4775 -0.1765
   23DOPE  H18X 2965   5.476   7.389   4.911  2.1129 -2.7533 -3.4869
   23DOPE  H18Y 2966   5.453   7.210   4.913 -0.1281 -1.1494  0.8736
   23DOPE  H18Z 2967   5.379   7.303   5.036 -1.3587  0.6423 -2.6631
   24DOPE     N 2968   0.214   7.142   6.520  0.5568 -0.3030  0.0301
   24DOPE   HN1 2969   0.305   7.096   6.539  1.0843  0.8179  0.2735
   24DOPE   HN2 2970   0.136   7.077   6.545 -0.6653  0.3243 -1.9006
   24DOPE   HN3 2971   0.206   7.157   6.418  1.3248 -0.1999 -0.0190
   24DOPE   C12 2972   0.217   7.272   6.597  0.1743 -0.4445 -0.3904
   24DOPE  H12A 2973   0.295   7.338   6.553  1.2396 -0.9192  0.7378
   24DOPE  H12B 2974   0.234   7.247   6.704 -1.4064 -2.6155 -0.5748
   24DOPE   C11 2975   0.075   7.336   6.593 -0.4542 -0.3240 -0.4292
   24DOPE  H11A 2976   0.001   7.286   6.659 -0.2296  0.5235  0.4851
   24DOPE  H11B 2977   0.036   7.334   6.489 -1.7504  0.9346  0.0035
   24DOPE     P 2978   0.013   7.555   6.728 -0.0125  0.2072 -0.1316
   24DOPE   O13 2979   0.070   7.684   6.758 -0.5895 -0.5002 -0.9120
   24DOPE   O14 2980  -0.010   7.467   6.844  0.0919  0.4558 -0.1104
   24DOPE   O11 2981  -0.128   7.569   6.659  0.4475  0.0413 -0.5619
   24DOPE   O12 2982   0.093   7.476   6.619  0.3036 -0.0081  0.1521
   24DOPE    C1 2983  -0.140   7.599   6.515  0.5296 -0.4834 -0.7277
   24DOPE    HA 2984  -0.074   7.536   6.452  1.0901 -0.7839  0.1276
   24DOPE    HB 2985  -0.117   7.707   6.501 -0.7131 -0.2257 -0.8646
   24DOPE    C2 2986  -0.276   7.558   6.459  0.0694 -0.3490  0.0880
   24DOPE    HS 2987  -0.349   7.599   6.531  0.7519 -0.5653  0.9146
   24DOPE   O21 2988  -0.276   7.417   6.450 -0.1449  0.0202  0.1729
   24DOPE   C21 2989  -0.393   7.353   6.460  0.3001 -0.3049  0.1593
   24DOPE   O22 2990  -0.492   7.413   6.506 -0.5030  0.1637  0.5616
   24DOPE   C22 2991  -0.365   7.205   6.443  0.3990 -0.0238 -0.8108
   24DOPE   H2R 2992  -0.292   7.170   6.519 -1.6310 -1.1839  0.7197
   24DOPE   H2S 2993  -0.308   7.190   6.349  2.2452 -3.1020  0.6200
   24DOPE    C3 2994  -0.297   7.613   6.309 -0.3708  0.7479 -0.4833
   24DOPE    HX 2995  -0.219   7.563   6.248 -1.0620  1.3303 -1.8767
   24DOPE    HY 2996  -0.280   7.723   6.307  0.6488  0.5923 -1.1569
   24DOPE   O31 2997  -0.417   7.568   6.249 -0.1157 -0.3796 -0.2868
   24DOPE   C31 2998  -0.519   7.632   6.297 -0.4493  0.4021 -0.7522
   24DOPE   O32 2999  -0.516   7.728   6.375 -0.3170  0.8500 -0.2645
   24DOPE   C32 3000  -0.641   7.588   6.228  0.7179 -0.4302 -0.0038
   24DOPE   H2X 3001  -0.623   7.493   6.173 -0.8213  1.0565 -3.3363
   24DOPE   H2Y 3002  -0.721   7.562   6.301  1.0622 -0.6113  0.3110
   24DOPE   C23 3003  -0.490   7.111   6.464  1.2300 -0.7605 -0.2620
   24DOPE   H3R 3004  -0.564   7.125   6.383 -0.2231 -1.3846  0.9022
   24DOPE   H3S 3005  -0.546   7.135   6.557 -0.5040 -0.1618 -1.4182
   24DOPE   C24 3006  -0.465   6.962   6.462 -0.2224 -0.3283  0.2582
   24DOPE   H4R 3007  -0.401   6.939   6.550  0.3935 -2.1958 -0.6370
   24DOPE   H4S 3008  -0.423   6.939   6.362 -0.8817  0.7419 -0.2860
   24DOPE   C25 3009  -0.595   6.888   6.475  0.2054  0.2407 -0.0131
   24DOPE   H5R 3010  -0.653   6.939   6.395 -0.1340  0.0929  0.1342
   24DOPE   H5S 3011  -0.642   6.897   6.575 -2.5398 -1.3941 -1.0299
   24DOPE   C26 3012  -0.589   6.740   6.445  0.0016 -0.2028 -0.3798
   24DOPE   H6R 3013  -0.689   6.697   6.469 -1.1722  2.9988  1.0977
   24DOPE   H6S 3014  -0.509   6.698   6.510  1.4444  0.1408 -1.8620
   24DOPE   C27 3015  -0.560   6.710   6.300  1.1173  0.5385 -0.2149
   24DOPE   H7R 3016  -0.455   6.743   6.285  0.9522  1.1126 -0.1454
   24DOPE   H7S 3017  -0.630   6.772   6.240  2.8194  0.1293 -2.7561
   24DOPE   C28 3018  -0.587   6.566   6.265  0.5112 -0.6939 -0.1690
   24DOPE   H8R 3019  -0.601   6.563   6.155  1.3077  1.6003 -0.3967
   24DOPE   H8S 3020  -0.689   6.543   6.302 -0.3792 -0.5007 -2.3515
   24DOPE   C29 3021  -0.478   6.481   6.324 -0.5544  0.9102  0.5169
   24DOPE   H9R 3022  -0.477   6.458   6.432  0.9357 -0.7068  0.1972
   24DOPE  C210 3023  -0.382   6.430   6.251  0.3186  0.3402 -0.5894
   24DOPE  H10R 3024  -0.309   6.368   6.305 -1.3508  0.5263  2.0489
   24DOPE  C211 3025  -0.360   6.441   6.105 -0.2038  0.2188  0.3051
   24DOPE  H11R 3026  -0.258   6.401   6.087 -0.3000  0.7245 -1.5909
   24DOPE  H11S 3027  -0.344   6.548   6.079  1.7151 -0.1833 -0.3315
   24DOPE  C212 3028  -0.457   6.385   5.996  0.7839  0.2215  0.2492
   24DOPE  H12R 3029  -0.563   6.416   6.007 -0.6135 -3.4338 -1.1269
   24DOPE  H12S 3030  -0.454   6.275   6.011  1.8611 -0.0147 -1.4988
   24DOPE  C213 3031  -0.419   6.408   5.843  0.3288 -0.6561  0.3368
   24DOPE  H13R 3032  -0.314   6.378   5.824  0.8679 -0.1270  2.1957
   24DOPE  H13S 3033  -0.416   6.515   5.812 -3.7102 -1.3822 -3.4887
   24DOPE  C214 3034  -0.515   6.338   5.744  0.1366  0.1291 -0.3353
   24DOPE  H14R 3035  -0.609   6.397   5.734 -1.0087 -1.4821  0.5047
   24DOPE  H14S 3036  -0.553   6.240   5.780 -0.2397 -0.2731 -1.7579
   24DOPE  C215 3037  -0.477   6.335   5.597  0.5036  1.1673 -0.0282
   24DOPE  H15R 3038  -0.379   6.282   5.591 -0.3043 -0.5377  1.0329
   24DOPE  H15S 3039  -0.469   6.436   5.550  0.9047  0.2372 -2.0816
   24DOPE  C216 3040  -0.579   6.256   5.509 -0.2098 -0.3212  0.6955
   24DOPE  H16R 3041  -0.676   6.309   5.505  0.1191  0.2198 -1.3930
   24DOPE  H16S 3042  -0.594   6.158   5.559  0.4995  0.0854  1.7600
   24DOPE  C217 3043  -0.544   6.227   5.359 -0.1745 -0.0756 -0.5541
   24DOPE  H17R 3044  -0.439   6.191   5.366  0.6141  2.1788  0.2735
   24DOPE  H17S 3045  -0.534   6.321   5.299  1.4999 -1.2263 -2.1935
   24DOPE  C218 3046  -0.629   6.118   5.291 -0.8420 -1.0017 -0.6818
   24DOPE  H18R 3047  -0.604   6.111   5.183 -1.9935  0.9024 -1.1212
   24DOPE  H18S 3048  -0.736   6.148   5.294 -0.4122  0.7281 -1.3303
   24DOPE  H18T 3049  -0.614   6.017   5.335  2.8004 -0.0862  0.5642
   24DOPE   C33 3050  -0.694   7.696   6.136  0.0496 -0.0903  0.5964
   24DOPE   H3X 3051  -0.679   7.794   6.188  0.0585 -0.0047  0.4330
   24DOPE   H3Y 3052  -0.804   7.693   6.117  0.3547 -2.1064 -1.1004
   24DOPE   C34 3053  -0.616   7.706   6.005 -0.8246 -0.1557  0.1346
   24DOPE   H4X 3054  -0.518   7.752   6.032 -1.5202  1.0496  0.6806
   24DOPE   H4Y 3055  -0.589   7.605   5.968 -0.2054  0.6263 -1.6880
   24DOPE   C35 3056  -0.696   7.786   5.903 -1.2354 -1.1605  1.1162
   24DOPE   H5X 3057  -0.627   7.828   5.827 -1.2767  1.1463  2.2616
   24DOPE   H5Y 3058  -0.741   7.873   5.957  1.0836  1.2267 -0.5713
   24DOPE   C36 3059  -0.801   7.700   5.832 -0.1947 -0.4745 -0.1832
   24DOPE   H6X 3060  -0.854   7.633   5.903 -1.6046  0.4619 -0.3387
   24DOPE   H6Y 3061  -0.745   7.639   5.757  1.4491  1.3890 -0.5613
   24DOPE   C37 3062  -0.914   7.784   5.761  0.4160  0.1757 -0.0295
   24DOPE   H7X 3063  -0.999   7.722   5.725  0.6045 -1.2115  1.7761
   24DOPE   H7Y 3064  -0.945   7.850   5.845 -0.0292 -0.8772  0.6555
   24DOPE   C38 3065  -0.855   7.860   5.637  0.4836  0.0490 -0.1357
   24DOPE   H8X 3066  -0.831   7.791   5.553 -1.2834 -0.1178 -0.5466
   24DOPE   H8Y 3067  -0.763   7.910   5.673 -0.0981  0.1482  1.2925
   24DOPE   C39 3068  -0.965   7.958   5.585  0.1509  0.5918 -0.3983
   24DOPE   H9X 3069  -1.060   7.909   5.559 -0.1242 -0.1872  1.8669
   24DOPE  C310 3070  -0.938   8.088   5.565  0.9862  0.3778 -0.6722
   24DOPE  H10X 3071  -1.023   8.156   5.545 -0.1089 -0.9934 -0.8523
   24DOPE  C311 3072  -0.815   8.164   5.595  0.0866  0.0818 -0.3237
   24DOPE  H11X 3073  -0.846   8.267   5.623  0.0092 -0.1098  0.3098
   24DOPE  H11Y 3074  -0.766   8.131   5.689 -0.0997  1.0202  0.1163
   24DOPE  C312 3075  -0.716   8.179   5.469 -0.1021 -0.4088 -0.0699
   24DOPE  H12X 3076  -0.769   8.222   5.381  0.5007  0.7529  0.1091
   24DOPE  H12Y 3077  -0.689   8.076   5.438 -2.1414 -0.3928 -2.1757
   24DOPE  C313 3078  -0.599   8.272   5.498 -0.1633  0.1636  0.5983
   24DOPE  H13X 3079  -0.644   8.363   5.543 -1.9339 -0.4219  0.0842
   24DOPE  H13Y 3080  -0.519   8.241   5.569 -0.6986 -0.6079  0.8779
   24DOPE  C314 3081  -0.515   8.307   5.372  0.2890  0.7308 -0.2753
   24DOPE  H14X 3082  -0.436   8.384   5.386 -0.0153  1.0095 -0.0583
   24DOPE  H14Y 3083  -0.586   8.329   5.290 -1.0690 -2.8443 -0.2260
   24DOPE  C315 3084  -0.448   8.171   5.315  0.3462  0.0253  0.1777
   24DOPE  H15X 3085  -0.526   8.092   5.307 -0.8225  0.9997  1.4176
   24DOPE  H15Y 3086  -0.379   8.145   5.399 -0.0737 -0.1196  0.4827
   24DOPE  C316 3087  -0.352   8.181   5.201  0.2112  0.2751 -0.2878
   24DOPE  H16X 3088  -0.281   8.264   5.218  1.1301 -0.4175 -0.6623
   24DOPE  H16Y 3089  -0.416   8.221   5.119 -0.7446  2.2568  1.3389
   24DOPE  C317 3090  -0.281   8.048   5.168 -0.3222  0.5514  0.7991
   24DOPE  H17X 3091  -0.242   8.012   5.265  0.5510 -0.8396 -0.0422
   24DOPE  H17Y 3092  -0.349   7.976   5.117 -0.0524  1.5432 -1.0299
   24DOPE  C318 3093  -0.173   8.064   5.058 -0.1567  0.0023 -0.3041
   24DOPE  H18X 3094  -0.114   7.970   5.055 -0.4501 -0.1731 -0.5722
   24DOPE  H18Y 3095  -0.220   8.090   4.961 -2.0535  2.9407  1.2237
   24DOPE  H18Z 3096  -0.095   8.139   5.083  1.8327 -2.1603  0.3222
   25DOPE     N 3097   7.509   7.261   6.980  0.3105  0.4807  0.3195
   25DOPE   HN1 3098   7.456   7.332   6.927  0.1916  1.2613  1.4631
   25DOPE   HN2 3099   7.516   7.285   7.081 -0.1384  2.4324 -0.0840
   25DOPE   HN3 3100   7.605   7.268   6.939 -0.3930  0.5047 -1.4003
   25DOPE   C12 3101   7.444   7.123   6.959  0.5209 -0.2161  0.4001
   25DOPE  H12A 3102   7.355   7.121   7.026  0.9457  1.0680  1.0304
   25DOPE  H12B 3103   7.516   7.044   6.988  1.6495  1.6201  3.0030
   25DOPE   C11 3104   7.401   7.097   6.816 -0.2497 -0.2679  0.6040
   25DOPE  H11A 3105   7.320   7.168   6.789  0.6620  1.0595  1.2754
   25DOPE  H11B 3106   7.362   6.993   6.808 -0.8998  0.0016  0.1962
   25DOPE     P 3107   7.623   7.000   6.717  0.1421  0.1966 -0.1431
   25DOPE   O13 3108   7.570   6.871   6.758  0.2282  0.2171  0.1760
   25DOPE   O14 3109   7.747   7.049   6.782  0.1312  0.0372 -0.5963
   25DOPE   O11 3110   7.669   6.999   6.568  0.0933 -0.4346 -0.1833
   25DOPE   O12 3111   7.508   7.111   6.728  0.0902 -0.2037 -0.0590
   25DOPE    C1 3112   7.605   6.951   6.454 -0.4398 -0.8220  0.1596
   25DOPE    HA 3113   7.627   7.028   6.377 -0.9515 -1.2792 -0.4583
   25DOPE    HB 3114   7.496   6.941   6.474 -0.3803 -2.3626 -0.1726
   25DOPE    C2 3115   7.656   6.819   6.405 -0.1666 -0.1164  0.6387
   25DOPE    HS 3116   7.685   6.752   6.488 -0.0299 -0.8874 -0.0235
   25DOPE   O21 3117   7.768   6.839   6.318  0.1360 -0.4836 -0.4414
   25DOPE   C21 3118   7.860   6.742   6.317 -1.1404  0.1167 -0.8621
   25DOPE   O22 3119   7.850   6.646   6.391  0.0924  0.1884 -0.5346
   25DOPE   C22 3120   7.975   6.769   6.216  0.8683  0.2279  0.0521
   25DOPE   H2R 3121   8.019   6.870   6.227  3.8112 -0.6499 -2.2484
   25DOPE   H2S 3122   7.929   6.766   6.115  0.3768 -0.6201  0.2902
   25DOPE    C3 3123   7.540   6.752   6.319 -0.0786 -0.3692 -0.2913
   25DOPE    HX 3124   7.456   6.731   6.389 -0.5487 -1.8844 -1.2615
   25DOPE    HY 3125   7.581   6.650   6.301  2.3014  0.3807  0.5508
   25DOPE   O31 3126   7.490   6.818   6.207 -0.2681  0.1874 -0.0330
   25DOPE   C31 3127   7.553   6.803   6.091  0.5457  0.6516 -0.3205
   25DOPE   O32 3128   7.660   6.753   6.071 -0.3568  0.2225  0.3516
   25DOPE   C32 3129   7.464   6.864   5.984 -0.0314  0.1676  0.4186
   25DOPE   H2X 3130   7.384   6.788   5.966 -0.9294  1.2074 -0.1034
   25DOPE   H2Y 3131   7.413   6.953   6.027  2.0340  2.7862 -2.1546
   25DOPE   C23 3132   8.085   6.668   6.230 -0.3275 -0.4317 -0.0330
   25DOPE   H3R 3133   8.035   6.569   6.231 -2.1148  0.3374 -2.5147
   25DOPE   H3S 3134   8.144   6.681   6.323 -0.1503 -2.8579  0.2523
   25DOPE   C24 3135   8.186   6.678   6.116 -0.2532  0.3469  0.7022
   25DOPE   H4R 3136   8.234   6.776   6.098 -1.6055  1.1803  1.4556
   25DOPE   H4S 3137   8.139   6.659   6.017  0.0477 -0.2653  0.6726
   25DOPE   C25 3138   8.297   6.575   6.136  0.5939 -0.1916  0.0108
   25DOPE   H5R 3139   8.252   6.474   6.127 -0.8412  0.0900  2.7767
   25DOPE   H5S 3140   8.334   6.587   6.241 -1.3130 -2.5487  1.0495
   25DOPE   C26 3141   8.424   6.580   6.051  0.6487  0.4384  0.0803
   25DOPE   H6R 3142   8.508   6.525   6.098  2.7301  2.8389 -0.5871
   25DOPE   H6S 3143   8.469   6.681   6.049  2.5341 -0.3037  1.6664
   25DOPE   C27 3144   8.395   6.535   5.911  0.4577  0.0900 -0.6509
   25DOPE   H7R 3145   8.301   6.581   5.873  0.7459  0.9825 -0.3138
   25DOPE   H7S 3146   8.369   6.427   5.914 -1.8796  0.6134  0.1021
   25DOPE   C28 3147   8.507   6.561   5.804 -0.6946  0.0768  0.3853
   25DOPE   H8R 3148   8.523   6.671   5.804 -2.2106  0.3251 -0.6309
   25DOPE   H8S 3149   8.455   6.535   5.710  2.1410 -2.1136 -0.7293
   25DOPE   C29 3150   8.634   6.480   5.818  0.4926  0.2354 -0.5520
   25DOPE   H9R 3151   8.671   6.469   5.921 -0.7760 -2.7681 -0.3224
   25DOPE  C210 3152   8.685   6.401   5.724  0.1302 -0.3271 -0.4677
   25DOPE  H10R 3153   8.782   6.357   5.752  0.1995  0.1313  0.0346
   25DOPE  C211 3154   8.638   6.366   5.590  0.3928 -0.3263  0.6860
   25DOPE  H11R 3155   8.535   6.399   5.565  0.7805  1.2947  1.0653
   25DOPE  H11S 3156   8.646   6.259   5.563 -0.9682 -0.2109 -0.2455
   25DOPE  C212 3157   8.732   6.440   5.487  0.1024  0.5097  0.0338
   25DOPE  H12R 3158   8.836   6.420   5.520  0.7781  1.6209 -1.3327
   25DOPE  H12S 3159   8.702   6.546   5.500 -1.2952 -0.0748  1.9717
   25DOPE  C213 3160   8.717   6.398   5.336  0.0288  0.3967 -0.8459
   25DOPE  H13R 3161   8.729   6.288   5.324 -2.6276 -0.0266 -0.2603
   25DOPE  H13S 3162   8.801   6.442   5.279 -0.1202  0.8816 -0.7005
   25DOPE  C214 3163   8.582   6.443   5.277 -0.1332  0.9322  0.5835
   25DOPE  H14R 3164   8.571   6.554   5.278  0.3889  1.0315 -1.1828
   25DOPE  H14S 3165   8.497   6.394   5.328 -0.7908 -0.8906 -2.0738
   25DOPE  C215 3166   8.575   6.397   5.129  0.3036 -1.3102 -0.0718
   25DOPE  H15R 3167   8.573   6.286   5.131  1.7682 -1.3649  1.9273
   25DOPE  H15S 3168   8.664   6.442   5.082 -0.8569  0.9231 -0.2768
   25DOPE  C216 3169   8.459   6.466   5.059 -1.2702  0.8777  0.2151
   25DOPE  H16R 3170   8.497   6.474   4.955 -0.0291 -0.5033  0.5266
   25DOPE  H16S 3171   8.424   6.558   5.110 -2.9326  0.4161 -0.0271
   25DOPE  C217 3172   8.336   6.374   5.057 -0.1307  0.0901 -0.0477
   25DOPE  H17R 3173   8.252   6.445   5.039  1.4618  1.6608 -1.6066
   25DOPE  H17S 3174   8.332   6.330   5.159  3.4346  2.7513  1.4341
   25DOPE  C218 3175   8.344   6.277   4.947 -0.3238 -0.1518 -0.8125
   25DOPE  H18R 3176   8.439   6.221   4.965 -0.8246 -0.6563  0.3294
   25DOPE  H18S 3177   8.342   6.329   4.849 -2.3875  0.8686 -0.2699
   25DOPE  H18T 3178   8.258   6.207   4.943 -1.2642  0.7518  1.8573
   25DOPE   C33 3179   7.547   6.904   5.861  0.3188  0.6601  0.8506
   25DOPE   H3X 3180   7.650   6.930   5.892 -0.2947  3.0526  1.1002
   25DOPE   H3Y 3181   7.494   6.988   5.810 -0.5377  0.9806  2.2049
   25DOPE   C34 3182   7.530   6.789   5.758  0.3432  0.6542 -0.2147
   25DOPE   H4X 3183   7.609   6.800   5.680  0.3009  1.0305 -0.2090
   25DOPE   H4Y 3184   7.545   6.690   5.806  0.2748  0.4824 -0.5488
   25DOPE   C35 3185   7.396   6.799   5.684 -0.4403 -0.3238 -0.2171
   25DOPE   H5X 3186   7.401   6.895   5.628 -0.7524 -0.2684 -0.1511
   25DOPE   H5Y 3187   7.312   6.814   5.755  0.8588  1.0733  1.1020
   25DOPE   C36 3188   7.360   6.688   5.583  0.3324 -0.5756  0.0945
   25DOPE   H6X 3189   7.269   6.721   5.527  0.3094  0.6654  0.8232
   25DOPE   H6Y 3190   7.359   6.594   5.642  1.2314  1.3598  3.4412
   25DOPE   C37 3191   7.467   6.657   5.489 -0.8483 -0.7120  0.3482
   25DOPE   H7X 3192   7.514   6.754   5.462  0.0506 -1.3460 -0.4833
   25DOPE   H7Y 3193   7.554   6.605   5.535 -0.1279 -0.5157 -0.7416
   25DOPE   C38 3194   7.419   6.592   5.362  0.5808 -0.2769 -0.3303
   25DOPE   H8X 3195   7.340   6.653   5.312 -1.1782  0.7059  3.2634
   25DOPE   H8Y 3196   7.359   6.507   5.401  0.4212 -0.2314 -0.4727
   25DOPE   C39 3197   7.530   6.544   5.270 -0.0202  0.1387 -0.3096
   25DOPE   H9X 3198   7.574   6.621   5.206  2.0004 -0.9584 -0.3077
   25DOPE  C310 3199   7.585   6.416   5.268  0.5663 -0.2145  0.0514
   25DOPE  H10X 3200   7.648   6.385   5.183 -1.7326 -0.0146 -1.8420
   25DOPE  C311 3201   7.523   6.300   5.346 -0.0426 -0.5103 -0.0774
   25DOPE  H11X 3202   7.471   6.342   5.435 -2.4658 -1.9695 -0.7221
   25DOPE  H11Y 3203   7.451   6.245   5.283  0.9564  1.4545 -3.1694
   25DOPE  C312 3204   7.626   6.208   5.408  0.4272  0.6579 -0.7099
   25DOPE  H12X 3205   7.698   6.180   5.328 -1.0597 -0.1221 -1.8220
   25DOPE  H12Y 3206   7.563   6.119   5.428 -1.1068  1.0778 -3.1758
   25DOPE  C313 3207   7.706   6.254   5.527  0.1083  0.5703 -0.0093
   25DOPE  H13X 3208   7.787   6.183   5.555  0.0783  0.1296 -1.0083
   25DOPE  H13Y 3209   7.750   6.354   5.509  1.3720  0.0210 -0.0599
   25DOPE  C314 3210   7.628   6.275   5.661 -0.2998 -0.2086 -0.3268
   25DOPE  H14X 3211   7.617   6.173   5.704  1.2987 -0.5283 -0.6181
   25DOPE  H14Y 3212   7.527   6.316   5.640 -0.5513 -0.2057  0.8381
   25DOPE  C315 3213   7.704   6.381   5.739  0.4701 -0.2472 -0.6719
   25DOPE  H15X 3214   7.670   6.479   5.701 -2.5042 -1.7324 -2.2091
   25DOPE  H15Y 3215   7.814   6.373   5.721  1.0892  0.4756  2.2512
   25DOPE  C316 3216   7.679   6.388   5.890  0.3909  0.1823 -0.5608
   25DOPE  H16X 3217   7.573   6.382   5.921  1.5306 -1.7858  3.5855
   25DOPE  H16Y 3218   7.726   6.485   5.917  0.0690  0.3860 -0.7291
   25DOPE  C317 3219   7.760   6.285   5.967  0.2792  0.3835  0.3553
   25DOPE  H17X 3220   7.756   6.186   5.917 -1.3540  1.1228 -1.0603
   25DOPE  H17Y 3221   7.865   6.321   5.960  1.1617 -2.0532  0.3135
   25DOPE  C318 3222   7.704   6.252   6.110 -0.4026 -0.3420  1.1824
   25DOPE  H18X 3223   7.595   6.244   6.093  0.0273 -3.4250 -0.9145
   25DOPE  H18Y 3224   7.752   6.160   6.149  1.0561 -0.2366 -0.2716
   25DOPE  H18Z 3225   7.718   6.345   6.170 -0.4800  0.6204 -0.2612
   26DOPE     N 3226   0.840   6.536   7.161  0.4688 -1.1718 -0.5011
   26DOPE   HN1 3227   0.810   6.518   7.259 -0.8876 -0.2451 -0.7175
   26DOPE   HN2 3228   0.761   6.557   7.097  2.1150 -4.8696 -4.1608
   26DOPE   HN3 3229   0.885   6.451   7.122  0.4383 -0.6069 -1.8144
   26DOPE   C12 3230   0.945   6.635   7.183  0.1525  0.6678  0.1583
   26DOPE  H12A 3231   1.032   6.586   7.234 -1.3078 -1.1690  0.9958
   26DOPE  H12B 3232   0.901   6.705   7.257 -0.3399  0.2037  0.3158
   26DOPE   C11 3233   0.976   6.706   7.052  0.2365  0.7269 -0.5317
   26DOPE  H11A 3234   1.042   6.795   7.059 -0.0488  0.9505 -0.6811
   26DOPE  H11B 3235   0.878   6.751   7.026  0.3557  0.3295 -1.7418
   26DOPE     P 3236   1.153   6.573   6.917 -0.1752  0.0936 -0.0128
   26DOPE   O13 3237   1.160   6.454   6.831 -0.1342 -0.5854 -0.2107
   26DOPE   O14 3238   1.215   6.543   7.049  0.2557 -0.2461 -0.4598
   26DOPE   O11 3239   1.224   6.695   6.846 -0.5381  0.5192 -0.4501
   26DOPE   O12 3240   1.007   6.620   6.943 -0.5152  0.2744  0.2281
   26DOPE    C1 3241   1.170   6.779   6.743 -0.4658 -0.6033  0.1645
   26DOPE    HA 3242   1.209   6.881   6.758  0.3084 -0.6905 -1.0564
   26DOPE    HB 3243   1.060   6.789   6.740 -0.3291  1.1490 -2.4011
   26DOPE    C2 3244   1.217   6.750   6.598 -0.1993 -0.0429  0.1077
   26DOPE    HS 3245   1.169   6.825   6.531  0.4212 -0.1628 -0.4793
   26DOPE   O21 3246   1.185   6.611   6.548 -0.1158 -0.1399 -0.6869
   26DOPE   C21 3247   1.058   6.606   6.513 -0.0654  0.3269 -0.5023
   26DOPE   O22 3248   0.983   6.703   6.509 -0.0812  0.5357 -0.0461
   26DOPE   C22 3249   1.022   6.461   6.473  0.3823  0.4305  0.2483
   26DOPE   H2R 3250   0.929   6.443   6.531  0.3242 -1.1527 -0.3054
   26DOPE   H2S 3251   1.102   6.400   6.521  0.7788  0.1688 -0.7336
   26DOPE    C3 3252   1.375   6.770   6.571  1.0796 -0.2782 -0.8481
   26DOPE    HX 3253   1.403   6.672   6.613  0.4134  0.8412  2.5169
   26DOPE    HY 3254   1.426   6.843   6.637 -0.0661 -0.9708  0.8759
   26DOPE   O31 3255   1.413   6.767   6.434  0.1070  0.3436  0.1919
   26DOPE   C31 3256   1.392   6.868   6.357 -0.0315  0.3157  0.4368
   26DOPE   O32 3257   1.330   6.969   6.381 -0.4707  0.2415 -0.4061
   26DOPE   C32 3258   1.450   6.839   6.217 -0.3432 -0.6036  0.7499
   26DOPE   H2X 3259   1.524   6.756   6.223  1.3266  0.7390 -0.2365
   26DOPE   H2Y 3260   1.364   6.819   6.150 -1.3288 -0.2896  1.8828
   26DOPE   C23 3261   1.001   6.453   6.321  0.1022  0.1855 -0.3839
   26DOPE   H3R 3262   0.969   6.552   6.281 -0.5984  0.6276  1.2027
   26DOPE   H3S 3263   0.917   6.386   6.293 -0.4520  0.8430 -0.3025
   26DOPE   C24 3264   1.122   6.406   6.246 -0.4306  0.3966 -0.2870
   26DOPE   H4R 3265   1.095   6.393   6.139  3.8364  1.7531 -1.7263
   26DOPE   H4S 3266   1.137   6.302   6.283  0.7023  1.4773  2.6311
   26DOPE   C25 3267   1.254   6.494   6.252 -0.0638 -0.7440  0.2216
   26DOPE   H5R 3268   1.289   6.538   6.348  0.0932  0.6947 -0.4761
   26DOPE   H5S 3269   1.211   6.576   6.191  1.7336 -0.4245 -0.6887
   26DOPE   C26 3270   1.374   6.431   6.168 -0.8447 -0.6382 -0.3202
   26DOPE   H6R 3271   1.403   6.333   6.211 -0.2233  1.0360  3.4321
   26DOPE   H6S 3272   1.462   6.495   6.192 -3.2429  2.1943  1.6475
   26DOPE   C27 3273   1.346   6.424   6.017  0.6271 -0.0653  0.1347
   26DOPE   H7R 3274   1.298   6.518   5.982  0.8257  0.8930  2.2629
   26DOPE   H7S 3275   1.274   6.340   6.001  1.0064 -0.3719  0.0155
   26DOPE   C28 3276   1.465   6.370   5.925 -0.3839  0.0624  0.1077
   26DOPE   H8R 3277   1.468   6.263   5.953 -0.5510  0.2561  0.8987
   26DOPE   H8S 3278   1.565   6.412   5.947  0.4334 -2.5114  1.6468
   26DOPE   C29 3279   1.432   6.385   5.779 -0.4061 -0.2185 -0.1779
   26DOPE   H9R 3280   1.440   6.487   5.740 -1.8084  0.6965  1.7771
   26DOPE  C210 3281   1.420   6.281   5.689 -0.3327  0.0563  0.1292
   26DOPE  H10R 3282   1.383   6.304   5.588  0.4122  0.1108 -0.1368
   26DOPE  C211 3283   1.428   6.130   5.716 -0.0806  0.0135 -0.2929
   26DOPE  H11R 3284   1.393   6.116   5.820 -0.9292  2.3400 -0.2128
   26DOPE  H11S 3285   1.531   6.091   5.703 -0.5972 -2.1305  1.5430
   26DOPE  C212 3286   1.341   6.037   5.628 -0.8037 -0.1758 -0.0329
   26DOPE  H12R 3287   1.368   5.934   5.659  1.4465  0.3389 -0.0815
   26DOPE  H12S 3288   1.368   6.040   5.520  0.5625  0.4203  0.2981
   26DOPE  C213 3289   1.186   6.045   5.643  0.1779 -0.1124 -0.2858
   26DOPE  H13R 3290   1.149   5.952   5.596  0.1487  0.0669 -0.6157
   26DOPE  H13S 3291   1.155   6.140   5.594  0.3827  0.0265 -0.1495
   26DOPE  C214 3292   1.135   6.026   5.784  0.0904 -0.6137 -0.2298
   26DOPE  H14R 3293   1.185   6.103   5.846 -0.5560  1.3640 -2.0571
   26DOPE  H14S 3294   1.160   5.926   5.826 -0.4174  0.9286  4.3332
   26DOPE  C215 3295   0.987   6.047   5.795  0.1168  0.2432 -0.1755
   26DOPE  H15R 3296   0.944   5.968   5.729 -1.6719 -1.7423  3.0646
   26DOPE  H15S 3297   0.934   6.140   5.764 -0.8023  0.4559  1.8407
   26DOPE  C216 3298   0.947   6.022   5.940 -0.0791  1.0033  0.5470
   26DOPE  H16R 3299   1.026   5.952   5.974  1.1314  1.7892 -0.5821
   26DOPE  H16S 3300   0.857   5.956   5.941 -0.0370  0.9471  0.6648
   26DOPE  C217 3301   0.928   6.144   6.025  0.0144  0.1732  0.2289
   26DOPE  H17R 3302   0.849   6.209   5.983  0.2999  0.7799  0.6254
   26DOPE  H17S 3303   1.024   6.195   6.046 -0.3325  0.2643  1.7382
   26DOPE  C218 3304   0.874   6.092   6.163  0.9541  0.0968 -0.8146
   26DOPE  H18R 3305   0.791   6.020   6.144 -0.6180  1.2119  1.3906
   26DOPE  H18S 3306   0.830   6.172   6.226  0.5958 -1.1827  0.6131
   26DOPE  H18T 3307   0.950   6.025   6.209 -0.8097 -0.4309  1.5728
   26DOPE   C33 3308   1.546   6.964   6.171 -0.6209  0.0567  0.0745
   26DOPE   H3X 3309   1.646   6.964   6.219 -1.6110 -0.5647  2.3161
   26DOPE   H3Y 3310   1.501   7.065   6.185  0.0454  0.4979 -0.8612
   26DOPE   C34 3311   1.584   6.953   6.021  1.2573 -0.1350 -0.3163
   26DOPE   H4X 3312   1.667   6.879   6.016  1.5038  0.1122  0.0285
   26DOPE   H4Y 3313   1.503   6.903   5.964  0.1990 -0.4103  1.3862
   26DOPE   C35 3314   1.630   7.080   5.952  0.6235 -0.0490  0.6222
   26DOPE   H5X 3315   1.720   7.113   6.008 -0.8159  2.1648  1.7482
   26DOPE   H5Y 3316   1.550   7.155   5.966  0.1561 -0.7724  2.0183
   26DOPE   C36 3317   1.651   7.054   5.806  0.5951  0.0346  0.4724
   26DOPE   H6X 3318   1.564   7.008   5.754  1.6455 -0.7892 -0.6236
   26DOPE   H6Y 3319   1.730   6.978   5.789 -0.8676 -1.3593 -0.4035
   26DOPE   C37 3320   1.672   7.188   5.740 -0.3014 -0.2148 -0.3906
   26DOPE   H7X 3321   1.576   7.243   5.748  1.0888  2.3923 -0.5049
   26DOPE   H7Y 3322   1.758   7.234   5.794  1.1978 -0.2768 -2.5862
   26DOPE   C38 3323   1.708   7.155   5.590 -0.7639  0.4686  0.7070
   26DOPE   H8X 3324   1.629   7.095   5.541  0.6218 -1.3099  0.5548
   26DOPE   H8Y 3325   1.806   7.103   5.584 -1.6488 -1.1439 -0.3088
   26DOPE   C39 3326   1.716   7.291   5.525  0.1459 -0.3819  0.0525
   26DOPE   H9X 3327   1.632   7.358   5.546  1.9469  1.7698  0.6490
   26DOPE  C310 3328   1.819   7.344   5.454  0.7245 -0.1618  0.5557
   26DOPE  H10X 3329   1.807   7.437   5.398 -0.9324 -1.0123 -0.5734
   26DOPE  C311 3330   1.946   7.278   5.406  0.2481 -0.6760 -0.2033
   26DOPE  H11X 3331   2.023   7.298   5.483 -0.1495  1.2688 -0.2742
   26DOPE  H11Y 3332   1.926   7.169   5.398 -1.8894 -0.3976  0.6406
   26DOPE  C312 3333   2.002   7.332   5.275  0.0444 -0.1894  0.2630
   26DOPE  H12X 3334   2.098   7.283   5.247 -0.3373 -0.4509 -0.6430
   26DOPE  H12Y 3335   2.021   7.441   5.273 -0.3916 -0.0709  1.5761
   26DOPE  C313 3336   1.909   7.299   5.147 -0.4773 -0.1260 -0.5645
   26DOPE  H13X 3337   1.887   7.191   5.143  0.8131 -0.3629 -3.1274
   26DOPE  H13Y 3338   1.817   7.361   5.139  0.4564  1.3965 -0.0726
   26DOPE  C314 3339   1.985   7.331   5.019  0.0363 -0.1492  0.1397
   26DOPE  H14X 3340   2.071   7.261   5.019  0.3137  0.1871 -0.7961
   26DOPE  H14Y 3341   2.020   7.435   5.011  0.3222 -0.2661 -0.1106
   26DOPE  C315 3342   1.896   7.306   4.897 -0.2792 -0.0999  0.5506
   26DOPE  H15X 3343   1.802   7.365   4.903 -1.2706 -1.4213 -1.2272
   26DOPE  H15Y 3344   1.876   7.198   4.884 -0.4107  0.1278 -1.4787
   26DOPE  C316 3345   1.965   7.352   4.767  0.6246  0.5194 -0.1876
   26DOPE  H16X 3346   2.041   7.278   4.736 -0.4116 -1.4028  1.5812
   26DOPE  H16Y 3347   2.003   7.455   4.786  0.9128  0.1616  1.2969
   26DOPE  C317 3348   1.873   7.354   4.642 -0.7000  0.3346  0.9993
   26DOPE  H17X 3349   1.850   7.253   4.603  0.6179  0.0545  0.8783
   26DOPE  H17Y 3350   1.787   7.422   4.662 -0.6404  0.5021  0.6867
   26DOPE  C318 3351   1.955   7.405   4.524 -1.0778 -0.7950  0.7835
   26DOPE  H18X 3352   1.893   7.425   4.434 -0.6653  1.5494  0.9647
   26DOPE  H18Y 3353   2.000   7.499   4.563 -1.5261  0.3994 -1.4082
   26DOPE  H18Z 3354   2.037   7.335   4.497 -0.8691  0.2626 -1.6081
   27DOPE     N 3355   6.391   0.420   6.764 -0.0226  0.5725  0.1797
   27DOPE   HN1 3356   6.348   0.351   6.828 -1.5496  0.3211 -1.0432
   27DOPE   HN2 3357   6.468   0.458   6.822  0.7939  0.8813 -1.0550
   27DOPE   HN3 3358   6.324   0.496   6.740  0.2515  0.8532  0.2839
   27DOPE   C12 3359   6.439   0.360   6.633 -0.3344  0.4695  0.2547
   27DOPE  H12A 3360   6.464   0.439   6.559 -1.1833 -0.6579 -1.2889
   27DOPE  H12B 3361   6.358   0.291   6.599  1.4703 -0.4141 -2.5936
   27DOPE   C11 3362   6.561   0.274   6.660 -0.6432  0.3644  0.0636
   27DOPE  H11A 3363   6.648   0.338   6.682  0.9740 -1.4068 -0.8871
   27DOPE  H11B 3364   6.603   0.231   6.567 -0.2427  2.2140 -0.6423
   27DOPE     P 3365   6.597   0.035   6.762 -0.2824 -0.0812 -0.1541
   27DOPE   O13 3366   6.536  -0.050   6.873  0.1340  0.6201  0.3615
   27DOPE   O14 3367   6.742   0.024   6.745  0.1692  0.1867  0.6830
   27DOPE   O11 3368   6.534  -0.002   6.617  0.0279  0.7166  0.1647
   27DOPE   O12 3369   6.553   0.187   6.775 -0.7263  0.3362 -0.1707
   27DOPE    C1 3370   6.409  -0.070   6.605 -0.2156  0.5161 -0.1815
   27DOPE    HA 3371   6.332   0.010   6.601  1.2742  1.9706 -0.5345
   27DOPE    HB 3372   6.384  -0.141   6.687 -1.2362  0.5976 -0.3990
   27DOPE    C2 3373   6.402  -0.164   6.480 -0.3092  0.1029  1.2979
   27DOPE    HS 3374   6.489  -0.233   6.484  1.7732  2.4130 -0.9585
   27DOPE   O21 3375   6.406  -0.093   6.361 -1.3142  0.1243 -0.0689
   27DOPE   C21 3376   6.520  -0.060   6.299  0.1038  1.3197 -0.0575
   27DOPE   O22 3377   6.632  -0.075   6.343 -0.2434 -0.1042 -0.0031
   27DOPE   C22 3378   6.492  -0.006   6.156  0.3012  0.2262  0.5033
   27DOPE   H2R 3379   6.576   0.065   6.146  0.6087 -0.3827 -1.5549
   27DOPE   H2S 3380   6.398   0.052   6.166  0.5763  0.7193  0.2173
   27DOPE    C3 3381   6.273  -0.260   6.476  0.3842  0.2451 -0.0226
   27DOPE    HX 3382   6.183  -0.200   6.448  1.3894  1.3613 -0.9569
   27DOPE    HY 3383   6.266  -0.309   6.576  0.8040  1.0375  0.4016
   27DOPE   O31 3384   6.293  -0.354   6.374 -0.0227  0.8780  0.2281
   27DOPE   C31 3385   6.207  -0.455   6.373 -0.2143  0.3132 -0.0918
   27DOPE   O32 3386   6.118  -0.473   6.455  0.1843  0.3203  0.0596
   27DOPE   C32 3387   6.235  -0.540   6.253  0.0958  0.0836 -0.8189
   27DOPE   H2X 3388   6.336  -0.581   6.275  0.7726  2.4421  0.9996
   27DOPE   H2Y 3389   6.152  -0.613   6.257  0.8148 -0.7118  0.4866
   27DOPE   C23 3390   6.499  -0.113   6.049  0.0974 -0.0990  0.0950
   27DOPE   H3R 3391   6.442  -0.204   6.077 -0.3787  0.6435  1.7114
   27DOPE   H3S 3392   6.603  -0.139   6.019  0.8711  2.1099  0.6515
   27DOPE   C24 3393   6.422  -0.060   5.925 -0.6408  0.6146 -0.0297
   27DOPE   H4R 3394   6.472   0.035   5.899  2.0803 -0.5782  0.4115
   27DOPE   H4S 3395   6.320  -0.046   5.966 -1.8621 -1.3243 -2.1783
   27DOPE   C25 3396   6.432  -0.146   5.796  0.2830  0.2988 -0.3015
   27DOPE   H5R 3397   6.403  -0.250   5.823 -0.8200  0.8307  0.6518
   27DOPE   H5S 3398   6.532  -0.136   5.749 -0.6681  0.8230 -2.3780
   27DOPE   C26 3399   6.324  -0.118   5.689 -0.1586 -1.0572 -0.1828
   27DOPE   H6R 3400   6.223  -0.118   5.736  0.2474 -1.3799  0.7162
   27DOPE   H6S 3401   6.329  -0.183   5.600 -0.4152 -1.5425  0.1551
   27DOPE   C27 3402   6.329   0.025   5.622 -0.1307  0.1032 -0.4518
   27DOPE   H7R 3403   6.428   0.036   5.571  0.3186  0.0942  0.4028
   27DOPE   H7S 3404   6.330   0.099   5.704  0.0259  1.2782 -1.4745
   27DOPE   C28 3405   6.217   0.039   5.524 -0.7694  0.2625  0.1866
   27DOPE   H8R 3406   6.125   0.019   5.582  0.0890 -0.8261  1.2242
   27DOPE   H8S 3407   6.210  -0.029   5.437  0.5400  0.8080 -0.3853
   27DOPE   C29 3408   6.229   0.176   5.466  0.3059  0.1885 -0.4187
   27DOPE   H9R 3409   6.280   0.253   5.527  1.1564 -0.3755 -0.3917
   27DOPE  C210 3410   6.194   0.214   5.342  0.8608  0.4287  0.1435
   27DOPE  H10R 3411   6.205   0.318   5.307  3.1266  0.1453 -0.1573
   27DOPE  C211 3412   6.128   0.117   5.243 -0.1297 -0.3807 -0.5166
   27DOPE  H11R 3413   6.045   0.063   5.292  1.0349 -0.4050  1.5354
   27DOPE  H11S 3414   6.208   0.047   5.210 -1.3016 -1.1849 -1.7786
   27DOPE  C212 3415   6.067   0.178   5.116 -0.1871  0.0261  0.2267
   27DOPE  H12R 3416   6.157   0.207   5.057 -0.4808  0.9839  0.2323
   27DOPE  H12S 3417   6.009   0.271   5.133  0.2016  0.5786 -1.2763
   27DOPE  C213 3418   5.999   0.069   5.032  0.0606 -0.6406 -0.0172
   27DOPE  H13R 3419   5.922   0.030   5.102 -0.3419 -0.3579 -0.2944
   27DOPE  H13S 3420   6.071  -0.014   5.017 -0.3313 -0.7302 -1.6345
   27DOPE  C214 3421   5.930   0.148   4.917 -0.7618 -0.3156  0.6126
   27DOPE  H14R 3422   5.999   0.214   4.860  1.6207 -2.0181  1.3206
   27DOPE  H14S 3423   5.839   0.193   4.962 -1.4175  1.2568 -2.0480
   27DOPE  C215 3424   5.873   0.046   4.826  0.1238  0.2540 -0.5959
   27DOPE  H15R 3425   5.796   0.105   4.771  0.4891  1.6426  0.3304
   27DOPE  H15S 3426   5.809  -0.016   4.893 -0.0433  1.1999  0.1471
   27DOPE  C216 3427   5.966  -0.028   4.729 -0.7474 -0.0823  0.5481
   27DOPE  H16R 3428   6.035  -0.079   4.800  1.7671  2.4495  0.0658
   27DOPE  H16S 3429   6.010   0.042   4.656 -2.7839  0.9258  0.2166
   27DOPE  C217 3430   5.892  -0.146   4.652 -0.0314 -0.1846 -0.1409
   27DOPE  H17R 3431   5.975  -0.184   4.588  0.1067 -1.4098  0.7243
   27DOPE  H17S 3432   5.821  -0.101   4.580  1.6084 -0.0009 -1.7051
   27DOPE  C218 3433   5.825  -0.248   4.741  0.1559  0.4867 -0.2393
   27DOPE  H18R 3434   5.823  -0.343   4.685  3.5850  0.2179 -0.1199
   27DOPE  H18S 3435   5.720  -0.221   4.766 -0.2790 -0.2967 -1.1865
   27DOPE  H18T 3436   5.884  -0.270   4.833  0.3613  0.9101 -0.2646
   27DOPE   C33 3437   6.232  -0.468   6.115  0.2559  0.1899  0.7513
   27DOPE   H3X 3438   6.320  -0.406   6.092 -1.5934  2.1344 -1.6109
   27DOPE   H3Y 3439   6.143  -0.402   6.110 -0.2938 -0.4688  1.4873
   27DOPE   C34 3440   6.222  -0.579   6.010  0.2247  0.3768 -0.3912
   27DOPE   H4X 3441   6.299  -0.655   6.035 -0.4606  0.6229  2.9201
   27DOPE   H4Y 3442   6.129  -0.639   6.015  0.9794 -0.7660  0.5855
   27DOPE   C35 3443   6.261  -0.530   5.866 -0.0161 -0.0154 -0.4478
   27DOPE   H5X 3444   6.255  -0.621   5.802 -2.1144 -1.1392  1.2329
   27DOPE   H5Y 3445   6.366  -0.496   5.881 -0.7652  1.3395  2.3806
   27DOPE   C36 3446   6.168  -0.418   5.810 -0.5613  0.5468  0.1317
   27DOPE   H6X 3447   6.207  -0.386   5.712  0.9659  3.3051  1.5104
   27DOPE   H6Y 3448   6.173  -0.325   5.871  2.5204  0.0488  0.7962
   27DOPE   C37 3449   6.030  -0.478   5.779 -0.4447  0.2991 -0.3235
   27DOPE   H7X 3450   6.047  -0.565   5.712 -0.8343  0.8291 -1.1319
   27DOPE   H7Y 3451   5.978  -0.501   5.875 -3.3242  4.0456 -0.7152
   27DOPE   C38 3452   5.920  -0.387   5.730 -0.4139  0.3368 -0.2443
   27DOPE   H8X 3453   5.819  -0.435   5.726  0.0648 -0.7971  0.6425
   27DOPE   H8Y 3454   5.946  -0.361   5.625  3.0004 -4.1932 -0.8508
   27DOPE   C39 3455   5.900  -0.264   5.817 -0.6192 -0.0364  1.0885
   27DOPE   H9X 3456   5.944  -0.273   5.917  2.0579 -1.0422 -0.0845
   27DOPE  C310 3457   5.823  -0.160   5.786  0.7582 -0.1895 -0.0954
   27DOPE  H10X 3458   5.808  -0.074   5.855 -2.2315  0.2438 -1.1173
   27DOPE  C311 3459   5.764  -0.125   5.650 -0.6707  0.0376 -0.0724
   27DOPE  H11X 3460   5.813  -0.180   5.568  0.7353 -0.7679  1.2515
   27DOPE  H11Y 3461   5.655  -0.139   5.634 -0.7028  1.7285 -1.5624
   27DOPE  C312 3462   5.795   0.024   5.625  0.3985 -1.1334 -0.0006
   27DOPE  H12X 3463   5.901   0.048   5.649  0.7453 -1.5815 -1.0201
   27DOPE  H12Y 3464   5.733   0.087   5.692  0.5063 -1.5572  0.5021
   27DOPE  C313 3465   5.752   0.080   5.485 -0.1520  0.5003  0.5893
   27DOPE  H13X 3466   5.818   0.037   5.407 -0.7911  0.9660 -0.2311
   27DOPE  H13Y 3467   5.650   0.039   5.466 -0.6125  0.8247  2.1590
   27DOPE  C314 3468   5.764   0.232   5.472 -0.6330  0.2569  0.1326
   27DOPE  H14X 3469   5.869   0.260   5.494 -0.1422 -1.0862 -0.3670
   27DOPE  H14Y 3470   5.700   0.286   5.546  1.6315  2.3498  0.6933
   27DOPE  C315 3471   5.731   0.282   5.331 -0.2080  0.2178 -0.3250
   27DOPE  H15X 3472   5.816   0.265   5.262  1.1106 -1.1329  1.5341
   27DOPE  H15Y 3473   5.718   0.392   5.333 -1.0122  0.1440 -1.2320
   27DOPE  C316 3474   5.601   0.231   5.270 -0.8348 -0.1711  0.5911
   27DOPE  H16X 3475   5.510   0.234   5.334 -0.4191  0.9676  1.1526
   27DOPE  H16Y 3476   5.608   0.120   5.259  0.7169 -0.0645  0.2786
   27DOPE  C317 3477   5.570   0.287   5.128  0.2436 -0.3191 -0.2680
   27DOPE  H17X 3478   5.561   0.397   5.144 -3.0649 -0.1928 -1.9973
   27DOPE  H17Y 3479   5.650   0.250   5.062  0.1053 -0.1262 -0.5482
   27DOPE  C318 3480   5.432   0.237   5.076  0.9956 -0.4770 -0.4878
   27DOPE  H18X 3481   5.416   0.274   4.973 -1.4448 -1.5578 -0.5631
   27DOPE  H18Y 3482   5.432   0.126   5.066 -0.1359 -0.5546  0.1474
   27DOPE  H18Z 3483   5.348   0.262   5.145  0.8694  0.8347 -1.0973
   28DOPE     N 3484   0.787   6.910   6.563  0.6924 -0.2352 -0.0902
   28DOPE   HN1 3485   0.703   6.948   6.612  0.4070 -3.2016  2.0516
   28DOPE   HN2 3486   0.827   6.837   6.626  2.8825  1.1838  0.2436
   28DOPE   HN3 3487   0.866   6.976   6.563  1.8518 -1.5500 -1.1709
   28DOPE   C12 3488   0.753   6.857   6.427 -0.0962  0.2415  0.1589
   28DOPE  H12A 3489   0.740   6.747   6.437  1.2324 -0.1412 -1.8051
   28DOPE  H12B 3490   0.840   6.873   6.360 -0.8252 -1.6988 -1.3412
   28DOPE   C11 3491   0.628   6.922   6.366 -0.3472 -0.5033 -0.0807
   28DOPE  H11A 3492   0.545   6.890   6.432 -0.6615  0.7086  0.1406
   28DOPE  H11B 3493   0.626   6.874   6.266  2.9290 -1.7513  0.3165
   28DOPE     P 3494   0.526   7.156   6.397  0.2220 -0.0749  0.3918
   28DOPE   O13 3495   0.552   7.300   6.372  0.1237  0.2687  0.1487
   28DOPE   O14 3496   0.488   7.116   6.537 -0.4805  0.1471  0.2979
   28DOPE   O11 3497   0.419   7.100   6.299 -0.0349  0.0070  0.2333
   28DOPE   O12 3498   0.646   7.066   6.361  0.0959 -0.2466 -0.2592
   28DOPE    C1 3499   0.436   7.121   6.157  0.2055  0.6272 -0.5227
   28DOPE    HA 3500   0.397   7.035   6.098  1.9918 -1.4769  1.1938
   28DOPE    HB 3501   0.543   7.115   6.131  0.0604 -1.9989 -0.7635
   28DOPE    C2 3502   0.372   7.253   6.111  0.1307 -0.0612  0.3799
   28DOPE    HS 3503   0.365   7.316   6.202  1.6872 -1.7457  1.7368
   28DOPE   O21 3504   0.240   7.221   6.067 -0.4193 -0.6271  0.7235
   28DOPE   C21 3505   0.141   7.212   6.152 -0.7177  0.0802  0.4205
   28DOPE   O22 3506   0.159   7.211   6.272 -0.2636 -0.3358 -0.3602
   28DOPE   C22 3507   0.008   7.214   6.072 -0.0195  0.6207 -0.1297
   28DOPE   H2R 3508  -0.017   7.107   6.053  1.2160  0.5586 -1.6152
   28DOPE   H2S 3509   0.021   7.264   5.974 -0.6987  2.8275  0.8593
   28DOPE    C3 3510   0.446   7.328   5.997  0.0931 -0.0653 -0.2129
   28DOPE    HX 3511   0.391   7.423   5.986  1.4797  0.6925 -0.8949
   28DOPE    HY 3512   0.423   7.271   5.904  2.2009 -0.0478 -0.8073
   28DOPE   O31 3513   0.588   7.362   6.003 -0.0383  0.1104  0.4560
   28DOPE   C31 3514   0.620   7.466   6.088 -0.2257 -0.1276 -0.2596
   28DOPE   O32 3515   0.538   7.540   6.142 -0.1091 -0.3358 -0.1142
   28DOPE   C32 3516   0.771   7.467   6.111  0.3143 -0.1582  0.1518
   28DOPE   H2X 3517   0.787   7.466   6.220  0.0055 -1.0412  0.1930
   28DOPE   H2Y 3518   0.814   7.372   6.073 -0.7838 -0.7111  0.2695
   28DOPE   C23 3519  -0.103   7.282   6.151 -0.2842  0.0095  0.6704
   28DOPE   H3R 3520  -0.087   7.392   6.143  0.3001 -0.1915 -1.2049
   28DOPE   H3S 3521  -0.106   7.242   6.255 -1.6397 -0.3484  0.5221
   28DOPE   C24 3522  -0.249   7.253   6.115  0.2061  0.2925 -0.0415
   28DOPE   H4R 3523  -0.322   7.315   6.173 -0.1592 -0.7339  0.6125
   28DOPE   H4S 3524  -0.273   7.149   6.145 -0.6053  0.8907  1.5155
   28DOPE   C25 3525  -0.280   7.273   5.969  0.2312  1.0529 -0.4342
   28DOPE   H5R 3526  -0.202   7.234   5.900  0.1855 -0.7580  0.4958
   28DOPE   H5S 3527  -0.298   7.382   5.958 -0.0905  1.0640  0.1499
   28DOPE   C26 3528  -0.415   7.201   5.934  0.0025 -1.1301  0.1729
   28DOPE   H6R 3529  -0.487   7.215   6.017  1.9655 -0.7507  1.9135
   28DOPE   H6S 3530  -0.398   7.094   5.909 -1.3320 -1.1480 -0.7193
   28DOPE   C27 3531  -0.476   7.255   5.805 -0.5127 -0.6675  0.1777
   28DOPE   H7R 3532  -0.482   7.365   5.816  0.4049 -0.2520 -2.5712
   28DOPE   H7S 3533  -0.584   7.234   5.789 -0.4867  1.2992 -3.6762
   28DOPE   C28 3534  -0.399   7.223   5.669  0.0078 -0.0611  0.4529
   28DOPE   H8R 3535  -0.396   7.112   5.663  0.6000 -0.3055  3.4867
   28DOPE   H8S 3536  -0.296   7.265   5.669 -0.7106  1.7869  0.4243
   28DOPE   C29 3537  -0.475   7.287   5.557 -0.4283  0.0929  0.3443
   28DOPE   H9R 3538  -0.480   7.396   5.562 -0.8950  0.1557 -1.0753
   28DOPE  C210 3539  -0.553   7.228   5.458 -0.0493 -0.0617  0.4324
   28DOPE  H10R 3540  -0.607   7.297   5.391 -0.0352 -1.7231 -1.3736
   28DOPE  C211 3541  -0.583   7.083   5.432 -0.1888  0.3246 -0.3378
   28DOPE  H11R 3542  -0.689   7.078   5.399 -1.0722  0.9081  2.1667
   28DOPE  H11S 3543  -0.579   7.020   5.524  3.1535  0.3468 -0.3602
   28DOPE  C212 3544  -0.486   7.014   5.331  0.1553  0.1923  0.4039
   28DOPE  H12R 3545  -0.385   7.004   5.376  0.4006  2.2645  0.4027
   28DOPE  H12S 3546  -0.483   7.085   5.246 -1.6610  1.7363  1.5447
   28DOPE  C213 3547  -0.556   6.893   5.270 -0.2796  0.7333 -0.0924
   28DOPE  H13R 3548  -0.653   6.920   5.223 -0.9078 -2.4027 -0.8253
   28DOPE  H13S 3549  -0.572   6.810   5.343 -0.4755 -0.8240 -1.8350
   28DOPE  C214 3550  -0.472   6.840   5.154  0.8015 -0.6849 -0.1705
   28DOPE  H14R 3551  -0.365   6.824   5.181  0.9559  0.8498  0.2262
   28DOPE  H14S 3552  -0.485   6.911   5.070  0.3987 -1.0983 -0.4624
   28DOPE  C215 3553  -0.526   6.708   5.108 -0.1071  0.9003  0.0308
   28DOPE  H15R 3554  -0.633   6.704   5.080 -0.7587 -0.5786  2.3848
   28DOPE  H15S 3555  -0.514   6.626   5.183 -0.9740 -1.7950 -2.5640
   28DOPE  C216 3556  -0.465   6.649   4.972  0.0725  0.6409  0.3619
   28DOPE  H16R 3557  -0.427   6.548   4.996  2.7500  1.0915 -1.5907
   28DOPE  H16S 3558  -0.381   6.712   4.938  0.7912 -0.9430 -0.9436
   28DOPE  C217 3559  -0.558   6.645   4.848 -0.7924 -0.0064 -0.4582
   28DOPE  H17R 3560  -0.589   6.749   4.825 -1.1796 -0.3688 -1.6272
   28DOPE  H17S 3561  -0.643   6.576   4.867  0.4110 -1.5466 -0.4196
   28DOPE  C218 3562  -0.469   6.587   4.735  0.6924 -0.1134 -0.1681
   28DOPE  H18R 3563  -0.519   6.611   4.638  0.7571 -1.3335 -0.5280
   28DOPE  H18S 3564  -0.477   6.477   4.749 -1.2186 -0.1404 -1.1409
   28DOPE  H18T 3565  -0.362   6.618   4.737  0.2722  1.3674  1.1527
   28DOPE   C33 3566   0.845   7.588   6.050  0.6149  0.4604  1.3077
   28DOPE   H3X 3567   0.930   7.611   6.118  0.8332 -0.2513  1.2835
   28DOPE   H3Y 3568   0.770   7.669   6.038 -0.0089 -0.2645  0.1564
   28DOPE   C34 3569   0.923   7.551   5.923  0.3580 -0.7287  0.0266
   28DOPE   H4X 3570   0.992   7.465   5.931 -1.4739 -2.1652  1.0768
   28DOPE   H4Y 3571   0.844   7.513   5.854 -0.5450 -1.2840  1.3322
   28DOPE   C35 3572   1.006   7.668   5.866 -0.4166  0.1943  0.7328
   28DOPE   H5X 3573   1.051   7.638   5.769 -1.9074  0.9578 -0.2433
   28DOPE   H5Y 3574   1.085   7.701   5.936  2.0260 -3.4508 -0.0408
   28DOPE   C36 3575   0.933   7.790   5.815  0.9729 -0.5746 -0.2910
   28DOPE   H6X 3576   0.877   7.841   5.896  0.7913 -1.8742  0.4320
   28DOPE   H6Y 3577   0.848   7.767   5.748 -0.1415  0.8901  0.5453
   28DOPE   C37 3578   1.019   7.894   5.750  0.0098 -0.9200 -0.8023
   28DOPE   H7X 3579   0.976   7.997   5.752  0.9881 -0.5016  0.8059
   28DOPE   H7Y 3580   1.116   7.907   5.804 -0.7251  1.2348  0.1167
   28DOPE   C38 3581   1.057   7.865   5.602 -0.5957 -0.2158  0.5462
   28DOPE   H8X 3582   1.097   7.766   5.574  2.1617  1.7787 -3.4386
   28DOPE   H8Y 3583   1.138   7.940   5.588 -1.7020  1.1280  1.0879
   28DOPE   C39 3584   0.941   7.897   5.511  0.6054 -0.3733 -0.0804
   28DOPE   H9X 3585   0.927   8.002   5.482 -1.1488 -0.1504  1.4108
   28DOPE  C310 3586   0.861   7.808   5.449  0.0682  1.0217 -0.0129
   28DOPE  H10X 3587   0.776   7.855   5.397 -0.2989  0.5152  0.1162
   28DOPE  C311 3588   0.863   7.655   5.472  0.5731 -0.1100  0.2662
   28DOPE  H11X 3589   0.945   7.619   5.537 -2.1170 -0.7780  3.5987
   28DOPE  H11Y 3590   0.773   7.614   5.522 -0.8198  1.6999 -0.6231
   28DOPE  C312 3591   0.864   7.579   5.328  0.3027 -0.9187 -0.2470
   28DOPE  H12X 3592   0.788   7.616   5.255  1.4706  1.7489 -0.2307
   28DOPE  H12Y 3593   0.824   7.478   5.351 -0.5719 -0.5813 -0.2521
   28DOPE  C313 3594   0.999   7.575   5.261 -0.3122 -0.3978  0.1196
   28DOPE  H13X 3595   1.051   7.672   5.270  0.9531 -1.0235 -0.2031
   28DOPE  H13Y 3596   1.061   7.502   5.319  0.5467  0.6072  0.4928
   28DOPE  C314 3597   0.997   7.534   5.112  0.1677 -0.3589 -0.3293
   28DOPE  H14X 3598   1.103   7.549   5.080  0.6832  1.4142  1.9004
   28DOPE  H14Y 3599   0.937   7.617   5.068  1.2507  1.1833  0.9809
   28DOPE  C315 3600   0.947   7.396   5.071 -0.2171  0.1096  0.3763
   28DOPE  H15X 3601   0.838   7.402   5.093 -0.0310  1.1777  1.1064
   28DOPE  H15Y 3602   0.990   7.315   5.133 -0.9371 -0.3888  0.2373
   28DOPE  C316 3603   0.958   7.379   4.923 -0.0208 -0.2278  0.8978
   28DOPE  H16X 3604   1.065   7.387   4.894 -0.6250  0.8922 -1.1867
   28DOPE  H16Y 3605   0.910   7.463   4.870  0.6294  1.3460  2.6923
   28DOPE  C317 3606   0.896   7.246   4.874 -0.1583 -0.2441 -0.0187
   28DOPE  H17X 3607   0.938   7.158   4.927  0.5699 -0.1763 -0.4712
   28DOPE  H17Y 3608   0.789   7.257   4.902 -0.2778  1.7502 -1.0694
   28DOPE  C318 3609   0.919   7.219   4.721 -0.1011 -0.2027 -0.9661
   28DOPE  H18X 3610   0.882   7.119   4.691  0.6393 -0.6398 -0.4507
   28DOPE  H18Y 3611   0.873   7.297   4.657 -0.7441 -0.6732 -1.0849
   28DOPE  H18Z 3612   1.028   7.213   4.699 -0.0750  1.8804 -1.6398
   29DOPE     N 3613   7.640   1.166   7.179  0.3914 -0.0471 -0.6193
   29DOPE   HN1 3614   7.662   1.216   7.268 -0.3166  0.7002 -0.8480
   29DOPE   HN2 3615   7.626   1.229   7.097  1.0015 -0.4480 -1.0344
   29DOPE   HN3 3616   7.554   1.112   7.200  1.5850 -1.7494  0.0732
   29DOPE   C12 3617   7.747   1.063   7.141  0.1822  0.2029  0.4971
   29DOPE  H12A 3618   7.727   1.015   7.043 -0.4799 -0.8591  1.1407
   29DOPE  H12B 3619   7.745   0.982   7.217 -0.3402 -0.1476  0.1162
   29DOPE   C11 3620   7.887   1.126   7.146 -0.2334  0.8013  0.1759
   29DOPE  H11A 3621   7.883   1.194   7.233 -0.7120  1.6751 -0.5093
   29DOPE  H11B 3622   7.918   1.175   7.051  0.3896 -1.1360 -0.6884
   29DOPE     P 3623   8.005   0.896   7.081 -0.5014  0.4118  0.3507
   29DOPE   O13 3624   7.906   0.790   7.116 -0.4791  0.5365  0.0092
   29DOPE   O14 3625   8.149   0.849   7.075  0.3630  0.7308 -0.6255
   29DOPE   O11 3626   7.974   0.931   6.930 -0.0211  0.6302  0.4267
   29DOPE   O12 3627   7.985   1.027   7.172 -0.3482  0.4996 -0.5618
   29DOPE    C1 3628   8.061   1.031   6.870  0.2281  0.5635  0.4459
   29DOPE    HA 3629   8.165   1.035   6.909  1.1008 -2.3730 -1.2319
   29DOPE    HB 3630   8.011   1.130   6.867 -0.2859  0.3015  0.3447
   29DOPE    C2 3631   8.088   0.974   6.725 -0.0200  0.1033  0.1140
   29DOPE    HS 3632   8.172   1.037   6.689 -0.5705  0.5864 -0.3416
   29DOPE   O21 3633   7.983   0.996   6.629  0.2414 -0.1587 -0.0927
   29DOPE   C21 3634   7.968   1.117   6.583  0.0401 -0.4910  0.3297
   29DOPE   O22 3635   8.023   1.217   6.629  0.2867 -0.7604 -0.3592
   29DOPE   C22 3636   7.857   1.122   6.477  0.3251  0.2062 -0.4759
   29DOPE   H2R 3637   7.828   1.228   6.494 -0.3242 -0.3102  2.2525
   29DOPE   H2S 3638   7.775   1.058   6.516 -0.2721  1.5824  0.6432
   29DOPE    C3 3639   8.125   0.828   6.716 -0.0794 -0.3051  0.2943
   29DOPE    HX 3640   8.030   0.782   6.749 -1.3628  2.7802  1.3049
   29DOPE    HY 3641   8.211   0.811   6.785  0.3109 -0.3725 -0.2062
   29DOPE   O31 3642   8.152   0.795   6.580 -0.3291  0.3439 -0.0257
   29DOPE   C31 3643   8.275   0.817   6.535 -0.5865 -0.0392  0.4602
   29DOPE   O32 3644   8.371   0.850   6.602  0.0010 -0.0192  0.2373
   29DOPE   C32 3645   8.267   0.787   6.381 -0.1952 -0.1498  0.0354
   29DOPE   H2X 3646   8.265   0.676   6.370 -0.0146 -0.2993  1.3713
   29DOPE   H2Y 3647   8.163   0.813   6.354 -0.1604 -1.7230 -1.8969
   29DOPE   C23 3648   7.912   1.093   6.333  0.1278  0.2911 -0.4129
   29DOPE   H3R 3649   7.950   0.989   6.336 -0.6604  0.0058 -0.1468
   29DOPE   H3S 3650   8.000   1.161   6.327 -1.1593  2.1135  0.1293
   29DOPE   C24 3651   7.812   1.131   6.218  0.0826  0.2091  0.0255
   29DOPE   H4R 3652   7.778   1.236   6.232 -0.0790  0.4366 -1.8191
   29DOPE   H4S 3653   7.726   1.062   6.229  0.1619  0.1183  0.0763
   29DOPE   C25 3654   7.881   1.107   6.079 -0.4820 -0.5946  0.0431
   29DOPE   H5R 3655   7.812   1.139   5.997  0.7645  0.5015 -0.6184
   29DOPE   H5S 3656   7.891   0.997   6.082 -1.9575 -0.7539 -0.0863
   29DOPE   C26 3657   8.018   1.178   6.060 -0.3795 -0.0184 -0.7606
   29DOPE   H6R 3658   8.104   1.122   6.103 -0.4712 -0.1775 -0.7822
   29DOPE   H6S 3659   8.029   1.271   6.119  1.1660 -1.7395  1.8822
   29DOPE   C27 3660   8.042   1.199   5.907 -0.1445 -0.1191  0.0639
   29DOPE   H7R 3661   8.130   1.265   5.895  1.0199 -1.4218  1.1030
   29DOPE   H7S 3662   7.956   1.250   5.858 -1.0416 -1.2982  0.3714
   29DOPE   C28 3663   8.052   1.067   5.833  0.4957 -0.1387  0.0019
   29DOPE   H8R 3664   8.057   1.105   5.728 -2.7023  2.4182  0.6140
   29DOPE   H8S 3665   7.961   1.006   5.845  1.2742 -0.8935  2.6339
   29DOPE   C29 3666   8.176   0.995   5.883 -0.1100  0.3604  1.2288
   29DOPE   H9R 3667   8.261   1.051   5.926 -0.3956  0.6431  1.4337
   29DOPE  C210 3668   8.174   0.859   5.886 -1.2058  0.3403 -0.6081
   29DOPE  H10R 3669   8.269   0.814   5.920 -1.7808  0.4977  1.3108
   29DOPE  C211 3670   8.073   0.763   5.834 -0.3937 -0.0184 -0.0472
   29DOPE  H11R 3671   8.114   0.698   5.754 -1.7104  0.8619 -1.5036
   29DOPE  H11S 3672   7.980   0.808   5.792 -0.9609 -0.6797  0.4770
   29DOPE  C212 3673   8.048   0.662   5.949 -0.2074 -0.3117 -0.4521
   29DOPE  H12R 3674   8.150   0.634   5.985  0.0459  1.0410 -0.0890
   29DOPE  H12S 3675   7.990   0.576   5.909 -0.4653 -1.5670  2.3350
   29DOPE  C213 3676   7.955   0.710   6.062  0.0746 -0.3143  0.2319
   29DOPE  H13R 3677   7.850   0.733   6.031  0.0987  0.7043  0.8314
   29DOPE  H13S 3678   8.004   0.795   6.114 -1.3232  0.6040  0.1142
   29DOPE  C214 3679   7.940   0.612   6.180 -0.3338  0.3752  0.1994
   29DOPE  H14R 3680   8.036   0.614   6.236 -0.3744 -1.2890  0.3693
   29DOPE  H14S 3681   7.912   0.513   6.138 -1.0691 -0.3677  2.2746
   29DOPE  C215 3682   7.837   0.659   6.283 -0.3141 -0.0042 -0.1411
   29DOPE  H15R 3683   7.734   0.650   6.242 -1.3019 -1.8027  2.4360
   29DOPE  H15S 3684   7.866   0.763   6.310 -0.8037 -0.3859  2.0039
   29DOPE  C216 3685   7.855   0.586   6.418  0.1820  0.7815  0.4898
   29DOPE  H16R 3686   7.787   0.645   6.482  0.4292  3.4022 -1.5153
   29DOPE  H16S 3687   7.961   0.593   6.451  0.2433  0.3153  0.4119
   29DOPE  C217 3688   7.806   0.439   6.430  0.0056 -0.5122  1.1183
   29DOPE  H17R 3689   7.839   0.388   6.522  4.0895  2.3081  1.4796
   29DOPE  H17S 3690   7.865   0.395   6.347 -1.5560  2.1505 -1.6150
   29DOPE  C218 3691   7.659   0.416   6.394 -0.1282  0.0507  0.1805
   29DOPE  H18R 3692   7.638   0.431   6.286 -0.7964 -2.5064 -0.1168
   29DOPE  H18S 3693   7.592   0.485   6.451 -1.4636  0.2856 -1.5633
   29DOPE  H18T 3694   7.625   0.314   6.422 -0.4014 -0.2328 -1.1042
   29DOPE   C33 3695   8.374   0.846   6.287 -0.4872  0.0775 -0.3168
   29DOPE   H3X 3696   8.354   0.813   6.183 -0.0325  0.5263 -0.5517
   29DOPE   H3Y 3697   8.475   0.816   6.321 -1.0117 -0.0140  1.2780
   29DOPE   C34 3698   8.363   1.000   6.291 -0.2729  0.2463 -0.0772
   29DOPE   H4X 3699   8.261   1.044   6.294 -0.4567 -0.1348 -0.6375
   29DOPE   H4Y 3700   8.427   1.045   6.369  0.9602 -2.9169  0.8737
   29DOPE   C35 3701   8.434   1.066   6.174 -0.3809  0.0053  0.2551
   29DOPE   H5X 3702   8.415   1.017   6.076 -0.0163 -0.4349  0.3979
   29DOPE   H5Y 3703   8.543   1.053   6.191 -0.7680 -0.8256  2.3680
   29DOPE   C36 3704   8.393   1.214   6.158 -0.4509 -0.5548 -0.6582
   29DOPE   H6X 3705   8.405   1.272   6.252  1.4906  2.0517 -2.3935
   29DOPE   H6Y 3706   8.286   1.227   6.130  0.0602  0.8790 -2.0560
   29DOPE   C37 3707   8.460   1.277   6.040 -0.4512  0.7925  0.1486
   29DOPE   H7X 3708   8.568   1.252   6.030 -0.5231  0.7052 -0.4141
   29DOPE   H7Y 3709   8.412   1.225   5.955 -1.7703 -0.7461  1.7634
   29DOPE   C38 3710   8.460   1.431   6.015 -0.8089 -0.2810 -0.3722
   29DOPE   H8X 3711   8.360   1.480   6.020 -0.5515  0.3366 -1.0145
   29DOPE   H8Y 3712   8.486   1.439   5.907  1.4300  1.3429  0.2182
   29DOPE   C39 3713   8.558   1.509   6.100  0.1838 -0.3860 -0.1731
   29DOPE   H9X 3714   8.520   1.523   6.202  0.7357  2.8947 -0.3206
   29DOPE  C310 3715   8.672   1.566   6.057 -0.2361  0.4449  0.4399
   29DOPE  H10X 3716   8.734   1.621   6.129  0.3737  2.7452 -1.6981
   29DOPE  C311 3717   8.727   1.548   5.916  0.3828 -1.2178 -0.2575
   29DOPE  H11X 3718   8.829   1.503   5.918 -0.1219 -2.5514 -1.7866
   29DOPE  H11Y 3719   8.670   1.475   5.854  1.1063 -0.7583 -1.4940
   29DOPE  C312 3720   8.742   1.679   5.828  0.4661  0.1562  0.2424
   29DOPE  H12X 3721   8.646   1.734   5.822  1.8571  3.0114  1.9434
   29DOPE  H12Y 3722   8.771   1.646   5.726  0.8952  1.4494 -0.0671
   29DOPE  C313 3723   8.845   1.777   5.890  0.4873  0.4909  0.5568
   29DOPE  H13X 3724   8.819   1.794   5.996 -1.0702 -3.1441  0.8984
   29DOPE  H13Y 3725   8.943   1.723   5.886  0.0575 -0.4960  2.3421
   29DOPE  C314 3726   8.848   1.902   5.795  0.3153  0.0671 -0.1076
   29DOPE  H14X 3727   8.878   1.868   5.693  0.8446  0.0519  0.0470
   29DOPE  H14Y 3728   8.931   1.963   5.836  0.3841 -0.5079  0.6289
   29DOPE  C315 3729   8.722   1.989   5.787  0.1522 -0.5303  0.5825
   29DOPE  H15X 3730   8.703   2.029   5.888  0.8980  0.1003  0.4859
   29DOPE  H15Y 3731   8.637   1.922   5.763 -0.0836 -0.9248  2.4294
   29DOPE  C316 3732   8.737   2.097   5.681 -0.3050 -0.5394 -0.2857
   29DOPE  H16X 3733   8.777   2.060   5.584  0.7789  0.2118 -0.1496
   29DOPE  H16Y 3734   8.813   2.164   5.729  1.9311 -3.1592  0.0754
   29DOPE  C317 3735   8.614   2.188   5.648  0.0829  0.6737 -1.0795
   29DOPE  H17X 3736   8.526   2.138   5.602 -2.0648  0.6647  2.6681
   29DOPE  H17Y 3737   8.562   2.220   5.741  1.9886  0.1123  0.2305
   29DOPE  C318 3738   8.653   2.310   5.559  0.3099 -0.2340 -0.1782
   29DOPE  H18X 3739   8.713   2.277   5.471  0.7710  2.1907 -0.8389
   29DOPE  H18Y 3740   8.555   2.354   5.531  1.3102  0.2577 -3.2988
   29DOPE  H18Z 3741   8.701   2.389   5.620 -1.3746  2.8646 -2.5605
   30DOPE     N 3742   1.095   7.440   6.893 -0.4542  0.6864 -0.2946
   30DOPE   HN1 3743   0.995   7.415   6.882 -0.5221 -0.3213  2.0011
   30DOPE   HN2 3744   1.116   7.423   6.993 -0.2181  2.2208 -0.0629
   30DOPE   HN3 3745   1.112   7.539   6.864  0.0112  0.6602 -0.1211
   30DOPE   C12 3746   1.184   7.358   6.815 -0.5009  0.1481  0.1257
   30DOPE  H12A 3747   1.132   7.342   6.718 -0.0238  0.4013 -0.1787
   30DOPE  H12B 3748   1.200   7.260   6.865  1.0947 -0.4114 -1.3876
   30DOPE   C11 3749   1.316   7.433   6.792 -0.9662 -0.5624  0.5301
   30DOPE  H11A 3750   1.314   7.528   6.734  0.4194  0.3695  1.9497
   30DOPE  H11B 3751   1.365   7.367   6.717 -2.1828  1.0299 -1.8307
   30DOPE     P 3752   1.526   7.380   6.936 -0.4040 -0.1800  0.1646
   30DOPE   O13 3753   1.503   7.239   6.976 -0.2042  0.2363  0.3574
   30DOPE   O14 3754   1.616   7.448   7.026 -0.2812 -0.3410  0.0062
   30DOPE   O11 3755   1.588   7.384   6.789  0.2942 -0.1387 -0.1583
   30DOPE   O12 3756   1.385   7.446   6.919 -0.4517 -0.1089 -0.3432
   30DOPE    C1 3757   1.651   7.492   6.717 -0.0145 -0.2511 -0.4425
   30DOPE    HA 3758   1.730   7.537   6.780  0.3117  1.5219 -2.0205
   30DOPE    HB 3759   1.579   7.569   6.681  3.0817  1.4949 -3.4604
   30DOPE    C2 3760   1.717   7.451   6.583  0.2270 -0.5346 -0.2421
   30DOPE    HS 3761   1.742   7.538   6.518 -1.8634  1.9541  2.0370
   30DOPE   O21 3762   1.640   7.355   6.504 -0.1802  0.5513 -0.3531
   30DOPE   C21 3763   1.552   7.407   6.428  0.8388 -0.2168 -0.2057
   30DOPE   O22 3764   1.536   7.530   6.414 -0.5645 -0.0593  0.3845
   30DOPE   C22 3765   1.473   7.303   6.354 -0.4712  0.0423 -0.4887
   30DOPE   H2R 3766   1.432   7.235   6.432  1.5416  1.0241  1.5047
   30DOPE   H2S 3767   1.552   7.245   6.301  2.3982  0.6383  2.8017
   30DOPE    C3 3768   1.864   7.392   6.604  0.2504  0.0199 -0.2163
   30DOPE    HX 3769   1.852   7.297   6.661  0.0549  1.2244  1.8707
   30DOPE    HY 3770   1.935   7.447   6.670 -0.3321 -2.2823  2.5740
   30DOPE   O31 3771   1.937   7.387   6.485  0.1669 -0.0124 -0.1828
   30DOPE   C31 3772   1.959   7.272   6.433 -0.0749  0.5681  1.0348
   30DOPE   O32 3773   1.925   7.161   6.482 -0.4034 -0.6484  0.2859
   30DOPE   C32 3774   2.014   7.289   6.293 -1.2122 -0.4719 -0.1665
   30DOPE   H2X 3775   2.076   7.382   6.291  0.5579 -1.4646  2.7814
   30DOPE   H2Y 3776   2.094   7.214   6.278  0.6259  1.1613  0.9394
   30DOPE   C23 3777   1.375   7.364   6.249 -0.2136 -0.8059  0.2519
   30DOPE   H3R 3778   1.435   7.407   6.166  0.8558 -0.3639  1.2217
   30DOPE   H3S 3779   1.317   7.450   6.290  0.5072  0.2234 -0.8239
   30DOPE   C24 3780   1.274   7.269   6.183  0.3994  0.4619  0.1971
   30DOPE   H4R 3781   1.193   7.245   6.254  0.9707  1.4179  1.2064
   30DOPE   H4S 3782   1.325   7.179   6.142  0.5952  1.3666 -1.6878
   30DOPE   C25 3783   1.206   7.329   6.061 -0.1650  0.2885 -1.0480
   30DOPE   H5R 3784   1.198   7.439   6.079  1.2289  0.1187  0.9712
   30DOPE   H5S 3785   1.100   7.296   6.061 -0.6756  1.8145  0.1859
   30DOPE   C26 3786   1.290   7.314   5.935 -0.4668  0.4753 -0.4347
   30DOPE   H6R 3787   1.309   7.205   5.926 -1.8044  0.2114 -0.3268
   30DOPE   H6S 3788   1.386   7.368   5.947  0.0688 -0.5875  0.1562
   30DOPE   C27 3789   1.212   7.352   5.806 -0.1665 -0.5169 -0.6880
   30DOPE   H7R 3790   1.193   7.461   5.803  0.3354 -0.3264  1.4557
   30DOPE   H7S 3791   1.114   7.302   5.817  0.1354 -0.6782  1.8680
   30DOPE   C28 3792   1.289   7.318   5.675 -0.0064  0.2056  0.0066
   30DOPE   H8R 3793   1.339   7.219   5.686 -0.4878 -0.1192 -0.6609
   30DOPE   H8S 3794   1.369   7.394   5.662 -0.3073  0.4369 -0.5478
   30DOPE   C29 3795   1.194   7.318   5.552 -0.9224  0.1712 -0.2015
   30DOPE   H9R 3796   1.107   7.386   5.563 -0.5961  0.3130  2.0713
   30DOPE  C210 3797   1.218   7.256   5.438  0.1329 -0.3343 -0.0263
   30DOPE  H10R 3798   1.136   7.250   5.365  0.6690 -0.7518 -0.6114
   30DOPE  C211 3799   1.328   7.165   5.412 -0.3467  0.4580  0.2630
   30DOPE  H11R 3800   1.292   7.060   5.401 -0.6270  0.6644 -0.9326
   30DOPE  H11S 3801   1.410   7.164   5.487  0.3508  0.4430 -0.4792
   30DOPE  C212 3802   1.408   7.207   5.289  0.1827  0.7413  0.0933
   30DOPE  H12R 3803   1.497   7.141   5.290 -1.4014 -1.4992 -0.0765
   30DOPE  H12S 3804   1.449   7.310   5.303  0.7399  0.2926  1.9628
   30DOPE  C213 3805   1.332   7.186   5.154 -0.2635  0.0347  0.3546
   30DOPE  H13R 3806   1.237   7.243   5.150  1.5109  3.3949  2.2176
   30DOPE  H13S 3807   1.306   7.078   5.162 -1.0680  0.3302  2.3411
   30DOPE  C214 3808   1.412   7.218   5.035  0.2654  0.1381  0.4988
   30DOPE  H14R 3809   1.503   7.154   5.028  1.0023  1.0864  1.0735
   30DOPE  H14S 3810   1.446   7.322   5.055  1.3699 -0.5591  2.5792
   30DOPE  C215 3811   1.325   7.208   4.904 -0.3764 -0.0987 -0.2265
   30DOPE  H15R 3812   1.249   7.290   4.900 -1.5535 -1.1912 -0.8891
   30DOPE  H15S 3813   1.267   7.113   4.908 -0.7821  0.1775  1.1674
   30DOPE  C216 3814   1.392   7.207   4.765 -0.2161 -0.0415 -0.9083
   30DOPE  H16R 3815   1.317   7.212   4.684  2.0340  1.3921 -3.0119
   30DOPE  H16S 3816   1.448   7.111   4.760 -0.1593 -0.1514  0.9988
   30DOPE  C217 3817   1.480   7.330   4.741 -0.1350 -1.1662 -0.0569
   30DOPE  H17R 3818   1.564   7.332   4.814 -1.7196 -1.2151  1.8337
   30DOPE  H17S 3819   1.422   7.416   4.782 -0.0330 -0.9431 -0.3720
   30DOPE  C218 3820   1.527   7.354   4.600 -0.1705  0.2000  1.0635
   30DOPE  H18R 3821   1.570   7.455   4.589 -1.1779  0.4834 -0.7118
   30DOPE  H18S 3822   1.446   7.348   4.524  2.1267 -1.7077 -1.4216
   30DOPE  H18T 3823   1.606   7.281   4.575 -1.0562 -0.1042 -1.0617
   30DOPE   C33 3824   1.911   7.285   6.178  0.8927 -0.6896 -0.3119
   30DOPE   H3X 3825   1.841   7.200   6.184 -0.3293  0.2122 -1.2703
   30DOPE   H3Y 3826   1.968   7.262   6.085  0.0044 -0.2833 -0.9726
   30DOPE   C34 3827   1.834   7.424   6.164 -0.4311  0.6435 -1.0208
   30DOPE   H4X 3828   1.741   7.414   6.224  0.0784 -0.5029 -0.3847
   30DOPE   H4Y 3829   1.902   7.503   6.201  0.2871 -0.7796  0.8774
   30DOPE   C35 3830   1.807   7.463   6.017  0.1104  0.5264 -0.4022
   30DOPE   H5X 3831   1.758   7.387   5.953 -0.2490 -0.5050  1.0182
   30DOPE   H5Y 3832   1.900   7.491   5.964  0.0709 -0.4246 -1.0007
   30DOPE   C36 3833   1.730   7.600   6.010 -0.3562  0.8997  0.4064
   30DOPE   H6X 3834   1.810   7.666   6.049  0.9815 -0.5120  0.1311
   30DOPE   H6Y 3835   1.640   7.610   6.075  0.0711  0.1890  1.1331
   30DOPE   C37 3836   1.710   7.645   5.866  0.0739 -0.6287  0.7240
   30DOPE   H7X 3837   1.684   7.754   5.864  2.4982  0.0394  2.1182
   30DOPE   H7Y 3838   1.805   7.629   5.811 -0.9796  0.1330 -1.4665
   30DOPE   C38 3839   1.597   7.571   5.792  0.7356  1.3103 -0.2576
   30DOPE   H8X 3840   1.594   7.465   5.826 -1.3468  1.2365 -0.5637
   30DOPE   H8Y 3841   1.624   7.573   5.685 -2.7256 -0.0546 -1.3086
   30DOPE   C39 3842   1.459   7.624   5.803 -0.2684  0.6809  0.0735
   30DOPE   H9X 3843   1.415   7.617   5.904 -0.8009  2.8524  0.0427
   30DOPE  C310 3844   1.403   7.705   5.715 -0.5979 -0.6536 -0.1419
   30DOPE  H10X 3845   1.300   7.741   5.728 -1.3807 -2.9212  0.3380
   30DOPE  C311 3846   1.463   7.754   5.586 -0.9008 -0.7335 -0.4586
   30DOPE  H11X 3847   1.420   7.854   5.560  0.3192  0.1985  0.9475
   30DOPE  H11Y 3848   1.570   7.784   5.596 -0.9475  0.7301 -3.1790
   30DOPE  C312 3849   1.444   7.672   5.453 -0.0109  0.0038  0.2503
   30DOPE  H12X 3850   1.335   7.655   5.441  0.1079 -0.8479  0.2906
   30DOPE  H12Y 3851   1.487   7.571   5.471 -0.6427 -0.6073 -1.4407
   30DOPE  C313 3852   1.505   7.739   5.336  1.0727 -0.8299  0.3021
   30DOPE  H13X 3853   1.462   7.838   5.312  1.2852 -0.2972  1.9719
   30DOPE  H13Y 3854   1.615   7.753   5.340  1.4454 -0.3763 -5.0080
   30DOPE  C314 3855   1.491   7.644   5.220  0.1456  0.2241  0.0052
   30DOPE  H14X 3856   1.383   7.643   5.192  0.2209 -1.5470 -0.3748
   30DOPE  H14Y 3857   1.524   7.541   5.246 -4.2043 -1.3007  0.4234
   30DOPE  C315 3858   1.567   7.697   5.101 -0.0403 -0.7220  0.1539
   30DOPE  H15X 3859   1.672   7.723   5.126 -0.0118 -0.8259  0.1428
   30DOPE  H15Y 3860   1.512   7.786   5.063  0.1564 -1.2522 -1.4372
   30DOPE  C316 3861   1.557   7.599   4.987 -0.2908  0.3373  0.0798
   30DOPE  H16X 3862   1.449   7.577   4.972 -0.5374  0.3838  1.5895
   30DOPE  H16Y 3863   1.614   7.506   5.007 -0.0292  0.3700 -0.4991
   30DOPE  C317 3864   1.605   7.669   4.864  0.1837 -0.0783  0.0855
   30DOPE  H17X 3865   1.582   7.618   4.768  1.4272  1.2882 -0.9688
   30DOPE  H17Y 3866   1.569   7.774   4.861  1.4159  0.3488  0.0280
   30DOPE  C318 3867   1.756   7.672   4.841 -0.0295  0.1744  0.3392
   30DOPE  H18X 3868   1.805   7.722   4.927 -0.9683  0.5095  0.6920
   30DOPE  H18Y 3869   1.789   7.567   4.823 -0.7767  0.3010 -2.1085
   30DOPE  H18Z 3870   1.788   7.721   4.747  1.8714 -2.4980 -0.5313
   31DOPE     N 3871   2.899   3.079   3.317 -1.1436  0.3621  0.7061
   31DOPE   HN1 3872   2.983   3.073   3.377 -0.3551  0.2698 -0.3705
   31DOPE   HN2 3873   2.815   3.094   3.378 -0.7716 -1.0728  1.5920
   31DOPE   HN3 3874   2.878   2.990   3.268 -0.5745  0.8212 -0.4297
   31DOPE   C12 3875   2.923   3.191   3.222 -0.7329 -0.8419  0.7174
   31DOPE  H12A 3876   2.884   3.283   3.271  1.4727 -0.0613  1.1068
   31DOPE  H12B 3877   2.860   3.174   3.132  0.8418 -0.8763 -0.4283
   31DOPE   C11 3878   3.070   3.200   3.182  0.0774 -1.0090  0.1669
   31DOPE  H11A 3879   3.133   3.231   3.269 -0.7966 -1.2971  0.9195
   31DOPE  H11B 3880   3.082   3.283   3.110 -0.3622 -0.1349  1.0790
   31DOPE     P 3881   3.252   3.045   3.075 -0.2320  0.3728  0.0917
   31DOPE   O13 3882   3.286   3.127   2.954 -0.4150  0.9283 -0.2321
   31DOPE   O14 3883   3.277   2.900   3.050  0.0498  0.1986 -0.0342
   31DOPE   O11 3884   3.348   3.100   3.191  0.5071 -0.0876  0.8700
   31DOPE   O12 3885   3.106   3.077   3.122  0.3182 -0.2584 -0.2193
   31DOPE    C1 3886   3.368   3.025   3.307 -0.2214  1.0012  0.0915
   31DOPE    HA 3887   3.428   2.938   3.274 -0.5803  0.3503  1.1096
   31DOPE    HB 3888   3.278   2.963   3.328  0.3417 -0.1975 -0.8880
   31DOPE    C2 3889   3.439   3.087   3.428 -0.2237  0.0656 -0.2680
   31DOPE    HS 3890   3.541   3.123   3.402 -1.0082  1.1692 -2.0256
   31DOPE   O21 3891   3.441   2.997   3.545  0.3940 -0.5568  0.2451
   31DOPE   C21 3892   3.521   2.900   3.521  0.3378 -1.0515 -0.1660
   31DOPE   O22 3893   3.596   2.880   3.425 -0.2256  0.1270  0.3678
   31DOPE   C22 3894   3.510   2.803   3.635 -0.1674 -0.1757  0.3404
   31DOPE   H2R 3895   3.593   2.732   3.615 -1.4827 -1.2961 -1.4725
   31DOPE   H2S 3896   3.414   2.747   3.635 -0.0974 -0.2951  0.1679
   31DOPE    C3 3897   3.375   3.226   3.460 -0.5852  0.7353  0.4639
   31DOPE    HX 3898   3.268   3.197   3.467  0.0730 -3.4042 -2.5559
   31DOPE    HY 3899   3.387   3.289   3.369  0.0371  0.3878  0.2953
   31DOPE   O31 3900   3.423   3.289   3.575 -0.4866 -0.3011  0.3853
   31DOPE   C31 3901   3.341   3.376   3.640 -0.3305 -0.1269  1.0320
   31DOPE   O32 3902   3.223   3.388   3.613  0.0767  0.1079  0.0169
   31DOPE   C32 3903   3.409   3.427   3.765 -0.3707 -0.3094 -0.4965
   31DOPE   H2X 3904   3.407   3.348   3.843 -1.1871 -0.4635 -0.6654
   31DOPE   H2Y 3905   3.518   3.433   3.744 -0.8431  1.6591 -2.7691
   31DOPE   C23 3906   3.537   2.862   3.769 -0.0922  0.4268 -1.0476
   31DOPE   H3R 3907   3.485   2.959   3.786  1.0570  0.9383 -0.3085
   31DOPE   H3S 3908   3.643   2.885   3.790 -1.3833  4.2602  2.7358
   31DOPE   C24 3909   3.488   2.771   3.883  0.5372 -0.1194 -0.3794
   31DOPE   H4R 3910   3.537   2.672   3.866 -1.2435 -0.9404 -1.0144
   31DOPE   H4S 3911   3.377   2.759   3.878  0.4972 -0.0255  0.2519
   31DOPE   C25 3912   3.543   2.812   4.024 -0.1864 -0.1763  0.4123
   31DOPE   H5R 3913   3.515   2.916   4.049 -0.4779 -0.4980  1.5117
   31DOPE   H5S 3914   3.653   2.800   4.019 -0.3355 -1.3348 -0.6122
   31DOPE   C26 3915   3.503   2.724   4.143  0.3639 -0.0647 -0.1857
   31DOPE   H6R 3916   3.546   2.625   4.115 -2.7682 -0.9116 -2.6255
   31DOPE   H6S 3917   3.392   2.719   4.145  0.3585 -0.1492 -0.6200
   31DOPE   C27 3918   3.582   2.761   4.268 -0.0288 -0.2687  0.3284
   31DOPE   H7R 3919   3.589   2.871   4.282  2.2650 -0.4860  1.1537
   31DOPE   H7S 3920   3.687   2.730   4.251  0.1957  1.5552 -2.2190
   31DOPE   C28 3921   3.524   2.699   4.398  0.0184  0.1390 -0.2985
   31DOPE   H8R 3922   3.550   2.591   4.401 -1.0545 -0.1073  1.4306
   31DOPE   H8S 3923   3.414   2.711   4.401 -0.0972 -0.7345 -0.9368
   31DOPE   C29 3924   3.581   2.763   4.522  0.1710 -0.1613 -0.0190
   31DOPE   H9R 3925   3.528   2.859   4.533  0.4344 -0.1492  1.3179
   31DOPE  C210 3926   3.666   2.713   4.613  0.0696 -0.1326  0.6829
   31DOPE  H10R 3927   3.701   2.768   4.701  0.1569  2.4536 -0.8684
   31DOPE  C211 3928   3.724   2.577   4.611  0.3612 -0.5247  0.8428
   31DOPE  H11R 3929   3.800   2.580   4.530 -0.4836 -1.0250  0.0089
   31DOPE  H11S 3930   3.652   2.497   4.580  0.7410 -0.9349  1.0057
   31DOPE  C212 3931   3.792   2.532   4.739 -0.0672 -1.2253 -0.2596
   31DOPE  H12R 3932   3.822   2.425   4.734 -0.2019 -1.2571 -0.3714
   31DOPE  H12S 3933   3.721   2.549   4.822  1.2201  2.5024  0.2933
   31DOPE  C213 3934   3.916   2.611   4.782 -0.2511 -0.6773  0.1551
   31DOPE  H13R 3935   3.896   2.715   4.816  1.6713 -0.1278 -0.2352
   31DOPE  H13S 3936   3.980   2.622   4.691  0.8748 -2.3608  0.6945
   31DOPE  C214 3937   4.005   2.547   4.887  0.1402 -0.1488  0.4132
   31DOPE  H14R 3938   4.038   2.452   4.838  0.0832 -0.0881  0.2552
   31DOPE  H14S 3939   3.939   2.511   4.969 -0.7792  2.2817  0.8007
   31DOPE  C215 3940   4.125   2.632   4.938  0.6854  0.1440  0.0566
   31DOPE  H15R 3941   4.088   2.729   4.976 -2.8481 -1.1494  0.2658
   31DOPE  H15S 3942   4.203   2.640   4.859  0.1188 -1.7671 -0.7690
   31DOPE  C216 3943   4.183   2.558   5.057  0.2641 -0.7461 -0.3989
   31DOPE  H16R 3944   4.251   2.479   5.019  1.1022 -0.3081  0.1613
   31DOPE  H16S 3945   4.115   2.507   5.129 -0.3168 -0.3373 -0.6509
   31DOPE  C217 3946   4.278   2.652   5.132  0.0622  0.2312 -0.0253
   31DOPE  H17R 3947   4.220   2.732   5.182 -1.0113 -0.5530  0.0260
   31DOPE  H17S 3948   4.347   2.707   5.064 -0.3106  3.3206  1.9175
   31DOPE  C218 3949   4.361   2.570   5.239  0.1773 -0.2890 -0.1155
   31DOPE  H18R 3950   4.299   2.493   5.289  1.0708 -0.3292  0.9493
   31DOPE  H18S 3951   4.407   2.635   5.316  2.4266 -1.4352 -0.4170
   31DOPE  H18T 3952   4.448   2.523   5.188 -1.5303 -1.0495 -2.5050
   31DOPE   C33 3953   3.348   3.555   3.813  0.7165  0.3957  0.6290
   31DOPE   H3X 3954   3.242   3.527   3.830  0.8480 -0.5011  0.0565
   31DOPE   H3Y 3955   3.342   3.634   3.736  0.1578  0.7942  1.0723
   31DOPE   C34 3956   3.407   3.614   3.943 -0.2234 -0.3186  0.4284
   31DOPE   H4X 3957   3.514   3.639   3.926 -0.7402  3.2997  1.4747
   31DOPE   H4Y 3958   3.365   3.717   3.951  2.7734  1.1716 -1.0132
   31DOPE   C35 3959   3.374   3.535   4.074  0.1286  0.3150  0.1448
   31DOPE   H5X 3960   3.419   3.436   4.053 -0.0209  0.3423 -0.3201
   31DOPE   H5Y 3961   3.263   3.534   4.083  0.0767 -0.0860 -0.4734
   31DOPE   C36 3962   3.429   3.602   4.198  0.3654 -0.2370  0.3014
   31DOPE   H6X 3963   3.386   3.702   4.218  0.8989  0.1332 -0.3386
   31DOPE   H6Y 3964   3.538   3.602   4.175  0.2103 -1.9915 -0.6151
   31DOPE   C37 3965   3.397   3.504   4.316 -0.1420 -0.6847  0.0724
   31DOPE   H7X 3966   3.291   3.473   4.315 -0.2671 -0.2705  0.4141
   31DOPE   H7Y 3967   3.453   3.411   4.291  0.2982 -0.1116 -1.1646
   31DOPE   C38 3968   3.443   3.551   4.455 -0.2976 -0.1977 -0.0631
   31DOPE   H8X 3969   3.420   3.462   4.518  2.8822 -0.9753  0.1982
   31DOPE   H8Y 3970   3.378   3.638   4.477 -1.5649 -0.8685 -0.9889
   31DOPE   C39 3971   3.593   3.587   4.480  0.3556  0.3829 -0.0388
   31DOPE   H9X 3972   3.665   3.516   4.438  0.0608  0.7976 -1.2785
   31DOPE  C310 3973   3.635   3.710   4.527 -0.1180  0.7432  0.7486
   31DOPE  H10X 3974   3.744   3.723   4.531  0.3275 -2.1569  0.7337
   31DOPE  C311 3975   3.549   3.821   4.579  0.1882  0.0741  0.5054
   31DOPE  H11X 3976   3.545   3.896   4.496  2.3143  0.1297  0.4025
   31DOPE  H11Y 3977   3.441   3.795   4.584  0.0493  0.0347 -1.5595
   31DOPE  C312 3978   3.589   3.873   4.721  0.4338  0.7252  0.1671
   31DOPE  H12X 3979   3.616   3.785   4.783 -0.2315  0.5420  0.2160
   31DOPE  H12Y 3980   3.498   3.919   4.766 -0.4798 -0.4652 -0.3848
   31DOPE  C313 3981   3.692   3.983   4.729  0.6790  0.0877 -0.0891
   31DOPE  H13X 3982   3.782   3.955   4.670  2.0501  0.6683  1.6421
   31DOPE  H13Y 3983   3.650   4.080   4.695 -1.3260  0.9375  4.1834
   31DOPE  C314 3984   3.731   4.004   4.879 -0.1796 -0.0875 -0.4050
   31DOPE  H14X 3985   3.743   3.911   4.939 -0.6495 -0.7425 -1.2926
   31DOPE  H14Y 3986   3.636   4.044   4.920  0.5346  1.2306  0.0195
   31DOPE  C315 3987   3.836   4.116   4.898  0.4942 -0.6065 -0.0547
   31DOPE  H15X 3988   3.822   4.190   4.817 -2.1584 -0.7716  0.1693
   31DOPE  H15Y 3989   3.941   4.080   4.898  0.4141 -0.8428 -0.9698
   31DOPE  C316 3990   3.815   4.183   5.036 -0.5101  0.2410  0.2243
   31DOPE  H16X 3991   3.806   4.102   5.111  0.1648  0.4962  0.5853
   31DOPE  H16Y 3992   3.716   4.235   5.038  0.2209  1.6705  0.8958
   31DOPE  C317 3993   3.933   4.277   5.075  0.2495 -0.3161 -0.3477
   31DOPE  H17X 3994   4.031   4.228   5.056 -0.2746 -1.1433 -1.0562
   31DOPE  H17Y 3995   3.931   4.367   5.010  2.1826  0.7362  0.9481
   31DOPE  C318 3996   3.927   4.339   5.215 -0.1675 -0.4053  0.1591
   31DOPE  H18X 3997   3.923   4.264   5.297  3.7639 -0.3555  0.5572
   31DOPE  H18Y 3998   4.023   4.389   5.235 -0.4613  0.0321  0.4885
   31DOPE  H18Z 3999   3.846   4.413   5.228 -0.3626 -0.5661 -0.1094
   32DOPE     N 4000   5.874   3.047   2.270 -0.1300  0.0098 -0.1913
   32DOPE   HN1 4001   5.953   2.979   2.276 -0.7650 -1.2022 -3.4712
   32DOPE   HN2 4002   5.801   3.017   2.339 -0.1432  0.7115  0.1083
   32DOPE   HN3 4003   5.830   3.031   2.177 -2.9953 -1.6316  1.2960
   32DOPE   C12 4004   5.921   3.184   2.286  0.3719 -0.2468  0.2637
   32DOPE  H12A 4005   5.833   3.251   2.293 -0.2071 -0.6686 -1.9896
   32DOPE  H12B 4006   5.970   3.219   2.192  1.5864  2.3516  1.7848
   32DOPE   C11 4007   6.002   3.194   2.411 -0.0578 -0.1365 -0.5498
   32DOPE  H11A 4008   6.051   3.294   2.412 -0.4086  0.1172 -2.9837
   32DOPE  H11B 4009   6.092   3.128   2.410 -1.0059 -1.6377  2.4267
   32DOPE     P 4010   5.994   3.146   2.661  0.5255  0.2907  0.3238
   32DOPE   O13 4011   6.076   3.263   2.705  0.5440 -0.3964 -0.1246
   32DOPE   O14 4012   6.074   3.021   2.645  0.0183  0.1325 -0.1435
   32DOPE   O11 4013   5.874   3.119   2.758 -0.2092 -1.0992 -0.2189
   32DOPE   O12 4014   5.914   3.176   2.524  0.1938  0.0616 -0.2463
   32DOPE    C1 4015   5.785   3.008   2.738  0.3863  0.1042  0.2283
   32DOPE    HA 4016   5.841   2.916   2.713  0.1311 -0.5489  1.9626
   32DOPE    HB 4017   5.714   3.026   2.654  1.9762  1.0249 -0.9750
   32DOPE    C2 4018   5.704   2.978   2.864 -0.4978 -0.0978 -0.7077
   32DOPE    HS 4019   5.623   3.054   2.875  0.5711  1.0235 -0.4692
   32DOPE   O21 4020   5.791   2.980   2.976 -0.3245  0.5348  0.4185
   32DOPE   C21 4021   5.818   3.109   3.022  0.8450  0.2565  0.7542
   32DOPE   O22 4022   5.748   3.210   2.993 -0.1639  0.3771  0.3593
   32DOPE   C22 4023   5.938   3.109   3.119 -0.4492 -1.0495 -0.0842
   32DOPE   H2R 4024   6.010   3.037   3.074  1.6897  0.7946  0.2069
   32DOPE   H2S 4025   5.904   3.078   3.220  1.3958 -2.0206  0.2931
   32DOPE    C3 4026   5.642   2.829   2.852  0.5655 -0.1620 -0.3626
   32DOPE    HX 4027   5.725   2.764   2.817  1.7486 -0.6851  3.0885
   32DOPE    HY 4028   5.560   2.837   2.777 -0.7565  1.0217  1.1364
   32DOPE   O31 4029   5.591   2.797   2.981 -0.2617 -0.2272  0.5110
   32DOPE   C31 4030   5.511   2.691   2.978 -0.1435  0.2676 -0.6859
   32DOPE   O32 4031   5.508   2.613   2.883 -0.1665 -0.0071  0.7696
   32DOPE   C32 4032   5.441   2.679   3.111 -0.2227 -0.1089 -0.5133
   32DOPE   H2X 4033   5.492   2.743   3.187  0.8831 -1.4127 -0.1165
   32DOPE   H2Y 4034   5.339   2.724   3.106 -0.0268  0.6961  1.5812
   32DOPE   C23 4035   6.017   3.248   3.124  0.5576 -0.2525 -0.3208
   32DOPE   H3R 4036   5.939   3.322   3.153  1.4196  0.2139  0.8690
   32DOPE   H3S 4037   6.063   3.293   3.033  0.5647  1.1623  0.3507
   32DOPE   C24 4038   6.129   3.254   3.236 -0.2936 -0.2198  0.5841
   32DOPE   H4R 4039   6.162   3.359   3.225  0.9102 -0.5689  0.7727
   32DOPE   H4S 4040   6.213   3.188   3.205 -0.5354  0.6576 -2.2113
   32DOPE   C25 4041   6.073   3.234   3.380  0.3911  0.5356  0.3819
   32DOPE   H5R 4042   6.038   3.130   3.398 -0.7743  1.4401  4.6036
   32DOPE   H5S 4043   5.983   3.297   3.395 -0.3795 -0.5886  0.5116
   32DOPE   C26 4044   6.188   3.263   3.480  0.3930 -0.2486  0.2717
   32DOPE   H6R 4045   6.204   3.372   3.469 -1.2951 -0.0403 -0.5090
   32DOPE   H6S 4046   6.280   3.205   3.458  1.7631  1.2446  1.7850
   32DOPE   C27 4047   6.138   3.252   3.630  0.5406  0.3989  0.4490
   32DOPE   H7R 4048   6.113   3.145   3.644  0.5420  0.2493 -0.6279
   32DOPE   H7S 4049   6.046   3.314   3.633  1.0004  1.1878 -0.8310
   32DOPE   C28 4050   6.235   3.303   3.736 -0.3469  0.3381  1.3992
   32DOPE   H8R 4051   6.259   3.410   3.716  1.4792 -0.1425  0.8241
   32DOPE   H8S 4052   6.328   3.242   3.733 -0.7883 -0.3673  1.6183
   32DOPE   C29 4053   6.156   3.285   3.861 -0.0140 -0.0989  0.3510
   32DOPE   H9R 4054   6.047   3.282   3.849  0.0337  2.3575 -1.3626
   32DOPE  C210 4055   6.208   3.254   3.984  0.6467  0.4399  0.1524
   32DOPE  H10R 4056   6.149   3.244   4.077  0.3461 -2.4759 -0.2764
   32DOPE  C211 4057   6.354   3.243   4.002  0.1112  0.8167 -0.4692
   32DOPE  H11R 4058   6.405   3.328   3.952  1.4595  1.3654  1.7002
   32DOPE  H11S 4059   6.382   3.145   3.958 -1.6524 -0.8906  1.9570
   32DOPE  C212 4060   6.408   3.255   4.146 -0.2180 -0.0362 -0.4245
   32DOPE  H12R 4061   6.365   3.182   4.217 -1.4886  1.7176  0.7021
   32DOPE  H12S 4062   6.384   3.356   4.186 -1.0775  0.1635 -1.3812
   32DOPE  C213 4063   6.562   3.236   4.151  0.5020  0.1048 -0.3121
   32DOPE  H13R 4064   6.591   3.276   4.250  1.0815  0.2824 -0.5481
   32DOPE  H13S 4065   6.609   3.303   4.075 -0.1426 -1.7222 -2.4374
   32DOPE  C214 4066   6.604   3.089   4.129 -0.7823 -0.6083 -0.3334
   32DOPE  H14R 4067   6.713   3.091   4.108 -0.6286 -0.9942  0.3625
   32DOPE  H14S 4068   6.537   3.042   4.054 -1.7819 -1.4987  1.0563
   32DOPE  C215 4069   6.589   3.004   4.261 -0.8284 -0.1516 -0.5003
   32DOPE  H15R 4070   6.600   2.897   4.232 -1.8596 -0.1112 -1.0806
   32DOPE  H15S 4071   6.492   3.015   4.316  0.1370 -0.4818  1.3532
   32DOPE  C216 4072   6.696   3.039   4.373 -0.0748 -0.6829  0.0838
   32DOPE  H16R 4073   6.676   3.146   4.389 -1.3604 -0.7097 -1.1209
   32DOPE  H16S 4074   6.802   3.032   4.340 -0.7658 -3.0602 -1.9380
   32DOPE  C217 4075   6.677   2.949   4.502  0.4878 -0.3106  0.1138
   32DOPE  H17R 4076   6.573   2.968   4.536  0.8452 -0.2730  1.2204
   32DOPE  H17S 4077   6.737   2.987   4.588 -0.3154 -1.8098  1.3928
   32DOPE  C218 4078   6.704   2.806   4.477 -0.1000 -0.0838  0.0103
   32DOPE  H18R 4079   6.731   2.749   4.569  1.4805 -2.1627 -1.6576
   32DOPE  H18S 4080   6.786   2.801   4.402 -1.0380 -0.7927 -0.9826
   32DOPE  H18T 4081   6.622   2.752   4.426  1.0886 -2.1317  0.1534
   32DOPE   C33 4082   5.426   2.529   3.160  0.5360  0.1727 -0.2828
   32DOPE   H3X 4083   5.523   2.476   3.146  1.1106  1.3997 -1.1106
   32DOPE   H3Y 4084   5.346   2.479   3.103 -0.5641  1.4873  0.0610
   32DOPE   C34 4085   5.394   2.522   3.310 -0.1975  0.1800  0.0663
   32DOPE   H4X 4086   5.424   2.422   3.348  0.7742  1.3158  2.4869
   32DOPE   H4Y 4087   5.470   2.571   3.374  1.3895 -3.6261  1.4095
   32DOPE   C35 4088   5.253   2.548   3.355  0.1057  0.2032 -0.6050
   32DOPE   H5X 4089   5.184   2.466   3.328  1.2134 -2.5626  3.9502
   32DOPE   H5Y 4090   5.214   2.639   3.303 -2.6019 -0.5952 -0.1069
   32DOPE   C36 4091   5.253   2.563   3.508 -0.0373 -0.5576  0.2342
   32DOPE   H6X 4092   5.316   2.653   3.521 -0.6529  0.0501 -0.8774
   32DOPE   H6Y 4093   5.307   2.483   3.563  2.1661  1.8293  1.7826
   32DOPE   C37 4094   5.114   2.591   3.573  0.7578  1.0422  0.2175
   32DOPE   H7X 4095   5.122   2.594   3.683  2.0788 -0.0592  0.1830
   32DOPE   H7Y 4096   5.078   2.688   3.532 -0.7782 -0.1319 -1.4162
   32DOPE   C38 4097   4.989   2.498   3.538  0.0181 -0.2900 -0.6023
   32DOPE   H8X 4098   5.018   2.390   3.536  0.5207 -0.1508 -1.4541
   32DOPE   H8Y 4099   4.966   2.515   3.430 -1.1489  1.9047 -0.0624
   32DOPE   C39 4100   4.875   2.538   3.623 -0.9604  0.2976 -0.7301
   32DOPE   H9X 4101   4.785   2.587   3.582 -1.6599  0.7854  1.2618
   32DOPE  C310 4102   4.862   2.502   3.751 -0.1721  0.5203  0.3761
   32DOPE  H10X 4103   4.772   2.536   3.805 -0.2291 -1.1440  1.4044
   32DOPE  C311 4104   4.964   2.446   3.841 -0.1594 -0.0261  0.4704
   32DOPE  H11X 4105   4.930   2.352   3.889  0.0579  0.7365  2.1957
   32DOPE  H11Y 4106   5.058   2.425   3.785  1.7502  1.1833  3.0525
   32DOPE  C312 4107   5.009   2.530   3.966  0.2080  0.4109  0.0333
   32DOPE  H12X 4108   4.924   2.578   4.018 -1.1548  0.6340 -2.2373
   32DOPE  H12Y 4109   5.082   2.603   3.925  0.3634  0.4900  0.4469
   32DOPE  C313 4110   5.077   2.446   4.074 -0.3678  0.5885  0.1836
   32DOPE  H13X 4111   5.024   2.349   4.075  0.1099  0.0322 -4.3382
   32DOPE  H13Y 4112   5.184   2.428   4.047 -0.2274 -0.6965  1.4723
   32DOPE  C314 4113   5.055   2.516   4.214  0.1912 -0.1582 -0.0003
   32DOPE  H14X 4114   4.945   2.527   4.216  0.3349  1.8199  2.6575
   32DOPE  H14Y 4115   5.116   2.609   4.218  0.0307 -0.0867  2.2188
   32DOPE  C315 4116   5.089   2.432   4.334 -0.6636  0.8896 -0.0091
   32DOPE  H15X 4117   5.192   2.391   4.323 -1.4854 -0.8066 -2.0240
   32DOPE  H15Y 4118   5.009   2.356   4.346 -1.2963  1.7874  1.9983
   32DOPE  C316 4119   5.092   2.516   4.460 -0.4153 -0.7025 -0.3890
   32DOPE  H16X 4120   4.993   2.565   4.473  0.3065  2.1403 -3.8490
   32DOPE  H16Y 4121   5.172   2.592   4.449 -1.9728  0.8716 -1.4845
   32DOPE  C317 4122   5.103   2.440   4.592  0.1147 -0.1832 -0.6666
   32DOPE  H17X 4123   5.015   2.376   4.612 -0.0172  0.1378 -0.1947
   32DOPE  H17Y 4124   5.195   2.377   4.587 -0.6039 -1.2500 -0.6735
   32DOPE  C318 4125   5.124   2.529   4.712 -0.2500 -0.4986 -0.9285
   32DOPE  H18X 4126   5.206   2.600   4.689  0.2780 -0.8681 -0.2372
   32DOPE  H18Y 4127   5.030   2.583   4.735 -1.5845 -1.7525 -3.0141
   32DOPE  H18Z 4128   5.150   2.479   4.808 -0.5687 -0.1929 -0.6814
   33DOPE     N 4129   3.471   2.991   2.803 -0.2886 -0.2994  0.5714
   33DOPE   HN1 4130   3.415   3.050   2.867  0.0321 -0.5173  1.0651
   33DOPE   HN2 4131   3.513   3.050   2.729  0.3014  0.9158  1.8199
   33DOPE   HN3 4132   3.409   2.914   2.771 -1.0448  1.5221 -2.7516
   33DOPE   C12 4133   3.596   2.954   2.884 -0.4691  0.2724 -0.5357
   33DOPE  H12A 4134   3.667   2.896   2.821  0.5360 -0.6485  1.3510
   33DOPE  H12B 4135   3.553   2.885   2.960 -0.7313 -1.1168 -1.8994
   33DOPE   C11 4136   3.662   3.081   2.948  0.0853 -0.4745 -0.6223
   33DOPE  H11A 4137   3.746   3.044   3.011  0.8943  1.7301 -0.3275
   33DOPE  H11B 4138   3.592   3.129   3.021  1.0966  0.5075 -0.2727
   33DOPE     P 4139   3.733   3.328   2.886 -0.1906  0.3080  0.5069
   33DOPE   O13 4140   3.606   3.389   2.930 -0.1066 -0.0157 -0.1066
   33DOPE   O14 4141   3.799   3.398   2.773  1.0442  0.4576 -0.4337
   33DOPE   O11 4142   3.833   3.323   3.007 -0.4827 -0.2024 -0.2868
   33DOPE   O12 4143   3.703   3.182   2.852  0.8755  0.9648 -0.4831
   33DOPE    C1 4144   3.972   3.298   2.984 -1.1340  0.5248 -0.0619
   33DOPE    HA 4145   4.025   3.396   2.990  0.9177 -0.4912 -0.7349
   33DOPE    HB 4146   3.984   3.251   2.884  0.4516 -2.7050  1.4990
   33DOPE    C2 4147   4.018   3.193   3.084  0.3021  0.3575 -0.3292
   33DOPE    HS 4148   3.959   3.104   3.055  1.6401 -0.6933  0.0501
   33DOPE   O21 4149   3.986   3.237   3.215  0.6442 -0.4172 -0.2961
   33DOPE   C21 4150   3.930   3.149   3.300  0.5030 -0.7554  1.0243
   33DOPE   O22 4151   3.858   3.059   3.262  0.4308 -0.1582 -0.0287
   33DOPE   C22 4152   3.956   3.190   3.447  0.1101  0.3661  0.5588
   33DOPE   H2R 4153   3.987   3.295   3.466 -0.8140  0.7058  0.2391
   33DOPE   H2S 4154   4.040   3.123   3.476  1.2681  2.0149  1.1398
   33DOPE    C3 4155   4.166   3.152   3.077 -0.3290 -0.2234  0.1555
   33DOPE    HX 4156   4.223   3.244   3.102 -1.1615  0.0695  1.0514
   33DOPE    HY 4157   4.195   3.121   2.974 -2.9532 -0.1487 -0.6711
   33DOPE   O31 4158   4.194   3.037   3.163 -0.3406 -0.4036 -0.7103
   33DOPE   C31 4159   4.314   3.027   3.219 -0.6290 -0.5033  0.1097
   33DOPE   O32 4160   4.408   3.099   3.190  0.5100 -0.2873  0.1025
   33DOPE   C32 4161   4.305   2.947   3.352  0.5493 -0.2272 -0.0930
   33DOPE   H2X 4162   4.222   2.982   3.418  1.3726  0.9407  0.3718
   33DOPE   H2Y 4163   4.290   2.841   3.324  0.1906  0.3291 -2.1737
   33DOPE   C23 4164   3.821   3.161   3.514 -0.3011  0.4788  0.1381
   33DOPE   H3R 4165   3.800   3.052   3.500 -0.4506  0.5149  0.0773
   33DOPE   H3S 4166   3.734   3.217   3.475 -0.8565 -1.3324 -1.3745
   33DOPE   C24 4167   3.836   3.179   3.663  0.0890  1.7000 -0.1401
   33DOPE   H4R 4168   3.898   3.267   3.688  1.0593  0.6953  1.1360
   33DOPE   H4S 4169   3.890   3.089   3.699 -0.2679  1.3509 -0.4711
   33DOPE   C25 4170   3.708   3.180   3.747  0.4696 -0.6566 -0.2094
   33DOPE   H5R 4171   3.638   3.097   3.723 -1.0141 -0.1566  2.1255
   33DOPE   H5S 4172   3.653   3.274   3.725  1.2101  0.2484  1.5958
   33DOPE   C26 4173   3.738   3.180   3.898 -0.0585  0.4620 -0.6283
   33DOPE   H6R 4174   3.818   3.250   3.929  1.5099 -0.7384 -1.8321
   33DOPE   H6S 4175   3.764   3.077   3.930 -1.8030  0.9290  2.7662
   33DOPE   C27 4176   3.614   3.201   3.984  0.0427 -0.2269 -0.4529
   33DOPE   H7R 4177   3.527   3.139   3.952  0.0654 -0.7864  0.5321
   33DOPE   H7S 4178   3.580   3.304   3.959 -1.3566 -0.5040  0.2094
   33DOPE   C28 4179   3.628   3.177   4.132  0.3378 -0.0384 -0.6980
   33DOPE   H8R 4180   3.647   3.067   4.135 -0.2200 -0.1229  0.5210
   33DOPE   H8S 4181   3.533   3.185   4.189 -0.2488 -2.1564 -1.2649
   33DOPE   C29 4182   3.743   3.243   4.203 -0.5754 -0.2401  0.3969
   33DOPE   H9R 4183   3.827   3.280   4.143 -1.0793  0.4976  0.1324
   33DOPE  C210 4184   3.768   3.261   4.332  0.3695 -0.6114 -0.0670
   33DOPE  H10R 4185   3.859   3.306   4.373  0.3148  0.9335 -1.5210
   33DOPE  C211 4186   3.664   3.224   4.429  0.0479  0.0895  0.1599
   33DOPE  H11R 4187   3.616   3.124   4.423 -0.9016  0.3997  1.7894
   33DOPE  H11S 4188   3.581   3.295   4.448 -1.7169 -1.4977 -1.1837
   33DOPE  C212 4189   3.729   3.199   4.570  0.3884 -0.0859 -0.0501
   33DOPE  H12R 4190   3.642   3.161   4.628  1.5943 -1.1420  1.1263
   33DOPE  H12S 4191   3.765   3.290   4.621  0.5208  0.5175 -1.1846
   33DOPE  C213 4192   3.821   3.081   4.585 -0.5756 -0.0174  0.1285
   33DOPE  H13R 4193   3.913   3.105   4.528 -3.2196  2.3232 -3.5640
   33DOPE  H13S 4194   3.770   2.995   4.538 -1.8058  0.2347  0.9752
   33DOPE  C214 4195   3.848   3.051   4.733  0.1307  0.6028 -0.6220
   33DOPE  H14R 4196   3.925   2.971   4.731  0.2693  0.7529 -1.5910
   33DOPE  H14S 4197   3.755   3.004   4.773  0.6222 -0.3657 -0.5852
   33DOPE  C215 4198   3.897   3.169   4.819  0.0569  0.0116  0.5841
   33DOPE  H15R 4199   3.830   3.257   4.814  1.2898  0.9113 -1.4988
   33DOPE  H15S 4200   3.992   3.196   4.767  0.5827  0.6659  1.8222
   33DOPE  C216 4201   3.936   3.126   4.969 -0.6162  0.2283  0.3977
   33DOPE  H16R 4202   3.848   3.066   5.003 -0.6833  0.3901  0.5101
   33DOPE  H16S 4203   3.954   3.217   5.030  0.9803  1.3915 -1.6889
   33DOPE  C217 4204   4.059   3.038   4.987 -0.6723 -0.2579  0.2732
   33DOPE  H17R 4205   4.058   2.945   4.925  2.5137  0.8530 -1.6824
   33DOPE  H17S 4206   4.065   3.017   5.096  0.4933  0.6369  0.3925
   33DOPE  C218 4207   4.179   3.126   4.946  0.4488  0.2817  0.0358
   33DOPE  H18R 4208   4.176   3.128   4.835  0.0719 -1.6652 -0.0329
   33DOPE  H18S 4209   4.276   3.076   4.966  0.5838  0.3933 -0.3254
   33DOPE  H18T 4210   4.169   3.220   5.005  2.6851  0.1471  0.7298
   33DOPE   C33 4211   4.442   2.960   3.425  0.1719  0.3680 -0.3556
   33DOPE   H3X 4212   4.485   3.062   3.421  1.7087 -0.2977 -1.5091
   33DOPE   H3Y 4213   4.524   2.897   3.384  1.7686  1.4028  1.1065
   33DOPE   C34 4214   4.428   2.911   3.573  0.0363  0.2465  0.1029
   33DOPE   H4X 4215   4.342   2.965   3.617 -0.4669  0.4538 -1.1115
   33DOPE   H4Y 4216   4.393   2.806   3.557  0.6855 -0.3098  1.9879
   33DOPE   C35 4217   4.549   2.921   3.650 -0.0024  0.0363  0.2512
   33DOPE   H5X 4218   4.615   3.008   3.628  0.3671 -0.5791 -1.2416
   33DOPE   H5Y 4219   4.610   2.830   3.633  0.1940  0.1403  0.3959
   33DOPE   C36 4220   4.523   2.925   3.801  0.3859  0.5057  0.5083
   33DOPE   H6X 4221   4.458   2.840   3.830  0.8907  0.3549  1.2245
   33DOPE   H6Y 4222   4.475   3.022   3.828 -3.6171 -0.5811 -1.9295
   33DOPE   C37 4223   4.643   2.900   3.892  0.2654 -0.0027  0.3271
   33DOPE   H7X 4224   4.667   2.792   3.887 -1.3109 -0.3329 -0.7983
   33DOPE   H7Y 4225   4.738   2.943   3.852  0.5558 -1.6196 -0.8235
   33DOPE   C38 4226   4.613   2.944   4.037 -0.9402 -0.5522  0.2061
   33DOPE   H8X 4227   4.521   2.889   4.066 -0.7334 -1.4332 -0.7295
   33DOPE   H8Y 4228   4.597   3.054   4.041 -3.3172 -0.8056 -0.6140
   33DOPE   C39 4229   4.727   2.908   4.126 -0.1470 -0.0542 -0.6554
   33DOPE   H9X 4230   4.787   2.827   4.081 -1.8215 -0.2966 -2.6078
   33DOPE  C310 4231   4.745   2.947   4.250 -0.0416 -0.2484 -0.3093
   33DOPE  H10X 4232   4.837   2.906   4.294 -0.1274  0.5554  0.6398
   33DOPE  C311 4233   4.672   3.058   4.325 -0.0250 -0.7459 -0.3030
   33DOPE  H11X 4234   4.742   3.136   4.363 -2.1201  1.1998 -0.2416
   33DOPE  H11Y 4235   4.595   3.112   4.266  0.5243  0.9093  0.4148
   33DOPE  C312 4236   4.616   3.014   4.463 -0.5946 -0.0413  0.2000
   33DOPE  H12X 4237   4.566   2.916   4.447  0.1217 -0.2695 -0.7678
   33DOPE  H12Y 4238   4.537   3.088   4.487 -1.2934 -1.6261  3.2421
   33DOPE  C313 4239   4.729   2.999   4.575  0.3231 -0.3915  0.1321
   33DOPE  H13X 4240   4.784   2.903   4.569  1.0467  0.0273 -0.0902
   33DOPE  H13Y 4241   4.800   3.083   4.563 -0.2681  0.0660 -0.2551
   33DOPE  C314 4242   4.665   2.996   4.717 -0.1642  0.2950  0.0983
   33DOPE  H14X 4243   4.580   3.068   4.718  0.1639  0.7196 -0.9583
   33DOPE  H14Y 4244   4.736   3.037   4.792 -1.5777 -3.1876  3.7406
   33DOPE  C315 4245   4.624   2.856   4.766  0.3228 -0.5126 -0.1769
   33DOPE  H15X 4246   4.711   2.803   4.811 -0.1344 -1.1461 -0.0129
   33DOPE  H15Y 4247   4.589   2.800   4.677  0.8216 -1.8169  0.4145
   33DOPE  C316 4248   4.517   2.877   4.877 -0.2228 -0.0449 -0.4354
   33DOPE  H16X 4249   4.465   2.780   4.897  2.1305 -0.9721  1.5591
   33DOPE  H16Y 4250   4.435   2.942   4.841 -1.6411 -0.6799  1.4613
   33DOPE  C317 4251   4.581   2.914   5.015  0.1845 -0.5050 -0.2925
   33DOPE  H17X 4252   4.646   3.001   4.990 -1.4487  0.9656  0.3437
   33DOPE  H17Y 4253   4.502   2.963   5.077 -2.3460 -1.5657 -2.4690
   33DOPE  C318 4254   4.638   2.797   5.098  0.0977 -0.4389  0.5802
   33DOPE  H18X 4255   4.678   2.833   5.194 -0.6619  1.7692  0.1289
   33DOPE  H18Y 4256   4.557   2.722   5.114  0.6276 -1.6174 -1.7291
   33DOPE  H18Z 4257   4.710   2.736   5.040 -1.5306  0.2286 -2.3947
   34DOPE     N 4258   2.301   3.919   3.004  0.1972 -0.2963 -0.4026
   34DOPE   HN1 4259   2.365   3.913   3.085 -1.2272 -1.1855  0.7041
   34DOPE   HN2 4260   2.320   3.842   2.936  1.4008 -0.7687  0.4263
   34DOPE   HN3 4261   2.316   4.011   2.957  0.7997  0.5277  1.3165
   34DOPE   C12 4262   2.157   3.896   3.048  0.1498 -0.1252 -0.2752
   34DOPE  H12A 4263   2.111   3.835   2.967 -0.4972 -0.6055  0.4469
   34DOPE  H12B 4264   2.108   3.995   3.057 -4.0489 -1.8720 -1.4658
   34DOPE   C11 4265   2.157   3.828   3.193  0.3616 -0.2280  0.7083
   34DOPE  H11A 4266   2.051   3.808   3.219 -1.0048 -0.2994 -3.9229
   34DOPE  H11B 4267   2.188   3.896   3.275 -1.7517  0.2607  1.1716
   34DOPE     P 4268   2.190   3.574   3.151 -0.3700 -0.0593 -0.5598
   34DOPE   O13 4269   2.301   3.494   3.103  0.1213  0.3520 -0.0150
   34DOPE   O14 4270   2.069   3.585   3.067 -0.3837 -0.0503  0.1166
   34DOPE   O11 4271   2.148   3.512   3.294  0.2382  0.4163  0.3064
   34DOPE   O12 4272   2.237   3.714   3.198  0.0603 -0.0713  0.0054
   34DOPE    C1 4273   2.038   3.569   3.368  0.0168  0.3306  0.3494
   34DOPE    HA 4274   1.945   3.580   3.308  0.2626 -0.1346 -0.1209
   34DOPE    HB 4275   2.065   3.671   3.404 -1.5145  1.0613 -0.4568
   34DOPE    C2 4276   1.995   3.472   3.487 -0.2389  0.7732 -0.1699
   34DOPE    HS 4277   1.893   3.483   3.531 -0.4108 -0.9988 -0.0453
   34DOPE   O21 4278   2.099   3.484   3.589  0.5653  0.0596 -0.3892
   34DOPE   C21 4279   2.073   3.586   3.666 -0.5811  0.2045 -0.2089
   34DOPE   O22 4280   1.969   3.648   3.663  0.0607 -1.2247 -0.6202
   34DOPE   C22 4281   2.176   3.593   3.777  0.1376  0.2312  0.1250
   34DOPE   H2R 4282   2.276   3.562   3.740 -0.1282 -1.1192  0.4916
   34DOPE   H2S 4283   2.139   3.530   3.860 -0.3155 -1.5918 -1.4064
   34DOPE    C3 4284   1.995   3.320   3.443  0.3195 -0.6410 -0.2895
   34DOPE    HX 4285   2.095   3.300   3.398  1.0480  0.2403  0.9098
   34DOPE    HY 4286   1.917   3.308   3.364  0.2239  2.2442 -0.7315
   34DOPE   O31 4287   1.969   3.239   3.560  0.3804 -0.1484  0.4302
   34DOPE   C31 4288   2.075   3.188   3.618 -0.1238 -0.2493 -0.4141
   34DOPE   O32 4289   2.189   3.196   3.579  0.2153 -0.3967  0.4445
   34DOPE   C32 4290   2.034   3.137   3.760  0.3737  0.6387 -0.3084
   34DOPE   H2X 4291   1.924   3.131   3.774  0.3279  1.2621 -0.3934
   34DOPE   H2Y 4292   2.067   3.031   3.767  0.2806  0.6225 -0.1159
   34DOPE   C23 4293   2.190   3.744   3.824 -0.4867  0.1886  0.1221
   34DOPE   H3R 4294   2.093   3.768   3.874 -0.1603  1.9716 -0.0599
   34DOPE   H3S 4295   2.211   3.809   3.737 -2.7885 -0.8356 -1.2942
   34DOPE   C24 4296   2.291   3.775   3.939 -0.0101 -0.0804 -0.5691
   34DOPE   H4R 4297   2.264   3.881   3.960  0.4829 -0.5173  2.6507
   34DOPE   H4S 4298   2.399   3.759   3.915  1.0521  2.8701  1.6173
   34DOPE   C25 4299   2.271   3.696   4.074 -0.3589 -0.3144 -0.7448
   34DOPE   H5R 4300   2.238   3.591   4.065  0.8522 -0.8781  0.8572
   34DOPE   H5S 4301   2.216   3.751   4.153 -0.1446 -1.6630  0.3717
   34DOPE   C26 4302   2.407   3.684   4.157  0.5990 -0.0754 -0.1115
   34DOPE   H6R 4303   2.444   3.789   4.162 -2.0444  0.9462 -0.4146
   34DOPE   H6S 4304   2.473   3.615   4.101  0.0033  0.0889 -1.0402
   34DOPE   C27 4305   2.375   3.623   4.291  0.0296  0.0532 -0.5323
   34DOPE   H7R 4306   2.357   3.513   4.288  1.8120 -0.2648 -0.7529
   34DOPE   H7S 4307   2.281   3.676   4.320 -1.0369 -1.2125 -1.5374
   34DOPE   C28 4308   2.488   3.664   4.392 -0.2721 -0.1050 -0.1393
   34DOPE   H8R 4309   2.533   3.764   4.373  0.1960 -0.7732 -2.9777
   34DOPE   H8S 4310   2.571   3.590   4.382  0.0747  0.4125 -1.2639
   34DOPE   C29 4311   2.447   3.648   4.537 -0.1906 -0.0807 -1.3373
   34DOPE   H9R 4312   2.419   3.543   4.557 -1.1742  0.5507  0.8681
   34DOPE  C210 4313   2.455   3.747   4.630  0.6017 -0.2317 -0.1160
   34DOPE  H10R 4314   2.438   3.727   4.737  1.1443  0.5577  0.1293
   34DOPE  C211 4315   2.483   3.898   4.602  0.2107 -0.2183  0.3461
   34DOPE  H11R 4316   2.478   3.915   4.492 -3.4685  2.6472  0.7767
   34DOPE  H11S 4317   2.588   3.925   4.628  0.0199 -1.2577  2.3483
   34DOPE  C212 4318   2.379   3.999   4.661 -0.4782 -0.0840 -0.4639
   34DOPE  H12R 4319   2.422   4.033   4.758  1.1007 -1.7004 -0.5452
   34DOPE  H12S 4320   2.283   3.944   4.672 -0.1939 -0.6269 -0.6701
   34DOPE  C213 4321   2.358   4.121   4.571 -0.3466 -0.3584  0.5567
   34DOPE  H13R 4322   2.284   4.100   4.490 -0.6494  1.9765  0.1513
   34DOPE  H13S 4323   2.452   4.152   4.520 -0.8202 -1.9901 -1.4381
   34DOPE  C214 4324   2.283   4.234   4.646  0.2575 -0.5249 -0.7914
   34DOPE  H14R 4325   2.333   4.259   4.742  2.6632 -0.6131 -1.9474
   34DOPE  H14S 4326   2.179   4.206   4.674 -0.8504  2.9789 -1.0112
   34DOPE  C215 4327   2.259   4.356   4.562  1.1681 -0.0128  0.2609
   34DOPE  H15R 4328   2.226   4.325   4.461  0.9229 -1.2839  0.7143
   34DOPE  H15S 4329   2.354   4.410   4.544  1.6826 -1.0334 -0.1218
   34DOPE  C216 4330   2.153   4.452   4.616 -0.2676  0.1148  0.0970
   34DOPE  H16R 4331   2.068   4.398   4.662  0.9448 -1.3609  0.6907
   34DOPE  H16S 4332   2.112   4.523   4.541  1.2387  1.5737  0.5822
   34DOPE  C217 4333   2.190   4.564   4.718 -0.3647 -0.2468 -0.3634
   34DOPE  H17R 4334   2.278   4.614   4.673  0.3334  0.6841  1.8997
   34DOPE  H17S 4335   2.227   4.500   4.801 -1.1345 -1.7696 -1.1573
   34DOPE  C218 4336   2.086   4.661   4.768 -0.6339  0.0569 -0.5788
   34DOPE  H18R 4337   2.124   4.712   4.859  0.5589  0.8796 -1.5038
   34DOPE  H18S 4338   2.006   4.594   4.807  1.3295 -0.3450  3.3205
   34DOPE  H18T 4339   2.056   4.727   4.684  0.4032 -0.0133 -1.0219
   34DOPE   C33 4340   2.087   3.229   3.871  0.5137 -0.3505  0.1733
   34DOPE   H3X 4341   2.060   3.337   3.869 -0.5156 -0.5315  1.8947
   34DOPE   H3Y 4342   2.197   3.219   3.883  0.3303 -0.2434  2.5803
   34DOPE   C34 4343   2.034   3.187   4.007  0.1633  0.4456  0.5099
   34DOPE   H4X 4344   1.927   3.155   4.002  0.8728 -2.0163 -0.3102
   34DOPE   H4Y 4345   2.089   3.095   4.037  2.0075  1.0692 -0.8090
   34DOPE   C35 4346   2.044   3.294   4.115 -1.1396 -0.1738  0.0255
   34DOPE   H5X 4347   1.960   3.291   4.188 -0.2208  0.6428  1.1443
   34DOPE   H5Y 4348   2.039   3.393   4.065 -0.5415 -0.0167  0.2757
   34DOPE   C36 4349   2.170   3.299   4.190 -0.0827  0.3096 -0.3907
   34DOPE   H6X 4350   2.161   3.378   4.267  0.8031 -1.7142  1.9367
   34DOPE   H6Y 4351   2.254   3.324   4.122  0.7989 -0.0214  0.5415
   34DOPE   C37 4352   2.200   3.169   4.270 -0.1950  0.8985 -0.2526
   34DOPE   H7X 4353   2.103   3.165   4.324 -0.3712  0.7850 -0.5710
   34DOPE   H7Y 4354   2.217   3.082   4.203  2.4922  0.9116  0.3062
   34DOPE   C38 4355   2.321   3.176   4.363 -0.4553 -0.2923  0.1316
   34DOPE   H8X 4356   2.318   3.256   4.439  0.7243  0.2791 -0.4004
   34DOPE   H8Y 4357   2.400   3.207   4.292 -1.3291 -0.8172 -1.1134
   34DOPE   C39 4358   2.351   3.040   4.426 -0.3978  0.1262 -0.0980
   34DOPE   H9X 4359   2.309   2.956   4.368  0.1415  0.0061 -0.3197
   34DOPE  C310 4360   2.434   3.014   4.528  0.0548  0.0435  0.4247
   34DOPE  H10X 4361   2.454   2.911   4.558  2.3549  0.3465  0.0818
   34DOPE  C311 4362   2.496   3.125   4.616 -0.2950 -0.1570 -0.4443
   34DOPE  H11X 4363   2.600   3.100   4.646 -0.3001 -1.0402 -1.1228
   34DOPE  H11Y 4364   2.506   3.218   4.556 -0.1255 -0.9244 -1.6248
   34DOPE  C312 4365   2.425   3.169   4.747  0.2044  0.1663 -0.2392
   34DOPE  H12X 4366   2.444   3.093   4.826 -0.0582  0.3854  0.0371
   34DOPE  H12Y 4367   2.321   3.160   4.711  1.3725 -2.0995 -3.5085
   34DOPE  C313 4368   2.460   3.302   4.814 -0.2739  0.0737  0.4029
   34DOPE  H13X 4369   2.559   3.291   4.862 -0.1065  1.8628  0.5278
   34DOPE  H13Y 4370   2.480   3.387   4.745  4.4070 -1.7394 -0.8413
   34DOPE  C314 4371   2.347   3.353   4.897 -0.2152 -0.1487 -0.3094
   34DOPE  H14X 4372   2.329   3.300   4.993  0.4715  1.7955  0.9477
   34DOPE  H14Y 4373   2.253   3.363   4.839 -1.0066  2.4113  1.2825
   34DOPE  C315 4374   2.385   3.496   4.934  0.2584 -0.6105  0.6227
   34DOPE  H15X 4375   2.393   3.556   4.840 -3.2279 -0.8384  0.0700
   34DOPE  H15Y 4376   2.487   3.503   4.979  0.2798  2.7265  0.3118
   34DOPE  C316 4377   2.279   3.567   5.021 -0.0553 -0.6116  0.6309
   34DOPE  H16X 4378   2.183   3.548   4.969  0.5804  1.3557 -1.4535
   34DOPE  H16Y 4379   2.292   3.677   5.015 -1.2678 -0.3583  1.9961
   34DOPE  C317 4380   2.269   3.534   5.171  0.0222 -0.5298  0.1817
   34DOPE  H17X 4381   2.228   3.431   5.179 -0.1751 -0.3950  0.9433
   34DOPE  H17Y 4382   2.371   3.530   5.213 -0.5183 -2.6387  1.4317
   34DOPE  C318 4383   2.184   3.636   5.238  0.0039  0.2245  0.5847
   34DOPE  H18X 4384   2.091   3.653   5.180  0.1842  1.7008  0.6976
   34DOPE  H18Y 4385   2.162   3.601   5.341 -1.2145  1.0070  0.5962
   34DOPE  H18Z 4386   2.242   3.730   5.250  2.4414 -1.3755  2.6163
   35DOPE     N 4387   6.657   2.392   2.337 -0.5980  0.3447  0.3583
   35DOPE   HN1 4388   6.748   2.360   2.297 -0.5884  1.6058 -0.7037
   35DOPE   HN2 4389   6.637   2.314   2.403  1.1525 -0.5284 -0.0576
   35DOPE   HN3 4390   6.580   2.396   2.268  0.0152  0.0614 -0.3564
   35DOPE   C12 4391   6.674   2.518   2.411 -0.2517  0.1963  0.2922
   35DOPE  H12A 4392   6.697   2.591   2.331 -0.8282  0.6629  0.5442
   35DOPE  H12B 4393   6.759   2.507   2.482 -1.2605 -1.0561  1.3701
   35DOPE   C11 4394   6.549   2.553   2.493  0.2437  0.3417 -0.4876
   35DOPE  H11A 4395   6.569   2.650   2.543 -1.1609 -0.0616  0.9284
   35DOPE  H11B 4396   6.550   2.478   2.575 -3.0115  1.3546  0.6021
   35DOPE     P 4397   6.286   2.510   2.470  0.3023 -0.1560 -0.6172
   35DOPE   O13 4398   6.200   2.469   2.357 -0.5825 -0.3975  0.6289
   35DOPE   O14 4399   6.231   2.609   2.567  0.0357  0.3777  0.1854
   35DOPE   O11 4400   6.327   2.383   2.545 -0.0705  0.0276 -0.5888
   35DOPE   O12 4401   6.427   2.556   2.418 -0.2570 -0.1948  0.1484
   35DOPE    C1 4402   6.280   2.345   2.676  0.0583 -0.7978  0.1311
   35DOPE    HA 4403   6.275   2.234   2.668  1.1446 -1.0124  1.9738
   35DOPE    HB 4404   6.178   2.378   2.707 -0.2874 -0.8485 -0.8774
   35DOPE    C2 4405   6.378   2.387   2.785 -0.8021 -0.2531  0.7273
   35DOPE    HS 4406   6.478   2.370   2.740 -1.7027  0.5342 -1.7247
   35DOPE   O21 4407   6.351   2.305   2.898 -0.0884  0.0335  0.4400
   35DOPE   C21 4408   6.449   2.289   2.982  0.0480 -1.1069  0.1055
   35DOPE   O22 4409   6.563   2.329   2.967 -0.5740  0.3110  0.0416
   35DOPE   C22 4410   6.394   2.203   3.099 -0.0400 -0.9332 -0.4326
   35DOPE   H2R 4411   6.397   2.097   3.067 -1.2086 -1.1587  0.1477
   35DOPE   H2S 4412   6.289   2.230   3.127  0.7719  2.0737  0.0838
   35DOPE    C3 4413   6.375   2.533   2.823  0.2938  0.2692  0.0785
   35DOPE    HX 4414   6.270   2.544   2.858 -0.1096  3.8394 -1.7433
   35DOPE    HY 4415   6.389   2.589   2.728 -0.0427 -0.8925 -0.6658
   35DOPE   O31 4416   6.462   2.580   2.931 -0.2113  0.0926 -0.0181
   35DOPE   C31 4417   6.521   2.703   2.909  0.6818  0.2803  0.3678
   35DOPE   O32 4418   6.515   2.771   2.809  0.4092  0.6980  0.2573
   35DOPE   C32 4419   6.587   2.723   3.040 -0.1318  0.3796 -0.1944
   35DOPE   H2X 4420   6.640   2.629   3.062 -0.9399  0.1606  0.8856
   35DOPE   H2Y 4421   6.670   2.797   3.032 -0.1295  0.3331 -0.6757
   35DOPE   C23 4422   6.478   2.205   3.222  0.2399 -0.2385  1.1650
   35DOPE   H3R 4423   6.576   2.160   3.196  0.0108  0.5025 -1.1886
   35DOPE   H3S 4424   6.435   2.142   3.303 -0.1846 -1.0370  0.3262
   35DOPE   C24 4425   6.499   2.341   3.299  0.5593 -0.5006 -0.0524
   35DOPE   H4R 4426   6.398   2.385   3.314  0.7524 -0.1729  0.3353
   35DOPE   H4S 4427   6.558   2.405   3.229 -0.3982 -0.0350 -0.4437
   35DOPE   C25 4428   6.571   2.335   3.432 -0.0067  0.0805  0.2567
   35DOPE   H5R 4429   6.667   2.281   3.421  0.7002  0.6967  2.7621
   35DOPE   H5S 4430   6.507   2.265   3.489 -1.1222 -0.2917 -1.3943
   35DOPE   C26 4431   6.601   2.476   3.489  0.0769  0.0936  0.3264
   35DOPE   H6R 4432   6.504   2.530   3.499  0.2626  0.3279  0.9461
   35DOPE   H6S 4433   6.666   2.522   3.412  2.2255 -2.6384  0.3532
   35DOPE   C27 4434   6.671   2.483   3.627  0.8106 -0.1342 -0.4018
   35DOPE   H7R 4435   6.778   2.455   3.616  0.4961 -1.3982 -0.3266
   35DOPE   H7S 4436   6.621   2.413   3.698 -1.7760  1.2996 -0.6682
   35DOPE   C28 4437   6.657   2.616   3.706 -0.1995 -0.5169 -0.7437
   35DOPE   H8R 4438   6.699   2.692   3.637  1.1437  1.5881  2.1850
   35DOPE   H8S 4439   6.732   2.616   3.788 -1.1407 -0.6948  0.1197
   35DOPE   C29 4440   6.517   2.643   3.758  0.7986 -0.3563 -0.3912
   35DOPE   H9R 4441   6.435   2.656   3.686  0.3235 -0.1034  0.1931
   35DOPE  C210 4442   6.489   2.650   3.894 -0.7950  0.2224  0.0903
   35DOPE  H10R 4443   6.388   2.680   3.924 -1.2722  1.9616 -2.8476
   35DOPE  C211 4444   6.589   2.634   4.004 -0.5273 -0.1045  0.1018
   35DOPE  H11R 4445   6.601   2.738   4.041  0.3570 -0.3029  0.3996
   35DOPE  H11S 4446   6.687   2.592   3.976  0.0200  0.5034  1.0417
   35DOPE  C212 4447   6.526   2.558   4.119 -1.0744 -0.2167  0.5086
   35DOPE  H12R 4448   6.474   2.467   4.083  2.5855 -2.5490  0.5846
   35DOPE  H12S 4449   6.456   2.631   4.165  0.6357  0.9112  1.4252
   35DOPE  C213 4450   6.619   2.499   4.236 -0.4004 -0.2900 -0.1664
   35DOPE  H13R 4451   6.696   2.574   4.263 -0.1254 -0.1920 -1.1526
   35DOPE  H13S 4452   6.673   2.414   4.189 -0.7522  0.3786 -1.8806
   35DOPE  C214 4453   6.534   2.461   4.348 -0.0622  0.3436  0.4851
   35DOPE  H14R 4454   6.454   2.395   4.308  0.1658  0.8944 -0.9462
   35DOPE  H14S 4455   6.476   2.546   4.391  1.6217  0.6790  2.2142
   35DOPE  C215 4456   6.627   2.405   4.454  0.2230 -0.1765 -0.4849
   35DOPE  H15R 4457   6.718   2.468   4.467 -0.3382  0.9931 -1.9178
   35DOPE  H15S 4458   6.675   2.318   4.405  1.9984  1.0353 -0.9761
   35DOPE  C216 4459   6.558   2.395   4.590 -0.7981  0.2546 -0.2044
   35DOPE  H16R 4460   6.468   2.331   4.577 -1.0940  0.9648 -1.8581
   35DOPE  H16S 4461   6.530   2.496   4.627  1.4031  0.9178 -0.2458
   35DOPE  C217 4462   6.641   2.332   4.706  0.0624  0.1189  0.5781
   35DOPE  H17R 4463   6.585   2.342   4.802 -1.2259  0.9091 -0.2212
   35DOPE  H17S 4464   6.733   2.391   4.723  0.8316 -1.5201  2.5630
   35DOPE  C218 4465   6.678   2.181   4.696  0.0700  0.8813  0.0946
   35DOPE  H18R 4466   6.730   2.146   4.788  1.4908  1.3471 -0.4907
   35DOPE  H18S 4467   6.741   2.182   4.605  0.4835  1.9763  0.3694
   35DOPE  H18T 4468   6.593   2.111   4.690  0.0759  0.7500  1.2547
   35DOPE   C33 4469   6.490   2.743   3.156  0.9027 -0.2386  0.0636
   35DOPE   H3X 4470   6.547   2.712   3.246 -1.0977 -0.8790  1.1719
   35DOPE   H3Y 4471   6.408   2.669   3.140 -0.3720  0.8587  1.3411
   35DOPE   C34 4472   6.439   2.888   3.164  0.8387 -0.1834 -0.2414
   35DOPE   H4X 4473   6.383   2.907   3.070 -0.9912 -1.4248  0.5603
   35DOPE   H4Y 4474   6.357   2.882   3.239  0.4744 -2.4116 -0.7602
   35DOPE   C35 4475   6.546   2.983   3.211 -0.0380  1.2071 -0.3166
   35DOPE   H5X 4476   6.503   3.085   3.206  1.5906  1.8850 -1.5891
   35DOPE   H5Y 4477   6.637   2.998   3.149  1.6220 -0.5654  1.5420
   35DOPE   C36 4478   6.602   2.954   3.360 -0.3968 -0.1124 -0.5205
   35DOPE   H6X 4479   6.687   3.016   3.394 -0.9966  0.0166  0.7903
   35DOPE   H6Y 4480   6.647   2.853   3.369  1.5522  0.8238  0.7240
   35DOPE   C37 4481   6.492   2.955   3.464  0.9822  0.0535  0.5273
   35DOPE   H7X 4482   6.408   3.026   3.442  0.7352 -0.2958  0.3335
   35DOPE   H7Y 4483   6.429   2.864   3.459 -1.2405  1.5474 -0.7055
   35DOPE   C38 4484   6.541   2.975   3.612  0.2155  1.0444 -0.1394
   35DOPE   H8X 4485   6.614   2.892   3.626  1.0744  1.8187  0.0701
   35DOPE   H8Y 4486   6.448   2.954   3.669 -0.8818  1.2461 -1.7978
   35DOPE   C39 4487   6.593   3.105   3.638 -0.3298  0.1064 -0.1414
   35DOPE   H9X 4488   6.515   3.182   3.640 -0.4282  0.2665 -3.8762
   35DOPE  C310 4489   6.716   3.124   3.692 -0.2466 -0.2742 -0.1473
   35DOPE  H10X 4490   6.755   3.226   3.702  2.1835 -0.9578 -1.7146
   35DOPE  C311 4491   6.818   3.021   3.717  0.2051 -0.6712  0.1875
   35DOPE  H11X 4492   6.804   2.937   3.646  0.2810 -0.1431 -0.4655
   35DOPE  H11Y 4493   6.918   3.062   3.691 -0.0357  1.3665  2.1817
   35DOPE  C312 4494   6.822   2.974   3.861  0.5532 -0.0727 -0.6844
   35DOPE  H12X 4495   6.728   2.942   3.911  1.6688 -1.1382  0.8484
   35DOPE  H12Y 4496   6.856   3.057   3.927 -1.1101  0.0748  0.0335
   35DOPE  C313 4497   6.926   2.861   3.881 -0.5917 -0.5559  0.1953
   35DOPE  H13X 4498   6.928   2.824   3.986 -2.8053  0.5197  0.6749
   35DOPE  H13Y 4499   6.888   2.777   3.818 -0.9187  0.7466 -1.4096
   35DOPE  C314 4500   7.072   2.889   3.842  0.7079  0.1229  0.1869
   35DOPE  H14X 4501   7.131   2.964   3.898  0.9633 -0.0821  0.1922
   35DOPE  H14Y 4502   7.081   2.923   3.737  1.2979 -1.1291 -0.1804
   35DOPE  C315 4503   7.140   2.750   3.834  0.1972 -0.3177 -0.2037
   35DOPE  H15X 4504   7.084   2.680   3.768 -2.1429  1.2523 -0.0037
   35DOPE  H15Y 4505   7.140   2.705   3.936  2.0124  0.9485  0.4080
   35DOPE  C316 4506   7.287   2.756   3.783 -0.7336  0.4239 -0.4843
   35DOPE  H16X 4507   7.342   2.836   3.838 -1.8780  0.0208  1.3287
   35DOPE  H16Y 4508   7.302   2.775   3.675  2.0620  3.2491  0.2468
   35DOPE  C317 4509   7.349   2.615   3.804  0.5016  0.2248  0.0001
   35DOPE  H17X 4510   7.324   2.565   3.900 -2.8536 -0.8743 -1.2984
   35DOPE  H17Y 4511   7.308   2.542   3.732  1.1872 -0.3003  0.1270
   35DOPE  C318 4512   7.504   2.595   3.788 -0.2723 -0.3315 -0.2394
   35DOPE  H18X 4513   7.557   2.633   3.878 -0.1531 -2.8144  0.8410
   35DOPE  H18Y 4514   7.524   2.486   3.772  0.6087 -0.7387  2.8311
   35DOPE  H18Z 4515   7.544   2.640   3.695 -0.5375 -0.7321 -0.5535
   36DOPE     N 4516   6.826   2.997   2.456  0.4246  0.3070 -0.7913
   36DOPE   HN1 4517   6.810   2.981   2.355 -0.6468  0.4630 -0.6534
   36DOPE   HN2 4518   6.739   2.963   2.503 -0.0022 -0.1957 -1.9097
   36DOPE   HN3 4519   6.831   3.100   2.471  0.0783  0.7441 -3.3580
   36DOPE   C12 4520   6.954   2.924   2.498  0.3460 -0.0612 -0.3223
   36DOPE  H12A 4521   7.028   2.943   2.417 -0.4245  0.4124 -0.9324
   36DOPE  H12B 4522   6.914   2.821   2.502 -1.6907  0.4584 -3.5009
   36DOPE   C11 4523   7.010   2.982   2.633  0.0610  0.0665  0.4869
   36DOPE  H11A 4524   7.084   2.907   2.670 -0.2105 -0.1405  0.6150
   36DOPE  H11B 4525   6.928   2.978   2.707 -0.5916 -2.7296 -0.2442
   36DOPE     P 4526   6.985   3.241   2.646 -0.2325 -0.0051  0.1877
   36DOPE   O13 4527   6.850   3.238   2.590  0.1615 -0.1435 -0.3338
   36DOPE   O14 4528   7.073   3.357   2.609 -0.3405  0.0400  0.5460
   36DOPE   O11 4529   6.960   3.249   2.808  0.5814  0.4653 -0.3326
   36DOPE   O12 4530   7.080   3.109   2.617 -0.1362  0.1748 -0.2445
   36DOPE    C1 4531   7.079   3.246   2.894  1.1799 -0.7338  1.3737
   36DOPE    HA 4532   7.175   3.212   2.849  0.4463 -1.3047  0.2100
   36DOPE    HB 4533   7.054   3.180   2.979 -0.4467 -1.6638  0.2191
   36DOPE    C2 4534   7.101   3.394   2.952 -0.5701  0.2984 -0.9494
   36DOPE    HS 4535   7.140   3.449   2.864  2.7446 -0.3488 -0.0562
   36DOPE   O21 4536   7.205   3.391   3.053  0.1177 -0.1744 -0.9156
   36DOPE   C21 4537   7.256   3.517   3.084 -0.1508 -0.5101  0.4139
   36DOPE   O22 4538   7.232   3.611   3.011  0.2168 -0.8682  0.1178
   36DOPE   C22 4539   7.344   3.524   3.209 -0.3483  0.6104 -0.2253
   36DOPE   H2R 4540   7.421   3.444   3.205 -1.3429 -0.3932 -0.1915
   36DOPE   H2S 4541   7.281   3.510   3.300  0.0435  1.1068  0.1256
   36DOPE    C3 4542   6.978   3.458   3.007 -0.3217 -0.1556  0.0648
   36DOPE    HX 4543   6.900   3.448   2.928  0.0872  0.9964 -0.5164
   36DOPE    HY 4544   6.991   3.567   3.024  0.6225  0.8083 -5.0515
   36DOPE   O31 4545   6.925   3.393   3.124 -0.6753 -0.3999 -0.2673
   36DOPE   C31 4546   6.795   3.417   3.151 -0.1688  0.7701  0.1428
   36DOPE   O32 4547   6.736   3.509   3.094 -0.2286 -0.5815 -0.6625
   36DOPE   C32 4548   6.741   3.324   3.256  0.0847 -0.0997  0.3025
   36DOPE   H2X 4549   6.763   3.217   3.234 -0.4712  0.1403 -1.5732
   36DOPE   H2Y 4550   6.785   3.353   3.354  0.3221 -0.8215  0.4168
   36DOPE   C23 4551   7.410   3.663   3.226 -0.7957 -0.6265  0.4353
   36DOPE   H3R 4552   7.329   3.737   3.243 -1.3471 -1.3566  1.0837
   36DOPE   H3S 4553   7.470   3.685   3.135  0.0295  1.5460  1.4355
   36DOPE   C24 4554   7.506   3.676   3.343  0.2725  0.4380 -1.1631
   36DOPE   H4R 4555   7.541   3.781   3.349  0.1264  0.3961  1.4137
   36DOPE   H4S 4556   7.598   3.617   3.327 -0.4296 -1.5021  1.3883
   36DOPE   C25 4557   7.451   3.631   3.476  0.9378  0.1346 -0.0116
   36DOPE   H5R 4558   7.461   3.522   3.497  0.3265  0.5221  2.6645
   36DOPE   H5S 4559   7.346   3.667   3.488  0.9028  0.9605 -2.3701
   36DOPE   C26 4560   7.530   3.703   3.590 -0.7795 -0.2883  0.3902
   36DOPE   H6R 4561   7.524   3.813   3.580  0.4066 -0.0778  1.7607
   36DOPE   H6S 4562   7.640   3.694   3.576 -0.3561  4.6258 -1.4446
   36DOPE   C27 4563   7.479   3.664   3.723  0.7104  0.6204  0.1491
   36DOPE   H7R 4564   7.449   3.557   3.724  0.0051  0.8242  0.7075
   36DOPE   H7S 4565   7.392   3.732   3.729  0.8620  0.9636 -1.1033
   36DOPE   C28 4566   7.570   3.695   3.838 -0.4064 -0.0765 -0.2046
   36DOPE   H8R 4567   7.512   3.732   3.925  0.5941  2.4484 -0.5389
   36DOPE   H8S 4568   7.622   3.789   3.811  0.4440  0.0784  1.8506
   36DOPE   C29 4569   7.669   3.579   3.859  0.1014  0.1515 -0.1660
   36DOPE   H9R 4570   7.750   3.572   3.785 -0.3393  0.9069 -0.7303
   36DOPE  C210 4571   7.652   3.488   3.950  0.2194  0.3123 -0.1916
   36DOPE  H10R 4572   7.718   3.400   3.962  0.7432  0.5925 -0.9818
   36DOPE  C211 4573   7.548   3.491   4.056  0.2812  0.0857 -0.0167
   36DOPE  H11R 4574   7.487   3.399   4.047 -0.6744  0.7159 -0.2154
   36DOPE  H11S 4575   7.472   3.571   4.048  2.4048  2.2407  0.0719
   36DOPE  C212 4576   7.601   3.497   4.194 -0.3335 -0.1336  0.3195
   36DOPE  H12R 4577   7.651   3.596   4.206 -1.3558  0.3243  0.9423
   36DOPE  H12S 4578   7.682   3.422   4.203 -0.7734 -0.3613  3.4904
   36DOPE  C213 4579   7.509   3.454   4.301  0.6953  0.4483 -1.0462
   36DOPE  H13R 4580   7.559   3.467   4.400 -1.1914 -1.2998  0.2154
   36DOPE  H13S 4581   7.489   3.345   4.291  3.9984 -0.5150  1.2141
   36DOPE  C214 4582   7.380   3.532   4.293 -0.0487 -0.1208 -0.4893
   36DOPE  H14R 4583   7.326   3.504   4.200  0.3573  1.9821 -1.4266
   36DOPE  H14S 4584   7.409   3.639   4.281 -0.0928 -0.0913 -0.3379
   36DOPE  C215 4585   7.296   3.515   4.416  0.6617 -0.1067 -0.1791
   36DOPE  H15R 4586   7.211   3.586   4.421 -0.2342 -1.1725  0.2484
   36DOPE  H15S 4587   7.356   3.540   4.506 -2.0555  2.9079  0.9808
   36DOPE  C216 4588   7.250   3.367   4.437 -0.4374 -0.1329 -1.1762
   36DOPE  H16R 4589   7.225   3.354   4.545  1.4926 -0.7813 -0.7731
   36DOPE  H16S 4590   7.345   3.310   4.434  1.3811  2.5588  0.8094
   36DOPE  C217 4591   7.128   3.317   4.358 -0.4411  0.0917 -0.1719
   36DOPE  H17R 4592   7.124   3.207   4.373  2.2492 -0.0679  0.0078
   36DOPE  H17S 4593   7.134   3.343   4.250 -0.6057 -2.5567 -0.8793
   36DOPE  C218 4594   6.997   3.370   4.417  0.1268  0.6623 -0.5658
   36DOPE  H18R 4595   6.903   3.366   4.358  0.2226 -2.4247 -0.6652
   36DOPE  H18S 4596   7.012   3.478   4.440  0.6720  0.3356  0.7062
   36DOPE  H18T 4597   6.978   3.318   4.513 -3.3377  1.8133 -0.5002
   36DOPE   C33 4598   6.590   3.305   3.275 -0.6237 -0.3230  0.1772
   36DOPE   H3X 4599   6.569   3.227   3.351  0.3018 -0.0056  0.7728
   36DOPE   H3Y 4600   6.546   3.291   3.174 -2.2411  3.4454  0.1981
   36DOPE   C34 4601   6.518   3.426   3.332 -0.1602 -0.2496 -0.3791
   36DOPE   H4X 4602   6.548   3.508   3.264  0.2895 -0.4409 -0.4139
   36DOPE   H4Y 4603   6.410   3.400   3.332 -0.0930 -0.6083  1.2088
   36DOPE   C35 4604   6.557   3.465   3.474 -0.7421 -0.2513 -0.1786
   36DOPE   H5X 4605   6.666   3.453   3.496 -0.6325  1.4673  0.4175
   36DOPE   H5Y 4606   6.514   3.395   3.548  0.0742  0.5832  1.1446
   36DOPE   C36 4607   6.519   3.612   3.502 -0.1613  0.5098 -0.3511
   36DOPE   H6X 4608   6.416   3.637   3.469 -1.6583 -2.3469  1.6797
   36DOPE   H6Y 4609   6.578   3.673   3.431 -0.3791  0.4007 -0.6261
   36DOPE   C37 4610   6.564   3.647   3.645 -0.3923 -0.4265 -0.1799
   36DOPE   H7X 4611   6.522   3.572   3.714 -0.0243 -0.1131  0.3950
   36DOPE   H7Y 4612   6.675   3.648   3.657 -0.1689 -1.6402 -1.7951
   36DOPE   C38 4613   6.510   3.783   3.700  0.3117  0.2053 -0.3356
   36DOPE   H8X 4614   6.549   3.797   3.803 -0.4578  0.0515 -0.0159
   36DOPE   H8Y 4615   6.402   3.763   3.718  0.2167 -0.2690 -1.3479
   36DOPE   C39 4616   6.543   3.896   3.613  0.3611 -0.2037 -0.4953
   36DOPE   H9X 4617   6.495   3.899   3.514  0.6903  1.3357 -0.6397
   36DOPE  C310 4618   6.635   3.993   3.643  0.0197 -0.8666  0.0008
   36DOPE  H10X 4619   6.668   4.063   3.565 -2.2381  0.8076  0.4516
   36DOPE  C311 4620   6.725   4.008   3.762 -0.5594 -1.1647 -0.3370
   36DOPE  H11X 4621   6.732   3.913   3.820  2.8316 -0.9151 -0.0946
   36DOPE  H11Y 4622   6.823   4.013   3.710  0.0892  0.4622  0.9605
   36DOPE  C312 4623   6.699   4.125   3.853  0.4215 -0.6329 -0.3887
   36DOPE  H12X 4624   6.590   4.143   3.867  0.7804  1.3307  0.0905
   36DOPE  H12Y 4625   6.744   4.216   3.808  0.7604 -0.7724 -0.3400
   36DOPE  C313 4626   6.743   4.108   4.003 -0.2814 -0.3108 -0.0540
   36DOPE  H13X 4627   6.709   4.006   4.030  1.3186 -0.8500 -0.0040
   36DOPE  H13Y 4628   6.853   4.109   4.013 -0.4687  0.4146  3.0385
   36DOPE  C314 4629   6.694   4.222   4.084 -0.4540 -0.4631  0.0429
   36DOPE  H14X 4630   6.584   4.236   4.086 -0.5086 -0.9558  1.4022
   36DOPE  H14Y 4631   6.743   4.315   4.048 -2.2697 -0.0981 -1.6271
   36DOPE  C315 4632   6.730   4.211   4.233  0.5148 -0.1894  0.1350
   36DOPE  H15X 4633   6.838   4.193   4.250  0.2061 -0.2268  2.4315
   36DOPE  H15Y 4634   6.666   4.128   4.272  2.4058 -1.9609 -0.3846
   36DOPE  C316 4635   6.687   4.339   4.302  0.2451  0.6960 -0.5315
   36DOPE  H16X 4636   6.583   4.375   4.287  0.4837  1.5924 -0.1079
   36DOPE  H16Y 4637   6.750   4.421   4.261  0.6682  0.9669  0.6187
   36DOPE  C317 4638   6.707   4.321   4.454  0.2848 -0.9592  0.2204
   36DOPE  H17X 4639   6.645   4.237   4.491 -2.3323  0.3129 -1.0164
   36DOPE  H17Y 4640   6.812   4.288   4.465  0.6916  0.0607 -0.4157
   36DOPE  C318 4641   6.692   4.456   4.523  0.2003  0.2741  0.0216
   36DOPE  H18X 4642   6.698   4.452   4.634 -1.7204  1.3660  0.2259
   36DOPE  H18Y 4643   6.758   4.533   4.478 -0.4029  1.6606  1.3875
   36DOPE  H18Z 4644   6.589   4.493   4.502  0.2102  0.0418 -0.4384
   37DOPE     N 4645   3.716   1.699   2.825  0.1962 -0.3487  0.5802
   37DOPE   HN1 4646   3.728   1.663   2.728  0.7321  1.0778  0.0938
   37DOPE   HN2 4647   3.775   1.784   2.824 -1.1677  0.7090 -2.3959
   37DOPE   HN3 4648   3.738   1.621   2.891  0.3210 -0.7142  0.1145
   37DOPE   C12 4649   3.567   1.731   2.843  0.1296  0.0047 -0.3241
   37DOPE  H12A 4650   3.534   1.796   2.760 -0.7492 -1.1848 -0.9287
   37DOPE  H12B 4651   3.552   1.789   2.937 -1.9683  1.6640 -1.5940
   37DOPE   C11 4652   3.494   1.596   2.863 -0.5908  0.6321 -0.9074
   37DOPE  H11A 4653   3.517   1.528   2.778  0.4253  0.0615 -0.1873
   37DOPE  H11B 4654   3.384   1.611   2.855 -0.8420 -1.3265 -1.6968
   37DOPE     P 4655   3.479   1.564   3.120  0.0482  0.4059 -0.3366
   37DOPE   O13 4656   3.495   1.440   3.199  0.2275 -0.5024  0.3702
   37DOPE   O14 4657   3.347   1.625   3.121 -0.4380  0.1628  0.3441
   37DOPE   O11 4658   3.565   1.675   3.173  0.1968  0.4411 -0.0389
   37DOPE   O12 4659   3.529   1.528   2.982 -0.4937 -0.3167  0.0714
   37DOPE    C1 4660   3.706   1.676   3.163  0.3574  0.1565  0.5916
   37DOPE    HA 4661   3.744   1.776   3.132 -0.9779  0.6880  0.6003
   37DOPE    HB 4662   3.741   1.600   3.091 -1.8070 -0.1599 -0.2174
   37DOPE    C2 4663   3.775   1.642   3.299  0.3517 -0.3709  0.3902
   37DOPE    HS 4664   3.744   1.545   3.342  2.5932 -1.2881  0.0745
   37DOPE   O21 4665   3.757   1.762   3.377 -0.1337  0.3777 -0.2200
   37DOPE   C21 4666   3.729   1.742   3.504  0.0899  0.0517 -0.2155
   37DOPE   O22 4667   3.707   1.633   3.550 -0.2089  0.4652 -0.5961
   37DOPE   C22 4668   3.722   1.876   3.580 -0.8015 -0.8112  0.3475
   37DOPE   H2R 4669   3.638   1.941   3.547 -0.1806  1.4421  2.8504
   37DOPE   H2S 4670   3.812   1.941   3.569 -1.5062  0.3473  1.2831
   37DOPE    C3 4671   3.930   1.635   3.288 -0.0656  0.4051  0.2170
   37DOPE    HX 4672   3.973   1.716   3.226  2.0227 -0.2796  0.7010
   37DOPE    HY 4673   3.964   1.548   3.228  0.5843 -0.3981  1.7022
   37DOPE   O31 4674   3.991   1.643   3.418  0.0878 -0.4871 -0.3841
   37DOPE   C31 4675   4.035   1.520   3.463  0.1633 -0.0515  0.1305
   37DOPE   O32 4676   4.022   1.414   3.399  0.4022 -0.2215  0.0638
   37DOPE   C32 4677   4.112   1.541   3.595 -0.3057  0.7135  0.0209
   37DOPE   H2X 4678   4.109   1.443   3.647 -0.4475  0.6800 -0.0476
   37DOPE   H2Y 4679   4.219   1.553   3.570  0.2056 -0.2938  1.6277
   37DOPE   C23 4680   3.715   1.847   3.732 -0.0138 -0.1964 -0.1526
   37DOPE   H3R 4681   3.797   1.781   3.768 -0.0208 -0.1015  0.0396
   37DOPE   H3S 4682   3.626   1.786   3.757 -1.3801  1.4443 -0.7320
   37DOPE   C24 4683   3.720   1.976   3.821  0.9424 -0.0840  0.1753
   37DOPE   H4R 4684   3.657   1.958   3.910  1.0530  0.5173  0.3849
   37DOPE   H4S 4685   3.651   2.046   3.770 -1.3852 -2.5062 -0.2121
   37DOPE   C25 4686   3.852   2.036   3.856 -0.2866 -0.7098  0.0162
   37DOPE   H5R 4687   3.909   2.044   3.760 -0.6331  1.5937 -0.0578
   37DOPE   H5S 4688   3.901   1.961   3.922  0.0545  0.4582  1.1111
   37DOPE   C26 4689   3.846   2.169   3.928 -0.0362  0.0907 -0.1751
   37DOPE   H6R 4690   3.948   2.182   3.971  1.6697 -1.6400 -3.3282
   37DOPE   H6S 4691   3.774   2.155   4.012  1.0049 -1.2860  0.5223
   37DOPE   C27 4692   3.822   2.291   3.842  0.3320  0.6458 -0.1957
   37DOPE   H7R 4693   3.726   2.267   3.790 -1.7688  1.0980  3.1770
   37DOPE   H7S 4694   3.909   2.292   3.773  0.5416  0.4655  0.0669
   37DOPE   C28 4695   3.807   2.417   3.921 -0.2646 -0.5636  0.0764
   37DOPE   H8R 4696   3.724   2.420   3.994  0.6542 -1.7655  1.2259
   37DOPE   H8S 4697   3.775   2.499   3.852  0.3069 -0.0081  0.4567
   37DOPE   C29 4698   3.940   2.441   3.990 -0.0399  0.4798 -0.0351
   37DOPE   H9R 4699   4.022   2.430   3.917  0.6658  0.1884  0.7864
   37DOPE  C210 4700   3.971   2.460   4.118 -0.4478  0.0091 -0.1618
   37DOPE  H10R 4701   4.074   2.485   4.145 -0.4014 -0.1559 -0.1878
   37DOPE  C211 4702   3.876   2.469   4.236 -0.5199 -0.1226 -0.8832
   37DOPE  H11R 4703   3.774   2.440   4.204  0.0561 -0.1611 -2.8135
   37DOPE  H11S 4704   3.870   2.575   4.268 -1.9668  0.0374 -1.5986
   37DOPE  C212 4705   3.935   2.391   4.355 -0.2462  0.2398 -0.0052
   37DOPE  H12R 4706   3.963   2.287   4.324  1.6070  1.3212 -2.3713
   37DOPE  H12S 4707   3.865   2.384   4.440 -1.8962 -3.1017 -1.4488
   37DOPE  C213 4708   4.056   2.463   4.412 -0.4438  0.0924  0.0044
   37DOPE  H13R 4709   4.046   2.569   4.443  0.2487  0.3909 -0.7636
   37DOPE  H13S 4710   4.136   2.461   4.336  0.6288 -1.0360  1.1258
   37DOPE  C214 4711   4.115   2.388   4.535  0.1451 -0.7113 -0.3410
   37DOPE  H14R 4712   4.124   2.284   4.497  1.2880 -0.5074 -0.6835
   37DOPE  H14S 4713   4.044   2.397   4.620 -0.9117  0.9723 -1.3640
   37DOPE  C215 4714   4.258   2.439   4.574  0.4065  0.0865 -0.3849
   37DOPE  H15R 4715   4.255   2.547   4.598  0.1372 -0.3018  1.4813
   37DOPE  H15S 4716   4.325   2.421   4.487 -0.2133 -0.2532 -0.7997
   37DOPE  C216 4717   4.293   2.364   4.703  0.2166 -0.1700  0.1105
   37DOPE  H16R 4718   4.261   2.258   4.702  0.2480 -0.4780  5.1101
   37DOPE  H16S 4719   4.235   2.402   4.790 -0.0664 -1.8731  0.6967
   37DOPE  C217 4720   4.448   2.364   4.737  0.3263 -0.3832 -0.2428
   37DOPE  H17R 4721   4.513   2.325   4.656 -0.1807 -0.5300 -0.5800
   37DOPE  H17S 4722   4.452   2.294   4.824 -1.4168  0.4541  0.5641
   37DOPE  C218 4723   4.497   2.500   4.790 -0.3845  0.2425 -0.8150
   37DOPE  H18R 4724   4.600   2.504   4.830 -1.3341  1.6831  1.7065
   37DOPE  H18S 4725   4.438   2.524   4.881  0.9437  0.8787 -0.0915
   37DOPE  H18T 4726   4.466   2.584   4.725 -0.9950 -0.3687 -1.3346
   37DOPE   C33 4727   4.057   1.640   3.700 -0.4160 -0.5846  0.4087
   37DOPE   H3X 4728   3.948   1.651   3.684 -0.2159 -0.0947 -0.7355
   37DOPE   H3Y 4729   4.107   1.736   3.673 -1.2729 -0.7527 -1.9775
   37DOPE   C34 4730   4.087   1.598   3.845  0.4601  0.8126  0.4916
   37DOPE   H4X 4731   4.042   1.499   3.867  2.0813  0.4030  2.2481
   37DOPE   H4Y 4732   4.195   1.573   3.852  1.1661  3.0384 -1.2028
   37DOPE   C35 4733   4.046   1.693   3.953  0.5070 -0.5854 -0.4944
   37DOPE   H5X 4734   3.937   1.714   3.955  0.9518  2.0942  0.8220
   37DOPE   H5Y 4735   4.082   1.797   3.932  2.4020 -1.2787 -0.9116
   37DOPE   C36 4736   4.091   1.658   4.100  0.4239  0.0418  0.0471
   37DOPE   H6X 4737   4.200   1.641   4.089  0.1551  0.0248 -3.6963
   37DOPE   H6Y 4738   4.045   1.563   4.135  1.0724 -0.4564 -0.4337
   37DOPE   C37 4739   4.079   1.768   4.210 -0.4487  0.8420  0.3611
   37DOPE   H7X 4740   4.135   1.736   4.300 -0.4661 -1.2526 -0.3163
   37DOPE   H7Y 4741   4.138   1.855   4.173  0.4327 -0.1339 -0.5888
   37DOPE   C38 4742   3.930   1.810   4.230  0.1322  0.4133  0.0193
   37DOPE   H8X 4743   3.881   1.754   4.313 -0.2906  0.5975 -0.1032
   37DOPE   H8Y 4744   3.879   1.789   4.134  2.2034 -0.9421 -0.8647
   37DOPE   C39 4745   3.922   1.961   4.249  0.1799  0.4500 -0.1407
   37DOPE   H9X 4746   3.962   2.023   4.168  2.7391  0.2652  0.8796
   37DOPE  C310 4747   3.876   2.025   4.348 -0.5363 -0.0019 -0.3659
   37DOPE  H10X 4748   3.866   2.134   4.338 -0.9215 -0.0917 -1.0467
   37DOPE  C311 4749   3.834   1.976   4.487  0.0408 -0.3808  0.3496
   37DOPE  H11X 4750   3.738   1.921   4.489 -0.9294  1.1790 -0.6144
   37DOPE  H11Y 4751   3.912   1.905   4.522  1.4698  1.6166  1.4105
   37DOPE  C312 4752   3.830   2.095   4.591  0.0219 -0.3486 -0.7015
   37DOPE  H12X 4753   3.766   2.172   4.542 -1.2404 -1.5024 -0.8981
   37DOPE  H12Y 4754   3.932   2.136   4.611 -1.2914  1.7025  2.6990
   37DOPE  C313 4755   3.758   2.062   4.722  0.6973 -0.3766 -0.8469
   37DOPE  H13X 4756   3.657   2.024   4.696  0.4654 -0.0804 -0.3962
   37DOPE  H13Y 4757   3.811   1.975   4.766  0.7574  0.8441  1.6773
   37DOPE  C314 4758   3.751   2.172   4.825  0.0385 -0.8235  0.5125
   37DOPE  H14X 4759   3.675   2.243   4.787 -0.7722 -1.7215  0.4072
   37DOPE  H14Y 4760   3.850   2.216   4.847  0.4031  0.8492 -3.6599
   37DOPE  C315 4761   3.699   2.121   4.960  0.2012 -0.2281  0.2355
   37DOPE  H15X 4762   3.633   2.034   4.940 -1.3615  1.0295 -0.2644
   37DOPE  H15Y 4763   3.630   2.197   5.000  1.4892  1.3667 -0.4623
   37DOPE  C316 4764   3.796   2.084   5.069  0.5348  0.3282 -0.2917
   37DOPE  H16X 4765   3.884   2.030   5.029 -0.1416 -0.5212 -0.6656
   37DOPE  H16Y 4766   3.741   2.010   5.131 -0.2221  0.3705 -0.9059
   37DOPE  C317 4767   3.831   2.211   5.152 -0.6265 -0.3860 -0.8496
   37DOPE  H17X 4768   3.937   2.240   5.133 -0.2154 -0.7236  0.8331
   37DOPE  H17Y 4769   3.777   2.302   5.118  0.2294  0.6917  0.5544
   37DOPE  C318 4770   3.800   2.224   5.304  0.9583  0.3259  0.8691
   37DOPE  H18X 4771   3.853   2.142   5.358  1.5461  0.4412  0.4790
   37DOPE  H18Y 4772   3.836   2.323   5.339 -0.9707  0.7729  1.7347
   37DOPE  H18Z 4773   3.690   2.224   5.317  0.6538 -0.0887 -1.3870
   38DOPE     N 4774   5.383   3.571   2.809 -0.1420  0.0234  0.1193
   38DOPE   HN1 4775   5.439   3.496   2.763  2.0979  2.1659 -0.8177
   38DOPE   HN2 4776   5.374   3.654   2.748 -0.0093 -0.3759 -0.4494
   38DOPE   HN3 4777   5.428   3.592   2.901  0.5490 -1.2593  0.1029
   38DOPE   C12 4778   5.242   3.516   2.819  0.0239 -0.4671  0.4030
   38DOPE  H12A 4779   5.246   3.411   2.856 -0.2045 -0.6440 -0.0644
   38DOPE  H12B 4780   5.205   3.515   2.715  0.7918 -1.7056  0.1188
   38DOPE   C11 4781   5.150   3.601   2.914  0.2451  0.4511  0.4224
   38DOPE  H11A 4782   5.158   3.564   3.019  0.2753 -1.0546 -0.0954
   38DOPE  H11B 4783   5.046   3.576   2.883  0.8523 -0.3632 -1.0629
   38DOPE     P 4784   5.044   3.830   2.967 -0.1100 -0.0427  0.4354
   38DOPE   O13 4785   4.916   3.763   2.986  0.3446  0.3040 -0.0633
   38DOPE   O14 4786   5.039   3.960   2.894 -0.0729 -0.4645  0.0883
   38DOPE   O11 4787   5.110   3.847   3.112  0.6808 -0.3006 -0.0049
   38DOPE   O12 4788   5.155   3.739   2.896  0.8001 -0.4148  0.3218
   38DOPE    C1 4789   5.241   3.900   3.125 -0.2891 -1.4822 -0.9895
   38DOPE    HA 4790   5.271   3.971   3.045  2.2010  0.4791  1.4905
   38DOPE    HB 4791   5.319   3.821   3.123  0.6134 -0.6678  0.4872
   38DOPE    C2 4792   5.254   3.978   3.265 -0.6539 -0.6684 -0.1637
   38DOPE    HS 4793   5.358   4.018   3.270 -1.5808  1.8019  2.5968
   38DOPE   O21 4794   5.234   3.881   3.367  0.2743  0.1065  0.1579
   38DOPE   C21 4795   5.319   3.885   3.468 -0.5086 -0.2505 -0.4702
   38DOPE   O22 4796   5.423   3.947   3.472  0.7390 -0.0496 -0.0124
   38DOPE   C22 4797   5.267   3.805   3.581  0.0608 -0.3016 -0.5599
   38DOPE   H2R 4798   5.278   3.696   3.566  0.9119 -0.1977 -0.7191
   38DOPE   H2S 4799   5.159   3.827   3.595  0.3420  0.1057  1.1966
   38DOPE    C3 4800   5.153   4.094   3.273  0.0802  0.3066 -0.3778
   38DOPE    HX 4801   5.051   4.051   3.267 -0.1692  0.7530  0.4823
   38DOPE    HY 4802   5.167   4.162   3.187 -0.0056  0.8931  0.0652
   38DOPE   O31 4803   5.157   4.151   3.401 -0.1066 -0.0164  0.1500
   38DOPE   C31 4804   5.250   4.250   3.411 -0.1375  0.3437  0.8382
   38DOPE   O32 4805   5.314   4.300   3.317 -0.2933 -0.2392 -0.5441
   38DOPE   C32 4806   5.256   4.292   3.561  0.1605 -0.2478  0.1606
   38DOPE   H2X 4807   5.155   4.317   3.600  0.9399  2.8778  0.3749
   38DOPE   H2Y 4808   5.287   4.197   3.610  4.4961  0.7355 -0.2753
   38DOPE   C23 4809   5.333   3.839   3.715  0.2531  0.5376 -0.2334
   38DOPE   H3R 4810   5.317   3.948   3.724  2.2794  0.8053  0.5812
   38DOPE   H3S 4811   5.442   3.819   3.711  0.7145  2.1395  2.2998
   38DOPE   C24 4812   5.277   3.759   3.834  0.4870  0.9849 -0.2583
   38DOPE   H4R 4813   5.277   3.649   3.816  0.1391  0.7468  1.0589
   38DOPE   H4S 4814   5.168   3.780   3.841 -0.0921 -2.0658  2.1912
   38DOPE   C25 4815   5.348   3.791   3.965  0.3576  0.3083 -1.2229
   38DOPE   H5R 4816   5.357   3.899   3.988 -0.4926  0.1984 -0.2750
   38DOPE   H5S 4817   5.449   3.747   3.950  0.3899  0.6610 -2.1089
   38DOPE   C26 4818   5.289   3.721   4.092  0.0402 -0.0117  0.7978
   38DOPE   H6R 4819   5.247   3.624   4.059 -1.7237  1.8952 -3.2695
   38DOPE   H6S 4820   5.199   3.777   4.122  0.6301  2.1316 -1.1482
   38DOPE   C27 4821   5.398   3.706   4.201  0.5673  0.6027  0.0804
   38DOPE   H7R 4822   5.475   3.639   4.158 -0.5541 -0.8262  0.2254
   38DOPE   H7S 4823   5.359   3.641   4.282 -0.1372 -1.5119 -1.8577
   38DOPE   C28 4824   5.445   3.831   4.262  0.6918  0.8551  0.3863
   38DOPE   H8R 4825   5.491   3.894   4.182  0.0489 -0.4117 -1.0504
   38DOPE   H8S 4826   5.523   3.808   4.338  0.5326 -0.5972  0.1450
   38DOPE   C29 4827   5.332   3.906   4.327  0.5336 -0.0730  0.5117
   38DOPE   H9R 4828   5.239   3.919   4.269  1.1875 -2.8039 -1.3279
   38DOPE  C210 4829   5.342   3.970   4.446  0.4583 -0.3276  0.1518
   38DOPE  H10R 4830   5.253   4.025   4.479 -0.1126 -1.1506  0.0178
   38DOPE  C211 4831   5.455   3.979   4.539 -0.4341  0.7342  1.0854
   38DOPE  H11R 4832   5.434   4.057   4.615 -2.6636  0.1884  1.1046
   38DOPE  H11S 4833   5.549   4.009   4.488 -0.1472 -0.2741  0.9890
   38DOPE  C212 4834   5.483   3.846   4.615  0.7139 -0.5383 -0.3339
   38DOPE  H12R 4835   5.541   3.868   4.707  0.9476  3.7122 -1.2836
   38DOPE  H12S 4836   5.552   3.782   4.555  2.5266 -0.5952  1.6925
   38DOPE  C213 4837   5.357   3.766   4.650  0.2498 -0.1848  0.3889
   38DOPE  H13R 4838   5.291   3.744   4.563  0.3368 -0.7417  0.4616
   38DOPE  H13S 4839   5.290   3.826   4.717  0.5407 -0.2082  0.6989
   38DOPE  C214 4840   5.387   3.636   4.711 -0.2723  0.0521 -0.9362
   38DOPE  H14R 4841   5.453   3.637   4.801 -0.8358  1.5329 -0.5199
   38DOPE  H14S 4842   5.439   3.574   4.635 -0.8685  0.0476 -1.3481
   38DOPE  C215 4843   5.263   3.555   4.740  0.4146  0.0713 -0.9182
   38DOPE  H15R 4844   5.188   3.552   4.659 -1.2105  1.3428  0.4469
   38DOPE  H15S 4845   5.205   3.604   4.822 -0.3837  1.5157 -2.3030
   38DOPE  C216 4846   5.304   3.412   4.768  0.2071  0.2675  0.0776
   38DOPE  H16R 4847   5.382   3.401   4.846  0.2171 -2.0326 -0.1717
   38DOPE  H16S 4848   5.352   3.377   4.675  1.5538 -1.9014  1.4964
   38DOPE  C217 4849   5.189   3.310   4.807 -0.3891  0.1232 -0.5912
   38DOPE  H17R 4850   5.129   3.353   4.890  0.5631  0.5088 -0.0961
   38DOPE  H17S 4851   5.240   3.216   4.837  0.9888  0.5256 -1.5805
   38DOPE  C218 4852   5.086   3.295   4.688 -0.0878 -0.7298 -0.0834
   38DOPE  H18R 4853   5.149   3.275   4.599 -0.9465 -0.4542 -0.7621
   38DOPE  H18S 4854   5.034   3.392   4.672  0.7981  0.2241  2.3214
   38DOPE  H18T 4855   5.015   3.213   4.713  0.7758 -1.6417 -0.5321
   38DOPE   C33 4856   5.367   4.387   3.604  0.4767  0.2009 -0.2017
   38DOPE   H3X 4857   5.341   4.484   3.555  1.8593  0.6236 -0.1381
   38DOPE   H3Y 4858   5.463   4.363   3.554  0.4137  0.5366 -0.4864
   38DOPE   C34 4859   5.376   4.399   3.754 -0.2987  0.6868  0.3876
   38DOPE   H4X 4860   5.290   4.455   3.796 -0.2882  0.8059  0.2477
   38DOPE   H4Y 4861   5.383   4.296   3.797  2.0688  0.6282 -0.0204
   38DOPE   C35 4862   5.505   4.476   3.780 -0.1964 -0.9462  0.4132
   38DOPE   H5X 4863   5.488   4.585   3.762  0.6224 -1.0190 -0.9508
   38DOPE   H5Y 4864   5.584   4.440   3.711 -0.4176 -0.1189 -0.2947
   38DOPE   C36 4865   5.548   4.467   3.920 -0.5832  0.2051 -0.1513
   38DOPE   H6X 4866   5.581   4.367   3.957  1.1060  0.1729 -1.6415
   38DOPE   H6Y 4867   5.463   4.506   3.981 -1.1372  0.9332 -1.3591
   38DOPE   C37 4868   5.663   4.568   3.935  0.5134 -0.5516  0.1331
   38DOPE   H7X 4869   5.637   4.674   3.919  0.7292 -0.1323  2.2306
   38DOPE   H7Y 4870   5.693   4.562   4.042 -0.6637  3.3788  0.8394
   38DOPE   C38 4871   5.792   4.528   3.850 -0.4890 -0.4795 -0.0975
   38DOPE   H8X 4872   5.775   4.520   3.741  1.9402  1.9021 -0.7735
   38DOPE   H8Y 4873   5.819   4.423   3.876 -1.7938 -0.4776  1.3918
   38DOPE   C39 4874   5.903   4.625   3.861 -0.2192 -0.5954  0.3361
   38DOPE   H9X 4875   5.908   4.704   3.785 -2.1748  0.4456  1.1871
   38DOPE  C310 4876   6.000   4.621   3.949  0.1760 -0.5613  0.5239
   38DOPE  H10X 4877   6.066   4.709   3.950  0.1175 -0.5041 -0.2427
   38DOPE  C311 4878   6.010   4.518   4.058 -0.5677 -0.2913  0.0950
   38DOPE  H11X 4879   5.923   4.449   4.052  0.5228 -1.7354  0.4523
   38DOPE  H11Y 4880   6.106   4.463   4.052 -0.5618 -0.2389 -0.3191
   38DOPE  C312 4881   5.977   4.582   4.201 -0.2018  0.3272  0.1373
   38DOPE  H12X 4882   5.873   4.619   4.189 -0.3124 -0.1831 -0.5566
   38DOPE  H12Y 4883   6.046   4.666   4.223  0.2899  0.0066 -0.1661
   38DOPE  C313 4884   5.992   4.491   4.322 -0.0396  0.1684 -0.3653
   38DOPE  H13X 4885   5.987   4.546   4.418 -0.2937 -4.5759  2.6656
   38DOPE  H13Y 4886   5.914   4.411   4.321  2.3485 -2.3513  1.1980
   38DOPE  C314 4887   6.125   4.417   4.316  0.3643 -0.9939  0.0661
   38DOPE  H14X 4888   6.206   4.486   4.284  0.9680 -1.1216  1.2437
   38DOPE  H14Y 4889   6.117   4.340   4.236 -0.8594 -1.3195  0.4741
   38DOPE  C315 4890   6.165   4.373   4.458  0.5225  0.2056  0.4695
   38DOPE  H15X 4891   6.085   4.307   4.498  0.0831  2.0149  2.7540
   38DOPE  H15Y 4892   6.171   4.465   4.519  1.0754  1.5984 -1.5677
   38DOPE  C316 4893   6.289   4.284   4.457 -0.3506  0.3916  0.1634
   38DOPE  H16X 4894   6.375   4.342   4.417 -0.8940  1.2943  0.2682
   38DOPE  H16Y 4895   6.265   4.197   4.392 -0.4078  2.2100 -2.4131
   38DOPE  C317 4896   6.334   4.209   4.585 -0.1204 -0.4533 -0.4315
   38DOPE  H17X 4897   6.253   4.139   4.614 -0.4953  0.2781  0.3176
   38DOPE  H17Y 4898   6.423   4.144   4.567  0.7015  0.3741  0.5431
   38DOPE  C318 4899   6.366   4.303   4.703 -0.0278 -0.1758 -0.3597
   38DOPE  H18X 4900   6.277   4.370   4.701 -0.6987 -1.0783 -1.5964
   38DOPE  H18Y 4901   6.381   4.256   4.803 -0.6619 -0.4915 -0.4076
   38DOPE  H18Z 4902   6.461   4.359   4.688 -0.1767 -0.0446 -0.8376
   39DOPE     N 4903   2.357   3.415   3.447 -0.4280  0.1068 -0.0170
   39DOPE   HN1 4904   2.268   3.447   3.403 -0.3064 -0.9752 -1.1226
   39DOPE   HN2 4905   2.332   3.344   3.519  1.3264  0.6759  1.2125
   39DOPE   HN3 4906   2.408   3.487   3.500 -0.4016 -0.6412  0.9963
   39DOPE   C12 4907   2.454   3.347   3.360 -0.1717 -0.1317 -0.1620
   39DOPE  H12A 4908   2.480   3.418   3.279 -1.3677 -0.9504 -1.3102
   39DOPE  H12B 4909   2.402   3.258   3.317  0.5495  0.5016 -2.4950
   39DOPE   C11 4910   2.583   3.291   3.430  0.3460  0.1666  0.3850
   39DOPE  H11A 4911   2.645   3.380   3.453  2.4604 -0.9646 -0.6121
   39DOPE  H11B 4912   2.646   3.234   3.359  1.4096  0.3673  1.1429
   39DOPE     P 4913   2.657   3.145   3.638 -0.5958  0.2312  0.6836
   39DOPE   O13 4914   2.720   3.243   3.720  0.7832  0.0116 -0.0565
   39DOPE   O14 4915   2.745   3.072   3.542 -0.0569  0.0889  0.0286
   39DOPE   O11 4916   2.567   3.043   3.723  0.0414  0.2158  0.5230
   39DOPE   O12 4917   2.546   3.218   3.552  0.7511  0.2444  0.3691
   39DOPE    C1 4918   2.455   3.090   3.797  0.5469 -0.0426  0.4744
   39DOPE    HA 4919   2.364   3.084   3.734  2.2982  1.1143 -2.3206
   39DOPE    HB 4920   2.465   3.195   3.833 -1.9540  0.4972 -0.2225
   39DOPE    C2 4921   2.433   3.021   3.930  0.0513  0.4226  0.5382
   39DOPE    HS 4922   2.361   3.087   3.984 -0.5084  0.6092 -0.4172
   39DOPE   O21 4923   2.560   3.001   3.989 -0.3178  0.3130 -0.2029
   39DOPE   C21 4924   2.610   3.115   4.038 -0.0024 -0.1619  0.1473
   39DOPE   O22 4925   2.545   3.216   4.048  0.6198 -0.4915  0.2368
   39DOPE   C22 4926   2.757   3.109   4.075  0.0779  0.4080 -1.0313
   39DOPE   H2R 4927   2.786   3.214   4.099  0.5566  0.4581 -1.7813
   39DOPE   H2S 4928   2.824   3.092   3.988  2.6556 -1.0941  1.1131
   39DOPE    C3 4929   2.351   2.887   3.927  0.1153 -0.2671  0.5965
   39DOPE    HX 4930   2.402   2.826   3.850  1.6708  0.5377  0.9460
   39DOPE    HY 4931   2.247   2.909   3.895  0.2696  0.8848  0.8608
   39DOPE   O31 4932   2.352   2.842   4.062 -0.2521  0.9325  0.1808
   39DOPE   C31 4933   2.439   2.745   4.081 -0.1592  0.1205  0.9139
   39DOPE   O32 4934   2.532   2.718   4.005  1.4210 -0.1370 -0.2086
   39DOPE   C32 4935   2.413   2.662   4.205 -0.0435  0.3930  0.3955
   39DOPE   H2X 4936   2.455   2.725   4.287 -0.5119  1.5611 -0.2306
   39DOPE   H2Y 4937   2.304   2.652   4.222 -0.1440  1.0795  0.2042
   39DOPE   C23 4938   2.785   3.017   4.194  0.7566 -0.4947 -1.0801
   39DOPE   H3R 4939   2.895   3.001   4.197  0.5666 -1.7306  0.3274
   39DOPE   H3S 4940   2.722   2.926   4.188  0.5612 -0.4367 -0.1119
   39DOPE   C24 4941   2.748   3.092   4.324 -0.3299 -0.3707 -0.2499
   39DOPE   H4R 4942   2.723   3.026   4.410  1.8504  1.2884  1.8084
   39DOPE   H4S 4943   2.660   3.151   4.291 -0.1227  0.1302  0.0780
   39DOPE   C25 4944   2.849   3.189   4.369 -0.1452 -0.1865 -0.2728
   39DOPE   H5R 4945   2.841   3.270   4.294 -2.0189 -1.3455 -1.3933
   39DOPE   H5S 4946   2.952   3.148   4.365  0.5345  1.0216  2.3012
   39DOPE   C26 4947   2.831   3.249   4.513 -0.2956  0.5945  0.4469
   39DOPE   H6R 4948   2.821   3.177   4.597 -1.8875  0.3461  0.0786
   39DOPE   H6S 4949   2.740   3.312   4.503 -1.8053 -1.5222  0.1191
   39DOPE   C27 4950   2.958   3.334   4.541 -0.1874 -1.0489 -0.2000
   39DOPE   H7R 4951   2.972   3.416   4.467  0.6210 -0.7408  0.2851
   39DOPE   H7S 4952   3.055   3.281   4.539  0.0523 -0.6143 -0.0684
   39DOPE   C28 4953   2.943   3.410   4.681  0.0177  0.3864 -0.5836
   39DOPE   H8R 4954   3.037   3.467   4.701 -0.6089  0.7691  1.4179
   39DOPE   H8S 4955   2.940   3.335   4.763  2.7704 -0.5289 -1.1992
   39DOPE   C29 4956   2.835   3.511   4.683 -0.0376 -0.3759 -0.0941
   39DOPE   H9R 4957   2.821   3.564   4.588  0.6422  1.4240  0.7532
   39DOPE  C210 4958   2.768   3.555   4.795 -0.5485 -0.2901 -0.1215
   39DOPE  H10R 4959   2.708   3.646   4.778 -1.3863 -0.8996 -0.5049
   39DOPE  C211 4960   2.802   3.513   4.936 -0.1068 -0.4326 -0.4591
   39DOPE  H11R 4961   2.875   3.430   4.943 -0.5324 -0.7471  0.4738
   39DOPE  H11S 4962   2.709   3.474   4.983  0.5842 -1.2517  0.2545
   39DOPE  C212 4963   2.861   3.618   5.025  0.4765 -0.2800  0.9992
   39DOPE  H12R 4964   2.872   3.564   5.122  1.0518  0.2181  1.2144
   39DOPE  H12S 4965   2.785   3.688   5.064  0.7392 -0.8604  2.6623
   39DOPE  C213 4966   3.000   3.670   4.971  0.2091 -0.0075  0.4869
   39DOPE  H13R 4967   3.007   3.773   5.012  1.2973  0.3315 -0.4951
   39DOPE  H13S 4968   3.006   3.671   4.860  0.9054 -0.9847  0.5068
   39DOPE  C214 4969   3.106   3.566   5.021 -0.8854 -0.1342 -0.3653
   39DOPE  H14R 4970   3.076   3.470   4.974  3.2663 -1.4257 -0.7513
   39DOPE  H14S 4971   3.108   3.552   5.131  0.4459  2.0652 -0.0504
   39DOPE  C215 4972   3.246   3.599   4.964 -0.0461 -0.6284 -0.9005
   39DOPE  H15R 4973   3.277   3.700   4.998 -2.9652  0.6957 -1.8751
   39DOPE  H15S 4974   3.239   3.599   4.853 -1.0509  1.4450 -0.8954
   39DOPE  C216 4975   3.354   3.495   5.013 -0.0921  0.3390  0.3972
   39DOPE  H16R 4976   3.318   3.390   5.003  1.8253 -0.3408  0.2549
   39DOPE  H16S 4977   3.360   3.503   5.124  0.1830 -3.6122  0.8308
   39DOPE  C217 4978   3.486   3.512   4.940 -0.4107  0.0489 -0.6514
   39DOPE  H17R 4979   3.562   3.451   4.992  0.7417  0.6212 -1.6262
   39DOPE  H17S 4980   3.515   3.616   4.965  1.5274 -0.9804  1.7300
   39DOPE  C218 4981   3.482   3.493   4.793 -0.3437 -0.2650  0.1814
   39DOPE  H18R 4982   3.423   3.576   4.749 -0.9449 -1.6324 -1.7076
   39DOPE  H18S 4983   3.445   3.392   4.764  1.0352 -0.4810 -0.9513
   39DOPE  H18T 4984   3.588   3.491   4.758  0.0339 -0.1585  1.2694
   39DOPE   C33 4985   2.481   2.524   4.212  0.3425 -0.2097 -0.8647
   39DOPE   H3X 4986   2.585   2.519   4.172  1.1732  0.4196  1.0788
   39DOPE   H3Y 4987   2.418   2.466   4.141 -0.3762 -1.0152  0.3888
   39DOPE   C34 4988   2.470   2.451   4.352  0.0607 -0.7085  0.2893
   39DOPE   H4X 4989   2.521   2.512   4.429 -0.4157 -1.2310  1.0266
   39DOPE   H4Y 4990   2.364   2.439   4.381 -0.5383  1.1393 -0.8974
   39DOPE   C35 4991   2.534   2.310   4.329  0.3496  0.7889  0.0558
   39DOPE   H5X 4992   2.510   2.277   4.226 -1.0416  1.6690  0.0699
   39DOPE   H5Y 4993   2.499   2.243   4.410  0.6052 -1.1458 -1.3741
   39DOPE   C36 4994   2.691   2.312   4.339 -0.0230  0.4534 -0.2620
   39DOPE   H6X 4995   2.723   2.356   4.435 -0.0463  1.2734 -0.6197
   39DOPE   H6Y 4996   2.731   2.380   4.261 -3.1203 -0.8739 -3.2648
   39DOPE   C37 4997   2.757   2.176   4.316  0.3736  0.1113 -0.0959
   39DOPE   H7X 4998   2.718   2.091   4.376  1.5250  0.2549  0.8930
   39DOPE   H7Y 4999   2.747   2.147   4.209 -0.8419 -1.2910  0.3714
   39DOPE   C38 5000   2.905   2.184   4.345 -0.1781 -0.4891 -0.1570
   39DOPE   H8X 5001   2.930   2.179   4.453  0.5135 -2.1652 -0.3525
   39DOPE   H8Y 5002   2.940   2.282   4.307  0.3403  0.0025  1.5054
   39DOPE   C39 5003   2.985   2.069   4.276 -0.0029 -0.3215  0.0511
   39DOPE   H9X 5004   3.011   2.090   4.171 -1.4001 -0.3020 -0.3134
   39DOPE  C310 5005   3.029   1.958   4.335 -1.0304  0.3027 -0.0683
   39DOPE  H10X 5006   3.073   1.881   4.270  2.0030  1.1016  0.8933
   39DOPE  C311 5007   2.996   1.919   4.480  0.8779 -0.1718 -0.0588
   39DOPE  H11X 5008   2.899   1.969   4.502  1.6330  0.6230  1.5495
   39DOPE  H11Y 5009   2.981   1.809   4.488  0.8232 -0.1259  0.4812
   39DOPE  C312 5010   3.096   1.955   4.585  0.1140  0.0913 -0.9953
   39DOPE  H12X 5011   3.108   2.065   4.599  1.4262 -0.2750  1.1675
   39DOPE  H12Y 5012   3.204   1.942   4.564  0.3651 -1.3629  0.8850
   39DOPE  C313 5013   3.079   1.875   4.716  0.1116  0.0190 -0.9424
   39DOPE  H13X 5014   3.088   1.768   4.689 -0.7484 -0.7505  1.5381
   39DOPE  H13Y 5015   3.168   1.897   4.779 -1.0558 -0.1180  0.8276
   39DOPE  C314 5016   2.947   1.904   4.796 -0.0441  1.1936 -0.2271
   39DOPE  H14X 5017   2.960   1.853   4.894 -0.5637  1.5656  0.0421
   39DOPE  H14Y 5018   2.864   1.849   4.747  1.2634 -0.6580 -0.4570
   39DOPE  C315 5019   2.922   2.050   4.797 -0.2146 -0.4406  0.1029
   39DOPE  H15X 5020   2.924   2.088   4.693 -0.8079  0.4688  0.4090
   39DOPE  H15Y 5021   3.003   2.103   4.852  2.0184 -1.5105 -1.9905
   39DOPE  C316 5022   2.793   2.099   4.858 -0.3871  0.8059 -0.1527
   39DOPE  H16X 5023   2.791   2.058   4.962  1.6271  1.6557  0.2657
   39DOPE  H16Y 5024   2.707   2.048   4.809  0.7355 -2.1074  0.6514
   39DOPE  C317 5025   2.778   2.253   4.869  0.7846  0.5305 -0.1748
   39DOPE  H17X 5026   2.862   2.288   4.932  0.1795 -1.7998  2.1064
   39DOPE  H17Y 5027   2.783   2.286   4.763  0.0948 -1.7828 -1.0033
   39DOPE  C318 5028   2.646   2.301   4.925  0.4652 -0.4496 -0.0921
   39DOPE  H18X 5029   2.647   2.252   5.025 -1.0784 -1.3498 -0.4771
   39DOPE  H18Y 5030   2.627   2.410   4.923 -0.3270 -0.5599 -2.7843
   39DOPE  H18Z 5031   2.562   2.247   4.876  1.2816  0.2130 -2.3347
   40DOPE     N 5032   4.889   4.818   2.248  0.2353  0.1004 -0.4994
   40DOPE   HN1 5033   4.880   4.737   2.184  1.4921 -0.3495 -0.1303
   40DOPE   HN2 5034   4.796   4.865   2.247  0.5854  0.9239 -2.7904
   40DOPE   HN3 5035   4.950   4.891   2.206 -0.6023 -0.1256 -2.2433
   40DOPE   C12 5036   4.926   4.776   2.389 -0.0486  0.4868  0.2076
   40DOPE  H12A 5037   4.932   4.870   2.448  1.0420  2.0415 -2.2322
   40DOPE  H12B 5038   5.032   4.743   2.378  0.8533  3.0576  0.5654
   40DOPE   C11 5039   4.832   4.669   2.452 -0.6545 -0.3102  0.2681
   40DOPE  H11A 5040   4.829   4.586   2.377 -0.6832 -0.1986  0.1460
   40DOPE  H11B 5041   4.730   4.709   2.470 -0.3992  1.0283 -1.1264
   40DOPE     P 5042   4.862   4.658   2.717 -0.3980 -0.1047  0.3704
   40DOPE   O13 5043   4.975   4.611   2.798 -0.8521  0.3617  0.2315
   40DOPE   O14 5044   4.731   4.596   2.740  0.2256 -0.3532 -0.2397
   40DOPE   O11 5045   4.863   4.822   2.711 -0.4670  0.0679  0.4040
   40DOPE   O12 5046   4.899   4.625   2.568 -0.6773  0.2483 -1.1794
   40DOPE    C1 5047   4.977   4.900   2.753  0.6555  0.0645 -0.3425
   40DOPE    HA 5048   4.963   5.004   2.718 -0.9399 -0.1033 -0.2653
   40DOPE    HB 5049   5.069   4.863   2.702  0.0011  0.8449 -2.1536
   40DOPE    C2 5050   4.997   4.919   2.910  0.8155  0.1371  0.9212
   40DOPE    HS 5051   4.974   4.821   2.956 -1.2279 -0.8194 -1.8370
   40DOPE   O21 5052   4.911   5.011   2.965 -0.0654 -0.4624 -0.3015
   40DOPE   C21 5053   4.798   4.981   3.013 -0.3086  0.4017  0.2428
   40DOPE   O22 5054   4.749   4.869   3.016 -0.0683 -0.2049 -0.5721
   40DOPE   C22 5055   4.734   5.112   3.060 -0.1395  0.1292 -0.1416
   40DOPE   H2R 5056   4.671   5.135   2.971 -1.0055  0.3447  0.5178
   40DOPE   H2S 5057   4.816   5.180   3.091  1.1074 -1.3483 -0.0689
   40DOPE    C3 5058   5.141   4.955   2.942  0.0636 -0.5999  0.7571
   40DOPE    HX 5059   5.179   5.047   2.891  1.6854 -0.2650  2.4347
   40DOPE    HY 5060   5.206   4.872   2.908  0.5579  0.7159 -1.7793
   40DOPE   O31 5061   5.163   4.963   3.088  0.7678  0.1181  0.0867
   40DOPE   C31 5062   5.165   5.081   3.141  0.1083  0.0515  0.5167
   40DOPE   O32 5063   5.106   5.175   3.089  0.0150  0.0813 -0.1355
   40DOPE   C32 5064   5.269   5.075   3.253  0.0784 -1.3821  0.9098
   40DOPE   H2X 5065   5.298   4.969   3.271  0.5751 -1.2810  0.7249
   40DOPE   H2Y 5066   5.360   5.131   3.220 -1.1718 -0.5019 -1.2649
   40DOPE   C23 5067   4.645   5.081   3.181 -0.0237 -0.2471 -0.7671
   40DOPE   H3R 5068   4.565   5.005   3.166 -0.4019 -0.0817  0.3330
   40DOPE   H3S 5069   4.583   5.171   3.198  0.2984 -0.1530 -0.0676
   40DOPE   C24 5070   4.713   5.057   3.315 -0.1784 -0.1826 -0.5594
   40DOPE   H4R 5071   4.773   4.964   3.319  0.1298  0.0290 -0.2632
   40DOPE   H4S 5072   4.619   5.046   3.374 -0.5735  2.3154 -0.6021
   40DOPE   C25 5073   4.777   5.189   3.362  0.4047  0.0477 -0.0100
   40DOPE   H5R 5074   4.696   5.264   3.359 -0.6211 -1.0550 -0.9765
   40DOPE   H5S 5075   4.860   5.219   3.294  0.5088  0.2323  0.1953
   40DOPE   C26 5076   4.836   5.180   3.503 -0.0948  0.0160 -0.1841
   40DOPE   H6R 5077   4.890   5.083   3.506 -0.1003 -0.0109 -0.8329
   40DOPE   H6S 5078   4.746   5.162   3.566  0.6550  0.4751  1.0523
   40DOPE   C27 5079   4.899   5.310   3.547  0.2598  0.8091  0.3354
   40DOPE   H7R 5080   4.832   5.394   3.518 -0.3429  0.3035  0.2411
   40DOPE   H7S 5081   4.990   5.329   3.485 -1.0452  3.3887 -0.9523
   40DOPE   C28 5082   4.928   5.319   3.694  0.3548 -0.3026 -0.3514
   40DOPE   H8R 5083   4.974   5.419   3.712  1.1025 -0.8385  0.8357
   40DOPE   H8S 5084   5.001   5.241   3.723  2.1130  1.6493  0.7280
   40DOPE   C29 5085   4.802   5.312   3.780  0.5051  0.8456  0.2496
   40DOPE   H9R 5086   4.709   5.360   3.745 -1.6683 -1.2129  2.7729
   40DOPE  C210 5087   4.794   5.253   3.900 -0.0617 -0.1825  0.2158
   40DOPE  H10R 5088   4.698   5.263   3.953 -1.3897 -2.7370 -1.5122
   40DOPE  C211 5089   4.907   5.194   3.974 -0.2073  0.0394  0.0398
   40DOPE  H11R 5090   5.008   5.209   3.930 -0.7900 -0.5277 -1.5551
   40DOPE  H11S 5091   4.890   5.085   3.960  0.3951 -0.1608  0.7956
   40DOPE  C212 5092   4.924   5.229   4.125  0.9201 -0.1996 -0.8733
   40DOPE  H12R 5093   4.832   5.217   4.186 -0.5537  1.6989 -2.5929
   40DOPE  H12S 5094   4.950   5.337   4.132 -0.5371  0.1342 -0.2510
   40DOPE  C213 5095   5.036   5.147   4.192  0.0925 -0.5099  0.8740
   40DOPE  H13R 5096   5.123   5.148   4.122  1.0930  1.9348  2.0236
   40DOPE  H13S 5097   4.991   5.047   4.205 -0.1662 -0.3313  1.3681
   40DOPE  C214 5098   5.081   5.198   4.331  1.0315  0.3824  0.5514
   40DOPE  H14R 5099   5.118   5.109   4.385  0.0167 -0.6432 -0.4093
   40DOPE  H14S 5100   4.995   5.233   4.393 -0.5115  1.1511 -1.8851
   40DOPE  C215 5101   5.191   5.299   4.336  0.1502  0.5061  0.0983
   40DOPE  H15R 5102   5.183   5.373   4.253 -1.9545 -1.8027 -1.8798
   40DOPE  H15S 5103   5.293   5.256   4.327  0.4717  1.5254 -1.4964
   40DOPE  C216 5104   5.193   5.380   4.470 -0.5955  0.9480 -0.1049
   40DOPE  H16R 5105   5.092   5.398   4.511 -1.6360  0.1899 -2.2414
   40DOPE  H16S 5106   5.237   5.481   4.450 -0.6265  0.7180 -1.3797
   40DOPE  C217 5107   5.275   5.315   4.580 -0.4189  0.0348 -0.2092
   40DOPE  H17R 5108   5.310   5.393   4.650 -0.2156 -0.7644  0.6008
   40DOPE  H17S 5109   5.369   5.272   4.541 -0.6267  0.3367 -1.0587
   40DOPE  C218 5110   5.195   5.218   4.672 -0.2514 -0.2363  0.7525
   40DOPE  H18R 5111   5.258   5.184   4.758  0.7630  4.6323  2.2675
   40DOPE  H18S 5112   5.153   5.137   4.608 -2.3192  1.5740 -0.3097
   40DOPE  H18T 5113   5.107   5.268   4.717  0.2008  0.5879  0.7548
   40DOPE   C33 5114   5.208   5.141   3.381 -0.2310  0.3528  0.4796
   40DOPE   H3X 5115   5.108   5.100   3.408 -0.9415  1.6924 -0.0416
   40DOPE   H3Y 5116   5.189   5.246   3.350  0.2290  0.6947  1.3395
   40DOPE   C34 5117   5.307   5.126   3.495  0.6991  0.0661  0.2725
   40DOPE   H4X 5118   5.263   5.067   3.578  0.9489 -1.1031 -0.3996
   40DOPE   H4Y 5119   5.403   5.084   3.457  0.2116  1.3596 -2.6531
   40DOPE   C35 5120   5.359   5.259   3.554 -0.2784  0.4559 -0.1335
   40DOPE   H5X 5121   5.276   5.333   3.547 -1.3011 -0.6559  0.0428
   40DOPE   H5Y 5122   5.424   5.298   3.473  0.6928 -0.9713 -0.0774
   40DOPE   C36 5123   5.440   5.251   3.691 -0.6358  0.6392 -0.4927
   40DOPE   H6X 5124   5.532   5.193   3.672 -0.5083  0.6411  0.1138
   40DOPE   H6Y 5125   5.383   5.188   3.762 -0.9980  0.1302 -1.2208
   40DOPE   C37 5126   5.465   5.384   3.751  0.7452 -0.6521 -0.2837
   40DOPE   H7X 5127   5.506   5.451   3.672  0.2846  2.0559  1.6222
   40DOPE   H7Y 5128   5.379   5.444   3.789  2.2967  1.3107  0.3079
   40DOPE   C38 5129   5.569   5.366   3.873  0.3560 -0.8701  0.1439
   40DOPE   H8X 5130   5.593   5.467   3.914  0.4416 -1.3967  1.4273
   40DOPE   H8Y 5131   5.661   5.327   3.824 -0.9656 -0.2068 -3.1265
   40DOPE   C39 5132   5.525   5.282   3.990 -0.0144 -0.0791 -0.0699
   40DOPE   H9X 5133   5.434   5.314   4.042  1.1116  1.9331  0.7736
   40DOPE  C310 5134   5.604   5.183   4.044  0.2062  0.0932  0.5222
   40DOPE  H10X 5135   5.578   5.124   4.134 -0.3670 -1.3139 -0.5308
   40DOPE  C311 5136   5.736   5.146   3.986  0.3175  0.4005 -0.5630
   40DOPE  H11X 5137   5.730   5.119   3.878  1.0761  0.1076 -0.5411
   40DOPE  H11Y 5138   5.804   5.233   4.000  1.2819 -0.4523  0.2227
   40DOPE  C312 5139   5.811   5.033   4.054 -0.3857  0.0140 -1.2143
   40DOPE  H12X 5140   5.900   5.014   3.990 -0.2750  1.9381 -1.6975
   40DOPE  H12Y 5141   5.750   4.944   4.029  1.6259 -0.8793 -3.3470
   40DOPE  C313 5142   5.841   5.045   4.198 -0.3673 -0.1985 -0.0307
   40DOPE  H13X 5143   5.921   5.121   4.212  0.6963 -1.4062  0.7422
   40DOPE  H13Y 5144   5.750   5.077   4.253  0.2335  3.4592 -0.9194
   40DOPE  C314 5145   5.917   4.925   4.264 -0.3533 -0.3259 -0.1675
   40DOPE  H14X 5146   5.994   4.885   4.195  0.4302  0.6210  0.1235
   40DOPE  H14Y 5147   5.855   4.834   4.276  0.6795 -1.0135  0.0543
   40DOPE  C315 5148   5.970   4.962   4.399  0.1065  0.2471 -0.0525
   40DOPE  H15X 5149   6.055   5.033   4.389  1.3891 -1.4682 -2.3286
   40DOPE  H15Y 5150   6.005   4.867   4.445 -1.8617  0.5955  2.3845
   40DOPE  C316 5151   5.858   5.010   4.496 -0.4431 -0.2453  0.7532
   40DOPE  H16X 5152   5.772   4.940   4.491 -0.1226 -0.6797  1.2840
   40DOPE  H16Y 5153   5.814   5.107   4.461 -1.3907 -1.0681 -0.4364
   40DOPE  C317 5154   5.905   5.021   4.637 -0.2760 -0.0422 -0.1404
   40DOPE  H17X 5155   5.931   4.918   4.669 -2.5894 -0.1652  1.6563
   40DOPE  H17Y 5156   5.994   5.083   4.658 -0.3748  0.1427 -0.2590
   40DOPE  C318 5157   5.797   5.057   4.726  0.2122  0.4521 -0.5331
   40DOPE  H18X 5158   5.760   5.162   4.722 -0.4689  0.2239 -0.4530
   40DOPE  H18Y 5159   5.707   4.994   4.710  0.1892  0.6218 -1.1147
   40DOPE  H18Z 5160   5.832   5.049   4.831  2.4735 -1.9964 -1.3698
   41DOPE     N 5161   3.868   4.394   2.951 -0.2041 -0.6927 -0.3566
   41DOPE   HN1 5162   3.853   4.318   2.881  1.0950  0.1671 -1.6113
   41DOPE   HN2 5163   3.803   4.467   2.916 -0.9285 -0.3209  1.6383
   41DOPE   HN3 5164   3.961   4.438   2.949 -0.6320  0.9902  4.3196
   41DOPE   C12 5165   3.835   4.353   3.090  0.5725  0.0114 -0.9350
   41DOPE  H12A 5166   3.813   4.449   3.143 -0.4440 -1.5186  1.5865
   41DOPE  H12B 5167   3.925   4.303   3.133  0.1514  0.2819  0.2931
   41DOPE   C11 5168   3.712   4.259   3.101 -0.2627  0.4954  0.3423
   41DOPE  H11A 5169   3.697   4.251   3.211 -1.0592  0.4379  0.2327
   41DOPE  H11B 5170   3.753   4.166   3.055 -0.6919  0.0387  0.8657
   41DOPE     P 5171   3.454   4.252   3.070  0.2229  0.0965 -0.1796
   41DOPE   O13 5172   3.467   4.107   3.085 -0.1239 -0.0762  0.4623
   41DOPE   O14 5173   3.357   4.292   2.963  0.2557  0.1490 -0.6223
   41DOPE   O11 5174   3.420   4.321   3.210  0.7606 -0.3138  0.5821
   41DOPE   O12 5175   3.594   4.316   3.035 -0.2741  1.0045  1.0166
   41DOPE    C1 5176   3.435   4.461   3.220 -0.2405 -0.0660 -0.5479
   41DOPE    HA 5177   3.364   4.521   3.159  0.8034  3.8277  1.6736
   41DOPE    HB 5178   3.541   4.493   3.213 -0.0917 -0.5014 -0.3515
   41DOPE    C2 5179   3.381   4.492   3.362 -0.1663 -0.2996 -0.1358
   41DOPE    HS 5180   3.362   4.601   3.362  0.1250 -0.2481  0.1054
   41DOPE   O21 5181   3.475   4.452   3.470 -0.4468  0.0371  0.6708
   41DOPE   C21 5182   3.574   4.535   3.501  0.5274  0.1231 -0.5365
   41DOPE   O22 5183   3.612   4.636   3.443  0.9339  0.0050  0.6705
   41DOPE   C22 5184   3.643   4.481   3.633  0.2267 -0.2010  0.3545
   41DOPE   H2R 5185   3.749   4.516   3.630  0.5154 -0.9781  1.2489
   41DOPE   H2S 5186   3.643   4.370   3.632  2.1449 -0.2475 -1.2940
   41DOPE    C3 5187   3.251   4.423   3.392 -0.1996  0.0893  0.8153
   41DOPE    HX 5188   3.271   4.313   3.396  0.1477  0.0523 -1.1188
   41DOPE    HY 5189   3.182   4.442   3.308 -1.1713 -1.0154  1.3315
   41DOPE   O31 5190   3.187   4.472   3.512 -0.3713  0.0288 -0.2389
   41DOPE   C31 5191   3.076   4.410   3.543  0.0295 -0.9749 -0.2555
   41DOPE   O32 5192   3.024   4.326   3.469 -0.6795 -0.3985  0.0689
   41DOPE   C32 5193   3.013   4.459   3.678  0.4260  0.8159 -0.8054
   41DOPE   H2X 5194   3.098   4.483   3.745  0.9898 -0.9646 -0.8035
   41DOPE   H2Y 5195   2.954   4.550   3.658  0.8189  1.4167  0.6638
   41DOPE   C23 5196   3.581   4.538   3.760  0.2022 -0.9293 -0.2339
   41DOPE   H3R 5197   3.474   4.510   3.769  0.2226 -1.9721 -2.3609
   41DOPE   H3S 5198   3.577   4.648   3.748  1.7419 -0.3246  3.5653
   41DOPE   C24 5199   3.648   4.494   3.891 -0.0520  0.5352 -0.3301
   41DOPE   H4R 5200   3.756   4.518   3.883  0.2363 -0.5974  0.0251
   41DOPE   H4S 5201   3.651   4.383   3.891 -0.8536  0.5014 -0.7983
   41DOPE   C25 5202   3.590   4.558   4.022 -0.6134  0.3713  0.5707
   41DOPE   H5R 5203   3.481   4.546   4.006 -0.5426  0.0765  0.3062
   41DOPE   H5S 5204   3.605   4.667   4.011 -2.6128  0.5231 -1.2726
   41DOPE   C26 5205   3.627   4.482   4.147 -0.6477  0.0329 -0.5840
   41DOPE   H6R 5206   3.617   4.373   4.131  2.5763 -0.4849  0.2348
   41DOPE   H6S 5207   3.564   4.504   4.236  1.7793  2.1644  0.7567
   41DOPE   C27 5208   3.772   4.500   4.187 -0.7185  0.1822 -0.4011
   41DOPE   H7R 5209   3.807   4.596   4.142 -0.2501  0.5158  0.6440
   41DOPE   H7S 5210   3.835   4.416   4.151 -0.6293 -0.5482  1.3678
   41DOPE   C28 5211   3.789   4.524   4.339 -0.4208  0.2273 -0.1658
   41DOPE   H8R 5212   3.742   4.435   4.385 -0.7161 -0.2986 -1.4307
   41DOPE   H8S 5213   3.722   4.607   4.371  0.4071  0.4507  1.0695
   41DOPE   C29 5214   3.929   4.530   4.393  0.3050  0.1683  0.9520
   41DOPE   H9R 5215   3.984   4.438   4.419  2.7047  1.3782  0.5019
   41DOPE  C210 5216   4.005   4.639   4.405 -0.0773  0.7176 -0.5933
   41DOPE  H10R 5217   4.111   4.620   4.429 -0.7512 -2.5003  0.3237
   41DOPE  C211 5218   3.975   4.787   4.383 -0.3692 -0.5567  0.1337
   41DOPE  H11R 5219   3.872   4.796   4.341 -0.5206 -0.3080  0.5534
   41DOPE  H11S 5220   4.038   4.829   4.302  0.8012 -0.2889  1.1540
   41DOPE  C212 5221   3.977   4.875   4.504  0.3942 -0.3695  0.2686
   41DOPE  H12R 5222   3.924   4.971   4.490  0.2372 -0.3935  0.6960
   41DOPE  H12S 5223   4.081   4.898   4.537  0.4660 -1.9772  1.2719
   41DOPE  C213 5224   3.911   4.814   4.627  0.3297 -0.3831 -0.0478
   41DOPE  H13R 5225   3.972   4.728   4.664 -2.2625 -3.1280 -1.7640
   41DOPE  H13S 5226   3.814   4.771   4.595  0.0595 -0.1047  0.4032
   41DOPE  C214 5227   3.895   4.914   4.744 -0.0120 -0.4928  0.0089
   41DOPE  H14R 5228   3.819   4.991   4.718  0.1675  0.2701  1.6083
   41DOPE  H14S 5229   3.996   4.960   4.757 -0.3652  0.5851 -0.9205
   41DOPE  C215 5230   3.850   4.850   4.877 -0.4792 -0.0628  1.3844
   41DOPE  H15R 5231   3.775   4.776   4.844 -1.9802  0.8642  2.6155
   41DOPE  H15S 5232   3.798   4.925   4.940  0.8086  2.0777  0.0641
   41DOPE  C216 5233   3.955   4.785   4.956  0.4311  0.3092  0.5258
   41DOPE  H16R 5234   4.048   4.768   4.897  0.4314  0.6998  0.4110
   41DOPE  H16S 5235   3.915   4.687   4.989 -2.7747  0.3600 -2.5975
   41DOPE  C217 5236   3.985   4.859   5.085  0.9016  0.4332 -0.0657
   41DOPE  H17R 5237   3.886   4.875   5.133 -0.4698 -1.2952 -2.1250
   41DOPE  H17S 5238   4.027   4.960   5.065  0.9803  0.7030  1.3793
   41DOPE  C218 5239   4.080   4.785   5.181  0.3854 -0.4687 -0.6326
   41DOPE  H18R 5240   4.027   4.731   5.262  1.6439 -1.3031 -0.3215
   41DOPE  H18S 5241   4.148   4.866   5.215  0.6350 -1.3107  0.9450
   41DOPE  H18T 5242   4.146   4.708   5.135  1.0148  0.3418 -1.0979
   41DOPE   C33 5243   2.921   4.353   3.737 -0.3776 -0.3657 -0.0737
   41DOPE   H3X 5244   2.984   4.262   3.746  1.1034  0.4180 -1.7290
   41DOPE   H3Y 5245   2.844   4.324   3.663  1.9497 -0.2376 -2.7366
   41DOPE   C34 5246   2.863   4.396   3.876  0.4871  0.0227 -0.2104
   41DOPE   H4X 5247   2.829   4.302   3.925 -1.9976  1.3417  0.7648
   41DOPE   H4Y 5248   2.934   4.445   3.945 -1.2675 -0.1644  1.8454
   41DOPE   C35 5249   2.739   4.480   3.863 -0.7762 -0.0996  0.1781
   41DOPE   H5X 5250   2.664   4.433   3.796 -0.2678 -0.2603 -0.2857
   41DOPE   H5Y 5251   2.765   4.573   3.808 -1.0191 -0.6608 -0.9014
   41DOPE   C36 5252   2.663   4.520   3.995  0.9662  0.3499 -0.1614
   41DOPE   H6X 5253   2.734   4.524   4.080  0.4501 -0.0293  0.2919
   41DOPE   H6Y 5254   2.586   4.443   4.018  0.5443  1.0309  0.7453
   41DOPE   C37 5255   2.595   4.662   3.979 -0.1611  0.5506  0.3706
   41DOPE   H7X 5256   2.679   4.733   3.961 -0.8731  1.5076  0.7886
   41DOPE   H7Y 5257   2.525   4.655   3.893  1.2197  0.8242 -0.8224
   41DOPE   C38 5258   2.521   4.707   4.097 -0.0720 -0.4609  0.0005
   41DOPE   H8X 5259   2.569   4.673   4.192  0.1805  0.7664  0.3303
   41DOPE   H8Y 5260   2.422   4.657   4.096 -0.8286  0.9755 -1.3380
   41DOPE   C39 5261   2.490   4.853   4.099 -0.0323  0.0306 -0.8097
   41DOPE   H9X 5262   2.446   4.891   4.006  1.6328  0.0554 -1.6228
   41DOPE  C310 5263   2.521   4.936   4.198 -0.4089 -0.2915 -0.7033
   41DOPE  H10X 5264   2.504   5.044   4.185 -1.3818 -0.4888 -1.0892
   41DOPE  C311 5265   2.605   4.888   4.319  0.3444 -0.8763 -0.1006
   41DOPE  H11X 5266   2.670   4.798   4.311  1.5872  0.0819 -1.1535
   41DOPE  H11Y 5267   2.680   4.961   4.356 -0.2766  0.3423 -1.2047
   41DOPE  C312 5268   2.510   4.869   4.433  0.2187 -0.3942  0.1075
   41DOPE  H12X 5269   2.425   4.805   4.403  1.0667 -0.3202 -2.7281
   41DOPE  H12Y 5270   2.468   4.967   4.466 -0.2962 -0.5301 -0.1399
   41DOPE  C313 5271   2.592   4.811   4.552 -0.0404  0.3807 -0.0840
   41DOPE  H13X 5272   2.690   4.863   4.555 -0.5170  1.5399 -2.3791
   41DOPE  H13Y 5273   2.532   4.816   4.645 -1.3908 -1.1000 -0.8277
   41DOPE  C314 5274   2.612   4.658   4.538  0.0690 -0.5075  0.5269
   41DOPE  H14X 5275   2.651   4.626   4.439 -0.9715 -1.4328  0.3938
   41DOPE  H14Y 5276   2.511   4.611   4.544  0.6161 -1.6114  1.5531
   41DOPE  C315 5277   2.693   4.586   4.643 -0.1865  0.3053 -0.0352
   41DOPE  H15X 5278   2.683   4.480   4.613  2.5484 -0.0907  0.2019
   41DOPE  H15Y 5279   2.643   4.600   4.742  0.7499 -2.4865  0.9369
   41DOPE  C316 5280   2.841   4.612   4.628 -0.1899  0.5268 -0.1466
   41DOPE  H16X 5281   2.866   4.698   4.694 -0.8773 -0.6045  1.6667
   41DOPE  H16Y 5282   2.870   4.638   4.524 -0.6660 -0.1653 -0.4590
   41DOPE  C317 5283   2.924   4.494   4.684  0.3663 -1.0499 -1.2719
   41DOPE  H17X 5284   2.902   4.494   4.793 -0.7173  5.0426 -1.1376
   41DOPE  H17Y 5285   2.894   4.396   4.640  1.5034 -2.5726  1.1323
   41DOPE  C318 5286   3.078   4.504   4.659  0.3910 -0.0705  0.2294
   41DOPE  H18X 5287   3.107   4.605   4.693 -0.7736  0.3398  0.0349
   41DOPE  H18Y 5288   3.138   4.433   4.720  1.4442  0.4688 -0.1404
   41DOPE  H18Z 5289   3.109   4.493   4.552  0.8604  0.2436  0.3275
   42DOPE     N 5290   2.155   4.655   3.073  0.0044  0.0722 -0.3905
   42DOPE   HN1 5291   2.145   4.579   3.003 -2.1885  0.2803 -0.3952
   42DOPE   HN2 5292   2.121   4.744   3.032  2.1584  1.0563 -0.1284
   42DOPE   HN3 5293   2.256   4.666   3.094 -0.5901  2.5739  1.6350
   42DOPE   C12 5294   2.092   4.621   3.209 -0.0103  0.3077  0.8207
   42DOPE  H12A 5295   2.164   4.566   3.273  0.8628  1.8342  1.2134
   42DOPE  H12B 5296   2.005   4.558   3.181  1.3783 -1.2630 -0.0684
   42DOPE   C11 5297   2.051   4.747   3.274  0.2661 -0.2051 -0.2115
   42DOPE  H11A 5298   2.133   4.822   3.278  1.4722 -1.4391 -0.7658
   42DOPE  H11B 5299   2.032   4.719   3.380 -1.1929 -0.3766 -0.5042
   42DOPE     P 5300   1.818   4.885   3.285  0.3323  0.0673  0.1917
   42DOPE   O13 5301   1.716   4.907   3.182 -0.4070 -0.6404  0.0961
   42DOPE   O14 5302   1.877   5.006   3.347 -0.0856 -0.1702 -0.6226
   42DOPE   O11 5303   1.761   4.788   3.394  0.0523  0.2152  0.5269
   42DOPE   O12 5304   1.935   4.799   3.215  0.2538 -0.5463  0.0973
   42DOPE    C1 5305   1.710   4.840   3.514 -0.7419  0.5521 -0.1697
   42DOPE    HA 5306   1.613   4.791   3.537 -0.8943  1.0694  0.3116
   42DOPE    HB 5307   1.689   4.949   3.506 -1.1467  0.5834  1.1185
   42DOPE    C2 5308   1.801   4.829   3.643 -0.1229 -0.0378  0.8574
   42DOPE    HS 5309   1.747   4.867   3.732 -0.6033 -0.7478  0.8734
   42DOPE   O21 5310   1.917   4.911   3.618  0.2564 -0.2581  0.4138
   42DOPE   C21 5311   1.929   5.035   3.669 -0.2040 -0.2077  0.6887
   42DOPE   O22 5312   1.835   5.100   3.715  0.0551 -0.1186 -0.0908
   42DOPE   C22 5313   2.066   5.094   3.661  0.0793 -0.1494 -0.2184
   42DOPE   H2R 5314   2.066   5.180   3.591 -0.2874 -0.1804 -0.2581
   42DOPE   H2S 5315   2.140   5.022   3.619  0.3349 -0.8881  1.4400
   42DOPE    C3 5316   1.851   4.685   3.652  0.8753 -0.0319  0.3261
   42DOPE    HX 5317   1.946   4.675   3.710  1.8008  2.9137 -0.5028
   42DOPE    HY 5318   1.888   4.653   3.552 -3.0242 -2.4061 -0.5743
   42DOPE   O31 5319   1.746   4.595   3.694 -0.3018  0.3676  0.4324
   42DOPE   C31 5320   1.777   4.468   3.683 -0.0130  0.3160  1.0619
   42DOPE   O32 5321   1.880   4.419   3.634 -0.4676  0.6415 -0.3484
   42DOPE   C32 5322   1.659   4.389   3.737  0.4390 -0.3154 -0.4255
   42DOPE   H2X 5323   1.581   4.391   3.658  0.3770 -0.5578 -0.3713
   42DOPE   H2Y 5324   1.688   4.286   3.767  1.3925  0.7761  2.8265
   42DOPE   C23 5325   2.121   5.138   3.805 -0.4092  0.0055 -0.1648
   42DOPE   H3R 5326   2.050   5.198   3.866 -0.7977 -0.4828 -0.1295
   42DOPE   H3S 5327   2.212   5.200   3.797 -0.3961 -0.1788 -1.7190
   42DOPE   C24 5328   2.161   5.022   3.895  0.9979 -0.0395 -0.1706
   42DOPE   H4R 5329   2.222   5.064   3.978 -0.5218  1.1653  0.3976
   42DOPE   H4S 5330   2.221   4.947   3.839 -2.1045 -3.1211  0.2427
   42DOPE   C25 5331   2.039   4.944   3.948 -0.4047 -0.7569  0.7351
   42DOPE   H5R 5332   2.009   4.875   3.867  0.7516 -0.4047 -0.0217
   42DOPE   H5S 5333   1.958   5.018   3.966 -0.4472 -1.1698  2.4225
   42DOPE   C26 5334   2.061   4.849   4.067 -0.8255  0.6185 -0.1263
   42DOPE   H6R 5335   2.147   4.779   4.065 -2.2216 -1.2230  0.7880
   42DOPE   H6S 5336   1.965   4.794   4.081 -0.3487 -0.5136 -1.1249
   42DOPE   C27 5337   2.072   4.918   4.203  0.4831 -0.5472 -0.1744
   42DOPE   H7R 5338   1.981   4.977   4.226  0.7964  0.0609 -0.4699
   42DOPE   H7S 5339   2.154   4.991   4.185 -0.7448  0.9275  0.0223
   42DOPE   C28 5340   2.100   4.821   4.322  0.2489  0.3830 -0.0035
   42DOPE   H8R 5341   2.105   4.879   4.417 -0.7041 -1.2589  1.0973
   42DOPE   H8S 5342   2.202   4.781   4.303  0.0399 -1.2399  1.9715
   42DOPE   C29 5343   1.990   4.717   4.329  0.6649 -0.6657 -0.5485
   42DOPE   H9R 5344   1.892   4.758   4.357  1.4106  0.4244  0.5373
   42DOPE  C210 5345   2.000   4.590   4.298  0.0023 -0.2174  0.6869
   42DOPE  H10R 5346   1.905   4.534   4.293  1.0414 -2.2263  2.0112
   42DOPE  C211 5347   2.120   4.528   4.237 -0.1990 -0.1637  0.2246
   42DOPE  H11R 5348   2.158   4.441   4.295 -0.2585 -0.2837  0.0839
   42DOPE  H11S 5349   2.209   4.595   4.235 -0.3858  0.1229  1.0531
   42DOPE  C212 5350   2.083   4.469   4.102 -0.1863  0.3198  0.8484
   42DOPE  H12R 5351   2.069   4.563   4.044  2.2663  1.8516  2.5258
   42DOPE  H12S 5352   1.988   4.412   4.103  0.1175 -0.2144  0.1796
   42DOPE  C213 5353   2.210   4.404   4.043  0.9324 -0.1033  0.1747
   42DOPE  H13R 5354   2.229   4.317   4.108  2.0109  1.0106  1.4158
   42DOPE  H13S 5355   2.306   4.459   4.031  1.1432  0.4180  3.3336
   42DOPE  C214 5356   2.172   4.350   3.900  0.3053  0.1129  0.1775
   42DOPE  H14R 5357   2.080   4.288   3.905 -0.1095  0.6852 -0.2273
   42DOPE  H14S 5358   2.252   4.279   3.871  0.6544  0.6100 -0.0897
   42DOPE  C215 5359   2.154   4.460   3.791 -0.3236  0.3958 -0.7026
   42DOPE  H15R 5360   2.060   4.513   3.814 -0.2078 -0.2772  1.5547
   42DOPE  H15S 5361   2.143   4.404   3.695 -1.1823 -2.8439  1.1272
   42DOPE  C216 5362   2.277   4.556   3.786  0.2451 -0.2326 -0.2317
   42DOPE  H16R 5363   2.372   4.501   3.771  0.1329  0.1429 -2.9611
   42DOPE  H16S 5364   2.267   4.615   3.880 -0.7137 -0.7381 -0.0060
   42DOPE  C217 5365   2.253   4.653   3.668  0.2094  0.4378 -0.1776
   42DOPE  H17R 5366   2.171   4.721   3.700  2.0674  2.3506  0.7623
   42DOPE  H17S 5367   2.220   4.582   3.589 -1.1375 -1.1210  1.7094
   42DOPE  C218 5368   2.369   4.744   3.626  0.3906 -0.5265 -0.3626
   42DOPE  H18R 5369   2.387   4.826   3.699 -0.2844  0.5302 -1.3547
   42DOPE  H18S 5370   2.352   4.800   3.532 -0.1424  1.7667  1.0156
   42DOPE  H18T 5371   2.464   4.687   3.614  0.6504 -0.3261  0.6493
   42DOPE   C33 5372   1.607   4.443   3.880  0.7008 -0.8803  0.5398
   42DOPE   H3X 5373   1.512   4.392   3.909 -0.3842  1.6152  1.6751
   42DOPE   H3Y 5374   1.575   4.549   3.870 -1.8393 -1.7291 -1.5212
   42DOPE   C34 5375   1.698   4.418   3.995 -0.3210 -0.9002 -0.1256
   42DOPE   H4X 5376   1.681   4.312   4.025 -0.6267 -0.9397 -0.4344
   42DOPE   H4Y 5377   1.798   4.447   3.958 -1.4334  0.6696 -2.1258
   42DOPE   C35 5378   1.655   4.516   4.110  0.3647 -0.6191 -0.5923
   42DOPE   H5X 5379   1.682   4.621   4.090 -2.9898  0.4834  0.0609
   42DOPE   H5Y 5380   1.719   4.492   4.198  0.3381 -0.8788 -0.6406
   42DOPE   C36 5381   1.496   4.519   4.141 -0.2859 -0.6540  0.7199
   42DOPE   H6X 5382   1.452   4.418   4.154 -1.2956 -0.2198  0.7311
   42DOPE   H6Y 5383   1.440   4.580   4.068  0.1518  0.6486  1.4465
   42DOPE   C37 5384   1.481   4.594   4.279  0.2599 -0.1388  0.0606
   42DOPE   H7X 5385   1.537   4.531   4.352 -0.7529 -0.7455  0.3398
   42DOPE   H7Y 5386   1.544   4.685   4.266  2.2911 -1.1189  2.2754
   42DOPE   C38 5387   1.337   4.605   4.328 -0.1467 -0.4493  0.5811
   42DOPE   H8X 5388   1.298   4.515   4.381  0.4270 -1.4201 -0.6118
   42DOPE   H8Y 5389   1.276   4.599   4.236 -0.6552  0.5078  0.8449
   42DOPE   C39 5390   1.298   4.729   4.411 -0.3003 -0.5310  0.1633
   42DOPE   H9X 5391   1.293   4.825   4.359  1.7761 -0.4686 -0.0272
   42DOPE  C310 5392   1.268   4.731   4.539 -0.1213 -0.0241  0.2145
   42DOPE  H10X 5393   1.210   4.821   4.563  1.1785  0.4060  1.8818
   42DOPE  C311 5394   1.268   4.623   4.644  0.4551 -0.8546  0.4885
   42DOPE  H11X 5395   1.190   4.544   4.638  0.5490 -0.8978 -0.3705
   42DOPE  H11Y 5396   1.369   4.576   4.651  0.5079 -0.6176  1.4612
   42DOPE  C312 5397   1.253   4.684   4.791  0.0454 -0.5321  1.0028
   42DOPE  H12X 5398   1.324   4.769   4.796  0.7497 -1.0816  0.5396
   42DOPE  H12Y 5399   1.271   4.595   4.855  0.9824 -2.5610 -1.8431
   42DOPE  C313 5400   1.108   4.730   4.816 -0.1238 -0.3602  0.1113
   42DOPE  H13X 5401   1.068   4.805   4.745 -0.3007  0.8289  1.4122
   42DOPE  H13Y 5402   1.043   4.639   4.816 -0.4361 -0.1506  1.1857
   42DOPE  C314 5403   1.094   4.781   4.959 -0.5232 -0.5330 -0.4761
   42DOPE  H14X 5404   1.119   4.889   4.956 -1.4535 -0.3296 -1.8927
   42DOPE  H14Y 5405   1.151   4.729   5.039 -2.0509  0.4207  1.3263
   42DOPE  C315 5406   0.946   4.788   5.007 -0.2189  0.3721 -0.6232
   42DOPE  H15X 5407   0.900   4.687   5.012  0.4306  0.1141  1.0755
   42DOPE  H15Y 5408   0.889   4.839   4.926  0.8120  1.2313 -0.8336
   42DOPE  C316 5409   0.931   4.853   5.150 -0.1650 -0.1104 -0.0632
   42DOPE  H16X 5410   1.008   4.932   5.160  0.3775 -0.6618  0.1656
   42DOPE  H16Y 5411   0.965   4.775   5.223  0.2279 -0.6053 -0.7662
   42DOPE  C317 5412   0.789   4.913   5.168  0.2084 -0.0629  0.2284
   42DOPE  H17X 5413   0.786   5.019   5.132 -0.3935 -0.3750 -0.6865
   42DOPE  H17Y 5414   0.711   4.873   5.100 -0.1147  2.1281 -0.7999
   42DOPE  C318 5415   0.732   4.898   5.313  0.1458 -0.2189 -1.0750
   42DOPE  H18X 5416   0.713   4.791   5.332  2.1433 -0.7130 -1.6229
   42DOPE  H18Y 5417   0.797   4.953   5.386 -1.6989  0.4360  0.1512
   42DOPE  H18Z 5418   0.630   4.942   5.308  0.4922  0.5896 -1.2433
   43DOPE     N 5419   1.782   2.043   3.581 -0.0211  0.2525 -0.0582
   43DOPE   HN1 5420   1.851   1.966   3.570 -1.1273 -0.5490 -1.6476
   43DOPE   HN2 5421   1.814   2.093   3.667  0.1057  0.3159 -0.1412
   43DOPE   HN3 5422   1.691   2.002   3.609  0.2200  0.3718  0.9530
   43DOPE   C12 5423   1.785   2.131   3.462  0.4436 -0.6537 -0.3614
   43DOPE  H12A 5424   1.714   2.215   3.478 -0.5013 -1.7630  1.5307
   43DOPE  H12B 5425   1.756   2.067   3.376 -1.4533  1.1077 -1.1044
   43DOPE   C11 5426   1.920   2.202   3.445 -0.0404  0.4095 -0.0421
   43DOPE  H11A 5427   1.938   2.267   3.357 -1.3488  0.0246 -0.6194
   43DOPE  H11B 5428   1.982   2.112   3.426  0.4300  0.9011 -0.8817
   43DOPE     P 5429   2.080   2.366   3.572 -0.7201  0.0857 -0.6721
   43DOPE   O13 5430   2.066   2.444   3.696  0.1924  1.0254 -0.1386
   43DOPE   O14 5431   2.081   2.451   3.453 -0.1887  0.0814  0.3907
   43DOPE   O11 5432   2.216   2.286   3.583 -0.4747 -0.0624 -0.4634
   43DOPE   O12 5433   1.962   2.256   3.569  0.3169 -0.0153 -0.1537
   43DOPE    C1 5434   2.217   2.142   3.622  0.4323 -0.3081  0.4204
   43DOPE    HA 5435   2.298   2.093   3.565  0.9080 -1.0652  1.7021
   43DOPE    HB 5436   2.120   2.091   3.604 -0.4949  1.3803  0.4464
   43DOPE    C2 5437   2.234   2.123   3.778 -0.0548  0.2864  0.4005
   43DOPE    HS 5438   2.170   2.190   3.839 -1.9805  0.7167 -1.9201
   43DOPE   O21 5439   2.380   2.141   3.798  0.5926  0.3036 -0.4605
   43DOPE   C21 5440   2.411   2.188   3.915  0.3811  0.3600  0.0983
   43DOPE   O22 5441   2.333   2.229   4.001 -0.8109 -0.0311 -0.5047
   43DOPE   C22 5442   2.563   2.180   3.935  0.3186  0.1835  0.0810
   43DOPE   H2R 5443   2.599   2.260   4.004 -0.3247 -0.4789  1.2146
   43DOPE   H2S 5444   2.614   2.192   3.837 -1.8446  2.3568 -0.8793
   43DOPE    C3 5445   2.209   1.983   3.832 -0.4932  1.2077  0.5415
   43DOPE    HX 5446   2.281   1.918   3.778 -1.0638 -1.4468  2.7335
   43DOPE    HY 5447   2.113   1.941   3.796  0.3934 -1.5358  1.1247
   43DOPE   O31 5448   2.239   1.965   3.974  0.3915  0.0333  0.6499
   43DOPE   C31 5449   2.135   2.010   4.047  0.0661  0.3072  0.0226
   43DOPE   O32 5450   2.032   2.056   4.007 -0.0441  0.0408 -0.1359
   43DOPE   C32 5451   2.178   1.998   4.193  0.2240 -0.2166 -0.6957
   43DOPE   H2X 5452   2.174   1.888   4.209 -0.8261 -0.6048 -3.2273
   43DOPE   H2Y 5453   2.281   2.040   4.192  0.8613 -1.7275 -0.3717
   43DOPE   C23 5454   2.594   2.038   3.989 -0.2251  0.2375  0.4266
   43DOPE   H3R 5455   2.542   2.005   4.082 -1.8633  0.3393 -0.4101
   43DOPE   H3S 5456   2.701   2.042   4.017 -0.3526 -0.5921  1.0644
   43DOPE   C24 5457   2.568   1.929   3.887 -0.3509 -0.0435 -0.4447
   43DOPE   H4R 5458   2.623   1.956   3.794  0.3322 -0.3353 -0.1336
   43DOPE   H4S 5459   2.460   1.929   3.862 -0.2318 -0.7658 -1.0252
   43DOPE   C25 5460   2.609   1.791   3.945 -0.0029  0.3741 -0.3736
   43DOPE   H5R 5461   2.589   1.710   3.872  2.1802  0.8356 -1.5606
   43DOPE   H5S 5462   2.556   1.779   4.042 -0.4021  0.2223 -0.6039
   43DOPE   C26 5463   2.762   1.786   3.968  0.4270  0.3942 -0.5527
   43DOPE   H6R 5464   2.783   1.842   4.061  1.4431 -0.5067 -0.2235
   43DOPE   H6S 5465   2.820   1.826   3.882  1.1159  1.7771  0.5056
   43DOPE   C27 5466   2.810   1.643   3.987 -0.0759  0.5845 -0.6156
   43DOPE   H7R 5467   2.772   1.580   3.904  0.4478  1.2323 -1.3489
   43DOPE   H7S 5468   2.755   1.609   4.078 -0.0351 -0.3368 -0.9302
   43DOPE   C28 5469   2.962   1.635   4.027 -0.2978 -0.8065 -0.6107
   43DOPE   H8R 5470   2.977   1.709   4.108 -0.7801  2.1970 -3.0688
   43DOPE   H8S 5471   3.009   1.670   3.932 -2.2709 -1.4723 -1.8987
   43DOPE   C29 5472   3.013   1.505   4.073 -0.1362 -0.4747  0.4899
   43DOPE   H9R 5473   3.031   1.421   4.005  0.5774 -0.8328  1.1060
   43DOPE  C210 5474   3.053   1.484   4.199 -0.3824  0.9816  0.0292
   43DOPE  H10R 5475   3.109   1.392   4.224  1.4599  1.8143 -0.7994
   43DOPE  C211 5476   3.044   1.577   4.311  0.1079 -0.3635 -0.5318
   43DOPE  H11R 5477   2.963   1.652   4.296  1.5370  1.1554 -0.9103
   43DOPE  H11S 5478   3.135   1.638   4.329  0.4768 -0.9631 -0.3335
   43DOPE  C212 5479   3.011   1.511   4.444  0.3183 -0.3969 -0.0059
   43DOPE  H12R 5480   2.922   1.447   4.434  0.9149 -1.3962  0.7989
   43DOPE  H12S 5481   2.980   1.595   4.509 -0.5158 -0.3745 -0.4254
   43DOPE  C213 5482   3.128   1.435   4.503  0.1956  0.2668  0.8734
   43DOPE  H13R 5483   3.227   1.481   4.523  1.5786 -1.8390 -0.6628
   43DOPE  H13S 5484   3.154   1.360   4.425  0.8282  1.0707  0.2885
   43DOPE  C214 5485   3.088   1.362   4.626  1.6425  0.1193  0.1179
   43DOPE  H14R 5486   3.000   1.295   4.615  2.1755 -0.5807  0.0670
   43DOPE  H14S 5487   3.065   1.428   4.712  2.2419  0.5294 -0.0304
   43DOPE  C215 5488   3.194   1.268   4.686  0.9312 -0.1153 -0.4608
   43DOPE  H15R 5489   3.278   1.328   4.724  0.2915  1.0598 -0.8522
   43DOPE  H15S 5490   3.241   1.208   4.605  1.8331  2.1527 -1.7056
   43DOPE  C216 5491   3.131   1.167   4.783 -0.1716  0.0085 -0.3167
   43DOPE  H16R 5492   3.085   1.085   4.725  0.1949  1.4163 -2.7157
   43DOPE  H16S 5493   3.047   1.217   4.835 -0.6075 -1.4543  0.4439
   43DOPE  C217 5494   3.226   1.118   4.888 -0.4270 -0.5842  0.3064
   43DOPE  H17R 5495   3.227   1.190   4.973 -0.4828 -1.2670  0.8941
   43DOPE  H17S 5496   3.325   1.109   4.837 -0.5402  0.2109 -0.0789
   43DOPE  C218 5497   3.179   0.986   4.944 -0.1484  0.3427  0.1577
   43DOPE  H18R 5498   3.076   0.998   4.984 -0.5724 -1.3254 -0.3865
   43DOPE  H18S 5499   3.256   0.948   5.014 -0.7109 -1.9721 -0.4235
   43DOPE  H18T 5500   3.184   0.919   4.856  0.1386  0.9769 -0.3238
   43DOPE   C33 5501   2.092   2.079   4.297  0.5003  0.4543  0.0877
   43DOPE   H3X 5502   1.989   2.038   4.283  1.5189 -1.9536 -0.9070
   43DOPE   H3Y 5503   2.088   2.186   4.269  3.4446  0.9724  1.2747
   43DOPE   C34 5504   2.147   2.069   4.436  0.0582 -1.0061  0.0979
   43DOPE   H4X 5505   2.177   1.965   4.461  2.7062 -0.5213 -0.7699
   43DOPE   H4Y 5506   2.233   2.138   4.441 -0.7104 -0.0674  0.6315
   43DOPE   C35 5507   2.046   2.139   4.530 -0.4770  0.0321  0.3332
   43DOPE   H5X 5508   1.956   2.075   4.524 -0.3566 -0.0655 -0.6904
   43DOPE   H5Y 5509   2.031   2.239   4.483 -0.0019 -1.0365 -2.2614
   43DOPE   C36 5510   2.101   2.156   4.675 -0.8736  0.1422  0.1971
   43DOPE   H6X 5511   2.198   2.210   4.664  0.5036 -2.3353 -0.5864
   43DOPE   H6Y 5512   2.138   2.055   4.703  0.1912  0.3532 -0.3991
   43DOPE   C37 5513   2.006   2.199   4.777 -0.1168 -0.0863  0.4483
   43DOPE   H7X 5514   1.984   2.304   4.751 -0.3588  0.0574  1.1902
   43DOPE   H7Y 5515   1.905   2.154   4.769  0.0550 -0.9498  2.3712
   43DOPE   C38 5516   2.048   2.178   4.924  0.0994 -0.2726  0.3783
   43DOPE   H8X 5517   2.144   2.234   4.932 -0.9327  1.6006  0.2202
   43DOPE   H8Y 5518   2.066   2.072   4.950 -0.8990 -0.8552 -1.1499
   43DOPE   C39 5519   1.956   2.255   5.014 -0.5531  0.3083 -0.5015
   43DOPE   H9X 5520   1.919   2.346   4.965 -1.7420  0.8573  1.3137
   43DOPE  C310 5521   1.915   2.226   5.147  0.2437 -0.5481  0.2710
   43DOPE  H10X 5522   1.840   2.287   5.199 -2.4714 -0.5731 -3.2601
   43DOPE  C311 5523   1.946   2.101   5.225  0.2241  0.2317 -0.6557
   43DOPE  H11X 5524   2.027   2.045   5.174 -0.8048 -1.4231 -0.5462
   43DOPE  H11Y 5525   1.988   2.130   5.324 -0.2609 -2.1560  0.3199
   43DOPE  C312 5526   1.821   2.015   5.240  0.0002  0.1831  0.4211
   43DOPE  H12X 5527   1.801   1.992   5.134  1.5968 -0.9552  0.3365
   43DOPE  H12Y 5528   1.748   2.087   5.284  1.0123  0.5175  1.6305
   43DOPE  C313 5529   1.837   1.881   5.320  0.2999 -0.8151  0.9427
   43DOPE  H13X 5530   1.738   1.830   5.325 -0.3714  0.3525  0.1988
   43DOPE  H13Y 5531   1.908   1.819   5.262  1.2867 -0.6807  1.9989
   43DOPE  C314 5532   1.901   1.880   5.457  0.7488  0.0080 -0.3335
   43DOPE  H14X 5533   1.837   1.940   5.526  0.7620 -1.0034  0.5863
   43DOPE  H14Y 5534   1.989   1.947   5.450 -0.1852  1.5373  1.5472
   43DOPE  C315 5535   1.924   1.735   5.515 -0.1002 -0.4717  0.0895
   43DOPE  H15X 5536   1.999   1.688   5.447  0.5446 -0.9082  1.0812
   43DOPE  H15Y 5537   1.825   1.685   5.512 -0.2624 -0.1717  0.3705
   43DOPE  C316 5538   1.965   1.737   5.663  0.4610 -0.0912 -0.1603
   43DOPE  H16X 5539   1.893   1.801   5.718  1.8622  1.2288  0.1961
   43DOPE  H16Y 5540   2.057   1.797   5.679 -0.7607  1.4718  1.3675
   43DOPE  C317 5541   1.967   1.598   5.735 -0.0301  0.0013 -0.3032
   43DOPE  H17X 5542   1.908   1.524   5.677 -0.7569  0.0955  0.2888
   43DOPE  H17Y 5543   2.070   1.558   5.742  0.4758  1.3225  0.1419
   43DOPE  C318 5544   1.913   1.586   5.877  0.0238  0.1185  0.4330
   43DOPE  H18X 5545   1.807   1.617   5.889 -0.1855  0.1799 -1.2917
   43DOPE  H18Y 5546   1.920   1.479   5.906  0.4130 -0.3218 -1.1906
   43DOPE  H18Z 5547   1.983   1.636   5.947  1.0031  0.5779 -0.8417
   44DOPE     N 5548   5.056   0.609   2.710 -0.1081 -0.3190 -0.0552
   44DOPE   HN1 5549   5.135   0.593   2.645 -0.0821  0.4461 -0.2206
   44DOPE   HN2 5550   5.100   0.627   2.803  1.3814 -2.6202 -0.2659
   44DOPE   HN3 5551   4.991   0.528   2.708 -0.1208 -0.3110  0.0112
   44DOPE   C12 5552   4.981   0.729   2.660  0.0372 -0.2618  1.1095
   44DOPE  H12A 5553   4.942   0.782   2.749 -0.0236 -2.1608  2.2750
   44DOPE  H12B 5554   4.900   0.701   2.590  1.2059 -0.2048 -0.3287
   44DOPE   C11 5555   5.071   0.824   2.574  0.4819  0.1167 -0.2096
   44DOPE  H11A 5556   5.008   0.909   2.538 -0.5363 -0.4962  0.0638
   44DOPE  H11B 5557   5.100   0.764   2.485 -3.6230 -0.8117 -1.1783
   44DOPE     P 5558   5.287   0.963   2.622  0.0228 -0.3953 -0.1343
   44DOPE   O13 5559   5.218   1.070   2.550  0.5436 -0.7233 -0.2472
   44DOPE   O14 5560   5.401   0.898   2.555 -0.5397  0.0840 -0.6729
   44DOPE   O11 5561   5.326   1.007   2.770 -0.1162  0.1204  0.1092
   44DOPE   O12 5562   5.181   0.857   2.660 -0.5744  0.0418 -0.5690
   44DOPE    C1 5563   5.242   1.083   2.854 -0.3869 -0.7537  0.0230
   44DOPE    HA 5564   5.142   1.034   2.857 -0.6864 -0.2019 -0.7488
   44DOPE    HB 5565   5.233   1.187   2.816 -1.0300 -1.0458 -0.6498
   44DOPE    C2 5566   5.299   1.104   2.996  0.0647  0.1984 -0.2043
   44DOPE    HS 5567   5.312   1.004   3.043  1.0456 -1.1607 -3.1531
   44DOPE   O21 5568   5.221   1.204   3.065 -0.1039  0.6730  0.8000
   44DOPE   C21 5569   5.127   1.146   3.136  0.7053  0.0836  0.3032
   44DOPE   O22 5570   5.103   1.025   3.144 -0.1450  0.2824 -0.4156
   44DOPE   C22 5571   5.050   1.252   3.204  0.3248 -0.3782  0.0653
   44DOPE   H2R 5572   4.946   1.229   3.174  0.2448 -1.4005  1.0376
   44DOPE   H2S 5573   5.081   1.351   3.166  0.2020  0.3186  1.6982
   44DOPE    C3 5574   5.440   1.154   2.994 -0.3272  0.1183  0.3097
   44DOPE    HX 5575   5.440   1.251   2.939 -1.4031  0.5028  0.9571
   44DOPE    HY 5576   5.502   1.083   2.936 -1.9126 -0.5048 -0.7172
   44DOPE   O31 5577   5.494   1.173   3.124  0.0600  0.3878 -0.2489
   44DOPE   C31 5578   5.577   1.080   3.174 -0.1208 -0.2661 -0.4382
   44DOPE   O32 5579   5.597   0.970   3.124 -0.1167  0.1709  0.1138
   44DOPE   C32 5580   5.645   1.142   3.298 -0.5458  0.2784  0.1524
   44DOPE   H2X 5581   5.751   1.139   3.264  0.1915 -1.8080  2.2927
   44DOPE   H2Y 5582   5.630   1.249   3.325 -0.8885 -0.4686  3.3936
   44DOPE   C23 5583   5.057   1.245   3.356  0.2406 -0.1027 -0.9453
   44DOPE   H3R 5584   5.028   1.142   3.388  0.9543 -0.6285 -1.9297
   44DOPE   H3S 5585   4.983   1.317   3.396 -0.2968  0.3240 -2.6112
   44DOPE   C24 5586   5.199   1.282   3.407  0.6539 -0.2701 -0.3334
   44DOPE   H4R 5587   5.231   1.378   3.361  1.7998 -0.1504  0.6457
   44DOPE   H4S 5588   5.261   1.194   3.379 -0.0093 -0.0294 -2.7461
   44DOPE   C25 5589   5.196   1.312   3.556 -0.6492  0.2964  0.3025
   44DOPE   H5R 5590   5.108   1.266   3.607  0.0253 -1.8715 -0.3693
   44DOPE   H5S 5591   5.164   1.418   3.567 -0.6034  0.3374  0.0619
   44DOPE   C26 5592   5.325   1.284   3.637 -0.1329 -0.2389  0.4529
   44DOPE   H6R 5593   5.412   1.344   3.603  1.7790 -3.0477  0.0219
   44DOPE   H6S 5594   5.349   1.179   3.608  0.1631  0.3254 -1.4838
   44DOPE   C27 5595   5.281   1.300   3.782 -0.0978  0.2000 -0.2372
   44DOPE   H7R 5596   5.192   1.235   3.799  0.9961 -1.2370  0.2175
   44DOPE   H7S 5597   5.254   1.404   3.809 -0.5328  0.1699 -0.5520
   44DOPE   C28 5598   5.389   1.241   3.877  0.4203 -0.0502 -0.1373
   44DOPE   H8R 5599   5.453   1.183   3.807 -0.6488  1.5158 -2.5545
   44DOPE   H8S 5600   5.337   1.164   3.939 -0.5225  0.8235  0.1848
   44DOPE   C29 5601   5.478   1.342   3.941 -0.7417  0.3823 -0.8075
   44DOPE   H9R 5602   5.555   1.391   3.880  0.7949  1.7874  2.0828
   44DOPE  C210 5603   5.487   1.370   4.072 -0.4462  0.5888 -0.6669
   44DOPE  H10R 5604   5.562   1.447   4.098 -0.4502  0.6024 -0.6972
   44DOPE  C211 5605   5.409   1.305   4.178  0.5351 -0.6814  0.3326
   44DOPE  H11R 5606   5.376   1.202   4.152 -0.3892 -0.3509  0.1348
   44DOPE  H11S 5607   5.316   1.361   4.201  1.6199  0.9110  0.9551
   44DOPE  C212 5608   5.481   1.300   4.314  0.5753  1.3839  0.3419
   44DOPE  H12R 5609   5.531   1.398   4.327  4.0850 -0.1965  0.0695
   44DOPE  H12S 5610   5.563   1.225   4.310  0.3795  1.2313 -2.4130
   44DOPE  C213 5611   5.379   1.284   4.430 -0.1196 -0.0932 -0.0149
   44DOPE  H13R 5612   5.325   1.192   4.398 -0.5292  0.2350 -0.2888
   44DOPE  H13S 5613   5.305   1.367   4.435 -0.5059 -0.5062  1.9783
   44DOPE  C214 5614   5.448   1.242   4.561  0.4343 -0.6714  0.1780
   44DOPE  H14R 5615   5.511   1.325   4.600 -0.9951  0.2018  0.7344
   44DOPE  H14S 5616   5.524   1.166   4.533 -0.0035 -0.7333 -0.8716
   44DOPE  C215 5617   5.356   1.195   4.680 -0.5069  0.3343  0.4633
   44DOPE  H15R 5618   5.294   1.108   4.651 -2.9064  2.6365 -1.8913
   44DOPE  H15S 5619   5.282   1.273   4.706 -3.1354 -0.5582 -3.4532
   44DOPE  C216 5620   5.447   1.158   4.795  0.0123  0.3674 -0.0797
   44DOPE  H16R 5621   5.526   1.236   4.809 -0.1989  0.7563 -1.0138
   44DOPE  H16S 5622   5.509   1.067   4.779 -1.1694 -0.5894  0.6184
   44DOPE  C217 5623   5.369   1.121   4.923  0.1368  0.1514 -0.7950
   44DOPE  H17R 5624   5.300   1.037   4.896 -0.5353 -0.3839  2.2557
   44DOPE  H17S 5625   5.309   1.208   4.957  0.8200  0.7267 -1.0576
   44DOPE  C218 5626   5.451   1.068   5.035  0.6639  0.2429 -0.5227
   44DOPE  H18R 5627   5.381   1.063   5.121  1.4839  0.2577  0.1636
   44DOPE  H18S 5628   5.537   1.134   5.061  1.4368 -0.9429  0.0381
   44DOPE  H18T 5629   5.480   0.964   5.006 -2.0331 -0.9629  0.6778
   44DOPE   C33 5630   5.627   1.053   3.418 -0.2062  0.0901  0.2484
   44DOPE   H3X 5631   5.654   0.949   3.391 -2.7013 -1.3334  2.7032
   44DOPE   H3Y 5632   5.522   1.041   3.453 -0.2703 -1.5491 -0.3967
   44DOPE   C34 5633   5.708   1.102   3.541  0.0314  0.0433  0.2101
   44DOPE   H4X 5634   5.815   1.120   3.516 -0.2835  2.9853  0.6715
   44DOPE   H4Y 5635   5.661   1.197   3.575 -2.7371 -1.0463 -0.2920
   44DOPE   C35 5636   5.700   0.998   3.653 -0.4076 -0.5696 -0.4149
   44DOPE   H5X 5637   5.746   0.908   3.609  0.6879 -1.1008  1.7292
   44DOPE   H5Y 5638   5.591   0.976   3.661 -0.9439  1.0277 -2.2529
   44DOPE   C36 5639   5.753   1.036   3.789  0.3343  0.1913  0.1158
   44DOPE   H6X 5640   5.706   1.119   3.846  2.4171  0.6660  1.2419
   44DOPE   H6Y 5641   5.862   1.059   3.793  0.0208  1.6481  0.7679
   44DOPE   C37 5642   5.735   0.910   3.879 -0.2767  0.5015  0.1396
   44DOPE   H7X 5643   5.639   0.855   3.871  0.0916 -0.0531 -0.5825
   44DOPE   H7Y 5644   5.811   0.843   3.832  1.3136  2.8152 -0.7482
   44DOPE   C38 5645   5.769   0.934   4.027  0.0976  0.1079  0.5014
   44DOPE   H8X 5646   5.861   0.995   4.039  0.5758 -0.3307 -0.7948
   44DOPE   H8Y 5647   5.799   0.837   4.070 -1.3187 -0.4765  0.2435
   44DOPE   C39 5648   5.657   1.001   4.106  0.3471  0.3293 -0.0822
   44DOPE   H9X 5649   5.612   1.089   4.059 -0.4449 -0.9542 -1.8055
   44DOPE  C310 5650   5.608   0.956   4.225  0.6407 -0.1906  0.3998
   44DOPE  H10X 5651   5.530   1.018   4.273 -0.3782 -1.8489  0.9673
   44DOPE  C311 5652   5.641   0.824   4.286  0.9731 -0.3873 -1.0042
   44DOPE  H11X 5653   5.558   0.783   4.347 -0.4830  0.7974 -2.1107
   44DOPE  H11Y 5654   5.674   0.745   4.214  1.4002 -1.2062  0.0605
   44DOPE  C312 5655   5.761   0.849   4.382  0.1748 -0.4497 -0.3710
   44DOPE  H12X 5656   5.839   0.901   4.323  2.2684 -0.6977  2.0291
   44DOPE  H12Y 5657   5.807   0.754   4.415  1.8930 -0.2177 -1.9174
   44DOPE  C313 5658   5.729   0.934   4.507 -0.1898 -0.5298 -0.6390
   44DOPE  H13X 5659   5.706   1.037   4.473 -0.1186  0.3897  1.8945
   44DOPE  H13Y 5660   5.631   0.891   4.536 -1.1440  0.3361 -2.4074
   44DOPE  C314 5661   5.835   0.928   4.615  0.7755  0.2606 -0.0739
   44DOPE  H14X 5662   5.928   0.980   4.584  0.2294  1.4899  0.2704
   44DOPE  H14Y 5663   5.852   0.819   4.626  0.7211  0.2143 -0.4445
   44DOPE  C315 5664   5.793   0.970   4.747  1.1606 -0.4101 -0.2494
   44DOPE  H15X 5665   5.714   0.908   4.795  0.2723 -0.8990 -2.2417
   44DOPE  H15Y 5666   5.744   1.070   4.739  1.3109 -0.0683  2.1500
   44DOPE  C316 5667   5.907   0.982   4.853  0.6063 -0.1836  0.9561
   44DOPE  H16X 5668   5.982   1.044   4.799  0.9127  0.2262  1.8401
   44DOPE  H16Y 5669   5.958   0.891   4.891  1.1983 -0.3522 -0.2003
   44DOPE  C317 5670   5.864   1.052   4.984  0.4291 -0.2838 -0.8068
   44DOPE  H17X 5671   5.788   1.133   4.975  1.7499  0.9716 -1.0031
   44DOPE  H17Y 5672   5.802   0.974   5.033 -2.0139  1.8653 -0.2379
   44DOPE  C318 5673   5.982   1.099   5.071 -0.0692 -0.1340 -0.5166
   44DOPE  H18X 5674   6.046   1.011   5.089 -0.0697 -0.2480 -1.0719
   44DOPE  H18Y 5675   6.036   1.187   5.029 -1.5391  1.0015 -0.1322
   44DOPE  H18Z 5676   5.963   1.148   5.169  1.5894  1.6664 -1.0232
   45DOPE     N 5677   4.829   0.182   2.993 -0.3037  0.2618  0.0731
   45DOPE   HN1 5678   4.729   0.165   3.017 -0.7717  1.1487 -1.1341
   45DOPE   HN2 5679   4.841   0.279   3.029 -3.2429 -0.1694  2.7099
   45DOPE   HN3 5680   4.830   0.174   2.890  1.3293 -1.2359  0.1712
   45DOPE   C12 5681   4.922   0.078   3.050  0.3878  0.6803 -0.0851
   45DOPE  H12A 5682   4.945   0.099   3.156  3.1669 -2.8894  0.2076
   45DOPE  H12B 5683   5.017   0.089   2.993 -0.4500  0.6177 -1.5452
   45DOPE   C11 5684   4.869  -0.070   3.029  0.2751  0.3100 -0.2747
   45DOPE  H11A 5685   4.944  -0.138   3.074 -1.2679 -0.4171  1.2969
   45DOPE  H11B 5686   4.865  -0.091   2.920 -1.7546 -2.6397  0.2526
   45DOPE     P 5687   4.613  -0.129   3.004  0.0156  0.0110  0.3162
   45DOPE   O13 5688   4.632  -0.275   2.980 -0.0496  0.5081 -0.2573
   45DOPE   O14 5689   4.589  -0.035   2.886  0.3150 -0.4063  0.2882
   45DOPE   O11 5690   4.490  -0.121   3.099 -0.1660 -0.6240 -0.1871
   45DOPE   O12 5691   4.739  -0.079   3.084  0.2902  0.4311  0.3454
   45DOPE    C1 5692   4.495  -0.082   3.234 -0.6882  0.1443  0.6842
   45DOPE    HA 5693   4.404  -0.031   3.274 -1.9507 -0.8387 -0.7869
   45DOPE    HB 5694   4.581  -0.015   3.256 -1.2746  1.8193 -1.7336
   45DOPE    C2 5695   4.496  -0.203   3.331  0.9682  0.5579 -0.0693
   45DOPE    HS 5696   4.465  -0.176   3.434 -2.2813  2.0942 -1.3177
   45DOPE   O21 5697   4.626  -0.265   3.331 -0.5146  0.1765  0.2500
   45DOPE   C21 5698   4.727  -0.193   3.371  0.3918  0.1253 -0.5547
   45DOPE   O22 5699   4.713  -0.099   3.446 -0.2696 -0.0290  0.5381
   45DOPE   C22 5700   4.852  -0.258   3.334 -0.1775 -0.5599 -0.5989
   45DOPE   H2R 5701   4.935  -0.186   3.352 -1.2405  0.7682 -0.8266
   45DOPE   H2S 5702   4.851  -0.269   3.223  0.7184 -2.2715 -0.4729
   45DOPE    C3 5703   4.387  -0.307   3.285 -0.1863  0.6142  0.0976
   45DOPE    HX 5704   4.417  -0.360   3.193 -0.5032 -0.0157  0.3508
   45DOPE    HY 5705   4.291  -0.256   3.263 -0.0424  0.2447 -1.5162
   45DOPE   O31 5706   4.365  -0.393   3.393 -0.1685 -0.0506  0.0316
   45DOPE   C31 5707   4.438  -0.493   3.410  0.6061 -0.6543 -0.2050
   45DOPE   O32 5708   4.523  -0.531   3.328 -0.5430  0.1373 -0.6105
   45DOPE   C32 5709   4.390  -0.561   3.535  0.3666  0.3345 -0.8036
   45DOPE   H2X 5710   4.355  -0.488   3.612 -0.3018 -1.3934  0.6248
   45DOPE   H2Y 5711   4.300  -0.613   3.496  0.7210  1.2160 -2.8843
   45DOPE   C23 5712   4.870  -0.401   3.404  0.5601 -1.0033  0.2408
   45DOPE   H3R 5713   4.935  -0.466   3.341  0.2853  0.2265 -1.3767
   45DOPE   H3S 5714   4.773  -0.452   3.390 -0.8792  1.5621  0.1372
   45DOPE   C24 5715   4.907  -0.405   3.552 -0.0086  0.2480  0.7466
   45DOPE   H4R 5716   4.907  -0.509   3.590  0.5874 -0.3767 -0.9063
   45DOPE   H4S 5717   4.830  -0.341   3.600 -1.5711 -1.0182  0.0265
   45DOPE   C25 5718   5.041  -0.337   3.588 -0.3568  0.0679  0.8111
   45DOPE   H5R 5719   5.035  -0.227   3.574  0.6144 -0.2161 -2.7155
   45DOPE   H5S 5720   5.127  -0.366   3.524  0.6433  1.7687  1.3156
   45DOPE   C26 5721   5.090  -0.360   3.733 -0.2039  0.4049 -0.0011
   45DOPE   H6R 5722   5.125  -0.465   3.744 -1.0279 -0.1472 -2.1799
   45DOPE   H6S 5723   4.993  -0.361   3.787 -0.0067 -1.7761  0.4102
   45DOPE   C27 5724   5.183  -0.247   3.774  0.4505  0.4087  0.3263
   45DOPE   H7R 5725   5.134  -0.150   3.750  0.9852  0.9017  1.1734
   45DOPE   H7S 5726   5.276  -0.249   3.714 -0.8075  1.1266 -1.7464
   45DOPE   C28 5727   5.204  -0.250   3.929 -0.0517  0.4728  0.1120
   45DOPE   H8R 5728   5.245  -0.349   3.957 -0.0292  0.8941  1.6441
   45DOPE   H8S 5729   5.107  -0.253   3.984  0.4446  2.9122  1.2414
   45DOPE   C29 5730   5.298  -0.144   3.967 -0.7120 -0.1342 -0.6546
   45DOPE   H9R 5731   5.386  -0.114   3.908  0.9823 -0.1186  1.7343
   45DOPE  C210 5732   5.278  -0.069   4.074 -0.3698  0.3142  0.0886
   45DOPE  H10R 5733   5.364  -0.013   4.114 -1.6644  2.7112 -0.3102
   45DOPE  C211 5734   5.160  -0.065   4.164  1.0439 -0.3772 -0.2184
   45DOPE  H11R 5735   5.177  -0.129   4.253 -0.8499  0.4719  0.7993
   45DOPE  H11S 5736   5.069  -0.105   4.115  1.3326 -1.7985  0.3581
   45DOPE  C212 5737   5.136   0.074   4.235  0.3196 -0.0063 -0.3208
   45DOPE  H12R 5738   5.118   0.160   4.168 -1.6294  1.1698  1.5736
   45DOPE  H12S 5739   5.227   0.111   4.287  0.1153  1.4436 -0.9534
   45DOPE  C213 5740   5.014   0.065   4.322  0.9385  0.1436  0.3621
   45DOPE  H13R 5741   5.031  -0.014   4.399 -1.8420 -2.3259 -1.3107
   45DOPE  H13S 5742   4.932   0.022   4.261  0.3269  0.6683  0.7947
   45DOPE  C214 5743   4.950   0.199   4.380 -1.5872  0.7897 -0.1863
   45DOPE  H14R 5744   4.952   0.278   4.301  0.8848  0.9888 -0.0259
   45DOPE  H14S 5745   5.026   0.215   4.459 -0.9682 -1.5498 -0.2465
   45DOPE  C215 5746   4.809   0.181   4.445 -0.0830  0.0871 -0.4775
   45DOPE  H15R 5747   4.739   0.160   4.362 -0.0099 -1.0267 -0.2707
   45DOPE  H15S 5748   4.795   0.280   4.493 -0.7144 -0.8428  1.3621
   45DOPE  C216 5749   4.801   0.073   4.552 -0.2878  0.1489  0.2596
   45DOPE  H16R 5750   4.896   0.086   4.608  1.4984  3.9689 -3.1459
   45DOPE  H16S 5751   4.798  -0.030   4.512 -0.4858  0.2259  0.0702
   45DOPE  C217 5752   4.680   0.080   4.641 -0.3408  0.6376 -0.7231
   45DOPE  H17R 5753   4.597   0.060   4.570  0.0721 -0.0460 -1.0238
   45DOPE  H17S 5754   4.662   0.184   4.678  0.2451  0.3682  0.3843
   45DOPE  C218 5755   4.681  -0.025   4.755  0.0134  0.3423 -0.1774
   45DOPE  H18R 5756   4.750   0.008   4.835 -0.8258 -1.0416  1.1617
   45DOPE  H18S 5757   4.705  -0.128   4.721  2.3046  1.1185 -1.1469
   45DOPE  H18T 5758   4.578  -0.020   4.794  0.3804  0.8364  0.7534
   45DOPE   C33 5759   4.493  -0.655   3.608  0.6340  0.5359 -0.0112
   45DOPE   H3X 5760   4.498  -0.743   3.542 -2.4282  1.4748 -1.6812
   45DOPE   H3Y 5761   4.443  -0.704   3.694  0.7335  0.0183 -0.2449
   45DOPE   C34 5762   4.621  -0.590   3.649 -0.0700 -0.3794 -0.1492
   45DOPE   H4X 5763   4.673  -0.653   3.724  0.0988  0.3958  0.4074
   45DOPE   H4Y 5764   4.687  -0.580   3.561  1.0607  0.4545  0.7477
   45DOPE   C35 5765   4.599  -0.458   3.727  0.7318  0.4683 -0.0841
   45DOPE   H5X 5766   4.500  -0.472   3.775  1.1693  0.3035  0.7912
   45DOPE   H5Y 5767   4.580  -0.380   3.650  0.0139  0.1627 -0.2271
   45DOPE   C36 5768   4.693  -0.411   3.836 -0.5588 -0.8143 -0.1909
   45DOPE   H6X 5769   4.792  -0.424   3.789 -1.0696  0.2813 -1.6397
   45DOPE   H6Y 5770   4.693  -0.482   3.922 -0.0753 -0.1550  0.3656
   45DOPE   C37 5771   4.661  -0.262   3.869 -0.1379  0.4174  0.1030
   45DOPE   H7X 5772   4.641  -0.200   3.778 -0.4213 -1.8094 -1.4449
   45DOPE   H7Y 5773   4.570  -0.258   3.931 -0.2108 -0.5311  0.0713
   45DOPE   C38 5774   4.775  -0.196   3.950  0.3314  1.0484 -0.6024
   45DOPE   H8X 5775   4.872  -0.233   3.911  0.1581  0.8070 -0.8037
   45DOPE   H8Y 5776   4.769  -0.244   4.050 -2.3867  0.5216 -0.9271
   45DOPE   C39 5777   4.737  -0.047   3.963 -0.7766  1.1107 -0.5419
   45DOPE   H9X 5778   4.634  -0.032   3.999 -0.5901  1.1686 -0.0304
   45DOPE  C310 5779   4.810   0.059   3.929  0.8562 -0.0216 -0.1410
   45DOPE  H10X 5780   4.774   0.160   3.952 -0.5221 -0.5948  0.3607
   45DOPE  C311 5781   4.951   0.051   3.869  0.0164 -0.1147 -0.1038
   45DOPE  H11X 5782   5.018   0.133   3.901 -0.0969 -1.0020  2.6113
   45DOPE  H11Y 5783   5.002  -0.044   3.893 -0.9509 -0.6666 -0.1764
   45DOPE  C312 5784   4.939   0.073   3.717  0.4349 -0.4063 -0.2269
   45DOPE  H12X 5785   4.864   0.150   3.688 -1.6606 -1.2174  2.5825
   45DOPE  H12Y 5786   4.887  -0.015   3.674 -1.6647 -0.1725  1.6574
   45DOPE  C313 5787   5.070   0.116   3.650 -1.0028 -0.4458 -0.5501
   45DOPE  H13X 5788   5.096   0.217   3.690 -0.2142 -1.1148  0.6914
   45DOPE  H13Y 5789   5.149   0.042   3.673 -0.7848  0.6755  2.8984
   45DOPE  C314 5790   5.050   0.134   3.500 -0.1637 -0.2107  0.2769
   45DOPE  H14X 5791   4.963   0.199   3.479 -0.2370  0.0773  1.3960
   45DOPE  H14Y 5792   5.021   0.032   3.468  1.2430 -0.0612 -1.6187
   45DOPE  C315 5793   5.163   0.190   3.415  0.0772  0.0423  0.0660
   45DOPE  H15X 5794   5.116   0.209   3.316 -3.5517 -3.7006  0.8016
   45DOPE  H15Y 5795   5.236   0.109   3.395  1.8645  1.7271 -0.4977
   45DOPE  C316 5796   5.244   0.311   3.472  0.5322 -0.4731 -0.8112
   45DOPE  H16X 5797   5.311   0.336   3.387  2.2197 -1.3458  0.2100
   45DOPE  H16Y 5798   5.311   0.283   3.557  1.2060 -0.2958 -1.2783
   45DOPE  C317 5799   5.160   0.435   3.503 -0.1734 -0.0695  0.0491
   45DOPE  H17X 5800   5.072   0.434   3.435 -1.4983 -1.1756  1.7014
   45DOPE  H17Y 5801   5.121   0.425   3.606 -0.6940  0.1373 -0.1265
   45DOPE  C318 5802   5.234   0.568   3.491  0.4374 -0.1080  0.5951
   45DOPE  H18X 5803   5.215   0.625   3.398 -0.3193 -1.1468  0.0869
   45DOPE  H18Y 5804   5.202   0.621   3.583  1.1201 -2.0897  2.0442
   45DOPE  H18Z 5805   5.342   0.542   3.496  0.2142 -1.7428 -1.5104
   46DOPE     N 5806   6.320   5.507   3.076  0.0791 -0.3449  0.1680
   46DOPE   HN1 5807   6.227   5.537   3.113 -0.2885  1.1235 -1.7549
   46DOPE   HN2 5808   6.323   5.405   3.053  1.7335  0.0133 -1.4821
   46DOPE   HN3 5809   6.393   5.535   3.144  0.3058 -1.7093  0.5201
   46DOPE   C12 5810   6.334   5.563   2.938  1.0950 -0.2528  0.5204
   46DOPE  H12A 5811   6.228   5.592   2.917  0.9159  0.2976  2.0346
   46DOPE  H12B 5812   6.379   5.485   2.873  2.4374  1.0438 -0.1680
   46DOPE   C11 5813   6.419   5.692   2.939 -0.1564 -0.5075  0.4439
   46DOPE  H11A 5814   6.392   5.753   3.027  0.6720 -0.5255  0.7227
   46DOPE  H11B 5815   6.398   5.748   2.845  0.2124 -0.5940  0.3063
   46DOPE     P 5816   6.649   5.660   3.068  0.2109 -0.0762 -0.0259
   46DOPE   O13 5817   6.665   5.802   3.108 -0.7947  0.1502 -0.0644
   46DOPE   O14 5818   6.771   5.579   3.049 -0.2736 -0.1386  0.3072
   46DOPE   O11 5819   6.560   5.587   3.179  0.0777 -0.2896 -0.2343
   46DOPE   O12 5820   6.559   5.658   2.933  0.2909  0.4055  0.4943
   46DOPE    C1 5821   6.605   5.489   3.271  0.7628 -0.2540 -0.1286
   46DOPE    HA 5822   6.713   5.504   3.295  0.8763 -0.3090 -0.6062
   46DOPE    HB 5823   6.608   5.388   3.225 -1.4672  0.0035 -0.9557
   46DOPE    C2 5824   6.515   5.493   3.393 -0.2274 -0.0217 -0.1618
   46DOPE    HS 5825   6.556   5.418   3.465 -2.0927 -0.7595  0.1984
   46DOPE   O21 5826   6.383   5.464   3.347  0.0973 -0.2169 -0.1551
   46DOPE   C21 5827   6.312   5.433   3.449  0.6402 -0.5633 -0.2898
   46DOPE   O22 5828   6.343   5.439   3.564  0.0718 -0.1693 -0.3559
   46DOPE   C22 5829   6.192   5.348   3.403  0.0437 -0.1034  0.3609
   46DOPE   H2R 5830   6.232   5.244   3.398 -1.3289 -0.5805 -2.0327
   46DOPE   H2S 5831   6.163   5.379   3.301  2.1071  0.1320 -0.1961
   46DOPE    C3 5832   6.533   5.631   3.458  0.3188 -0.0646  0.3552
   46DOPE    HX 5833   6.465   5.643   3.545  0.1125  0.4545  0.1282
   46DOPE    HY 5834   6.516   5.706   3.378 -1.2474 -2.0155 -1.2570
   46DOPE   O31 5835   6.673   5.653   3.504  0.4373 -0.0576 -0.1187
   46DOPE   C31 5836   6.692   5.784   3.530  0.2320  0.4105  0.0018
   46DOPE   O32 5837   6.615   5.878   3.528 -0.0045  0.3409 -0.3285
   46DOPE   C32 5838   6.827   5.785   3.586 -0.5481  0.3963  0.4101
   46DOPE   H2X 5839   6.837   5.703   3.660 -0.6213 -0.1067 -0.1335
   46DOPE   H2Y 5840   6.904   5.789   3.506 -0.4014 -0.4310  0.5045
   46DOPE   C23 5841   6.075   5.343   3.505  0.2016 -0.1352 -0.0711
   46DOPE   H3R 5842   6.094   5.314   3.610 -1.4318  1.0636  0.6077
   46DOPE   H3S 5843   6.008   5.259   3.476 -0.2870 -0.2848  1.4157
   46DOPE   C24 5844   5.992   5.471   3.514 -0.3034 -0.3032 -0.7047
   46DOPE   H4R 5845   5.990   5.514   3.412 -1.8413  3.1153  0.6355
   46DOPE   H4S 5846   6.045   5.536   3.587  0.8053  0.8829 -2.4978
   46DOPE   C25 5847   5.851   5.437   3.555 -0.0498 -0.3119 -0.1508
   46DOPE   H5R 5848   5.867   5.389   3.654  1.5227 -0.9863 -0.6915
   46DOPE   H5S 5849   5.815   5.359   3.484 -2.2101  1.6738 -1.3423
   46DOPE   C26 5850   5.756   5.557   3.553  0.2596 -1.0810 -0.8282
   46DOPE   H6R 5851   5.649   5.534   3.534 -0.2741  1.3388 -1.0803
   46DOPE   H6S 5852   5.787   5.620   3.467 -0.0842  1.6084  0.9111
   46DOPE   C27 5853   5.765   5.633   3.688 -0.1533 -0.0772  0.7504
   46DOPE   H7R 5854   5.873   5.644   3.712 -0.5439  2.1454  1.7120
   46DOPE   H7S 5855   5.715   5.584   3.774  1.2866  0.2406  1.8066
   46DOPE   C28 5856   5.719   5.782   3.662 -0.4158 -0.1422 -0.7389
   46DOPE   H8R 5857   5.623   5.798   3.608 -0.9550  2.0891  0.7703
   46DOPE   H8S 5858   5.808   5.820   3.608  0.3049 -1.1488 -0.3030
   46DOPE   C29 5859   5.701   5.855   3.798 -0.5737  0.3765  0.2363
   46DOPE   H9R 5860   5.621   5.813   3.860 -1.0458  0.0915 -0.5501
   46DOPE  C210 5861   5.743   5.975   3.830 -0.5112  0.3683  0.3572
   46DOPE  H10R 5862   5.712   6.017   3.926  2.5212  1.8278  0.8144
   46DOPE  C211 5863   5.832   6.064   3.738  0.4419 -0.0780  0.3715
   46DOPE  H11R 5864   5.782   6.160   3.716 -2.3526 -1.6650 -0.7851
   46DOPE  H11S 5865   5.839   6.018   3.637 -0.1373  0.9335 -0.1376
   46DOPE  C212 5866   5.974   6.069   3.792  0.5760 -0.1907 -0.1977
   46DOPE  H12R 5867   6.040   6.116   3.716  0.4713 -0.9477 -0.7667
   46DOPE  H12S 5868   6.007   5.965   3.811  1.2701  0.2196  0.9143
   46DOPE  C213 5869   5.980   6.152   3.919 -0.3516  0.5825  0.3228
   46DOPE  H13R 5870   5.906   6.120   3.995 -0.9442  1.7640  0.2745
   46DOPE  H13S 5871   5.951   6.256   3.891  1.4252  1.3637  1.1922
   46DOPE  C214 5872   6.127   6.168   3.966 -0.1276  0.1141 -0.1388
   46DOPE  H14R 5873   6.136   6.272   4.005 -1.5087  1.7785 -3.8163
   46DOPE  H14S 5874   6.197   6.161   3.881  0.3284 -0.6303  0.2928
   46DOPE  C215 5875   6.165   6.067   4.073  0.8409  0.1426  0.2032
   46DOPE  H15R 5876   6.272   6.037   4.078 -0.1189 -3.7279  0.7487
   46DOPE  H15S 5877   6.118   5.971   4.043  1.8356 -0.5469  0.7868
   46DOPE  C216 5878   6.121   6.100   4.211 -0.0908 -0.2763 -0.4010
   46DOPE  H16R 5879   6.010   6.107   4.213 -0.2766 -2.5876  0.0303
   46DOPE  H16S 5880   6.173   6.191   4.246  0.2417 -0.9841  0.9973
   46DOPE  C217 5881   6.161   5.994   4.316  1.0040 -0.2064 -0.3139
   46DOPE  H17R 5882   6.166   6.051   4.411  0.9978 -2.2829  0.9719
   46DOPE  H17S 5883   6.262   5.954   4.292 -0.5337 -3.1110 -2.5520
   46DOPE  C218 5884   6.063   5.880   4.333 -0.2288 -0.2766  0.5569
   46DOPE  H18R 5885   6.082   5.812   4.419 -0.5198  0.6745  1.3835
   46DOPE  H18S 5886   6.065   5.812   4.245 -3.0662 -0.5838  0.6455
   46DOPE  H18T 5887   5.959   5.917   4.339  0.4948  2.0884 -0.4589
   46DOPE   C33 5888   6.852   5.921   3.664 -0.1053 -0.3080  0.1463
   46DOPE   H3X 5889   6.783   5.914   3.750  0.0451 -1.4548  0.1939
   46DOPE   H3Y 5890   6.825   6.007   3.600  2.0507 -1.0099 -1.8944
   46DOPE   C34 5891   7.005   5.930   3.704 -0.0832  0.7984  0.6309
   46DOPE   H4X 5892   7.024   5.828   3.743 -1.9253 -0.4694 -1.5104
   46DOPE   H4Y 5893   7.071   5.940   3.615 -0.1971 -1.8482  0.1606
   46DOPE   C35 5894   7.040   6.050   3.793  0.1721 -0.6474  0.4142
   46DOPE   H5X 5895   6.980   6.035   3.885 -3.3906 -1.0729 -1.7719
   46DOPE   H5Y 5896   6.989   6.134   3.739  2.2457 -1.1052 -2.4599
   46DOPE   C36 5897   7.183   6.087   3.814  0.6648  0.7669  0.0541
   46DOPE   H6X 5898   7.196   6.186   3.864  1.3065 -0.0299  1.5339
   46DOPE   H6Y 5899   7.228   6.112   3.716  0.4574 -1.1941 -0.5849
   46DOPE   C37 5900   7.274   5.981   3.872  0.1404  0.2557 -0.0547
   46DOPE   H7X 5901   7.288   5.892   3.809  0.5754 -0.0411  0.4496
   46DOPE   H7Y 5902   7.370   6.033   3.894 -0.1838  1.5251 -1.4819
   46DOPE   C38 5903   7.217   5.914   4.005 -0.5373  0.3927  0.5749
   46DOPE   H8X 5904   7.297   5.837   4.022  0.0427  1.2518  1.8913
   46DOPE   H8Y 5905   7.129   5.849   3.986  0.0503 -0.4083  0.4988
   46DOPE   C39 5906   7.197   5.997   4.126 -0.3719 -0.5832  0.3295
   46DOPE   H9X 5907   7.201   6.105   4.109  1.3586 -0.4261  1.4743
   46DOPE  C310 5908   7.200   5.946   4.252  0.7246 -0.9177 -0.1063
   46DOPE  H10X 5909   7.179   6.013   4.337  2.6672  0.9304 -0.9930
   46DOPE  C311 5910   7.205   5.804   4.290  0.0973 -0.2242  0.0873
   46DOPE  H11X 5911   7.108   5.756   4.316  1.0826 -2.3638 -0.0089
   46DOPE  H11Y 5912   7.238   5.736   4.209 -1.0879  0.0264 -0.6239
   46DOPE  C312 5913   7.314   5.788   4.395 -0.8365 -0.6640 -0.1166
   46DOPE  H12X 5914   7.419   5.802   4.364 -1.0547  0.3425 -0.4591
   46DOPE  H12Y 5915   7.305   5.680   4.421  0.7497 -0.4463  1.5011
   46DOPE  C313 5916   7.297   5.870   4.529  0.6816 -0.1249 -0.1645
   46DOPE  H13X 5917   7.323   5.976   4.512 -1.2478  0.1395 -1.9350
   46DOPE  H13Y 5918   7.187   5.867   4.546  0.6881  0.5775  0.0175
   46DOPE  C314 5919   7.377   5.816   4.650  0.6324 -1.0189 -0.4795
   46DOPE  H14X 5920   7.353   5.882   4.737 -3.5295 -3.2169  0.3013
   46DOPE  H14Y 5921   7.484   5.819   4.620  1.3293  1.5859  1.8089
   46DOPE  C315 5922   7.342   5.673   4.678  0.0227 -0.2277  0.1963
   46DOPE  H15X 5923   7.363   5.606   4.591 -1.3201 -0.1710 -0.1982
   46DOPE  H15Y 5924   7.244   5.642   4.718  0.3303  0.0719  1.2033
   46DOPE  C316 5925   7.449   5.611   4.768 -0.6632 -0.3791 -1.0051
   46DOPE  H16X 5926   7.410   5.509   4.792 -1.0905 -0.4068 -1.7836
   46DOPE  H16Y 5927   7.459   5.667   4.864 -1.7824 -1.3476 -0.2943
   46DOPE  C317 5928   7.586   5.599   4.703 -0.3947  0.0270  0.8188
   46DOPE  H17X 5929   7.573   5.545   4.607  1.2212  1.1339 -0.0788
   46DOPE  H17Y 5930   7.623   5.701   4.678  0.2267 -0.7749 -1.7443
   46DOPE  C318 5931   7.676   5.517   4.793 -0.0406  0.8471 -0.5457
   46DOPE  H18X 5932   7.623   5.423   4.818  0.5107  0.7027  0.1148
   46DOPE  H18Y 5933   7.775   5.495   4.748  0.2557 -0.3054  0.6170
   46DOPE  H18Z 5934   7.692   5.566   4.891  0.5128  1.1641 -0.7894
   47DOPE     N 5935   3.070   5.678   3.025 -0.1612  0.7318  0.1126
   47DOPE   HN1 5936   3.160   5.713   3.064 -1.0700  1.9976  1.1604
   47DOPE   HN2 5937   3.088   5.584   2.985 -1.3654  0.8468 -0.7461
   47DOPE   HN3 5938   3.051   5.742   2.945  1.0365 -0.4386 -1.1597
   47DOPE   C12 5939   2.970   5.657   3.135  0.0423  0.0075  0.0639
   47DOPE  H12A 5940   2.945   5.757   3.178 -1.1298  0.3769 -1.4092
   47DOPE  H12B 5941   3.030   5.587   3.197  2.1359  1.0612 -0.6619
   47DOPE   C11 5942   2.846   5.581   3.086 -0.4783  0.0145  0.3322
   47DOPE  H11A 5943   2.795   5.643   3.009 -1.1442 -2.2899 -1.1881
   47DOPE  H11B 5944   2.769   5.571   3.166 -0.2951 -0.7474  0.4252
   47DOPE     P 5945   2.862   5.324   3.087 -0.0982  0.2962  0.0193
   47DOPE   O13 5946   2.882   5.218   2.989  0.1187 -0.3789 -0.2102
   47DOPE   O14 5947   2.733   5.321   3.153  0.4548  0.3746 -0.1851
   47DOPE   O11 5948   2.983   5.332   3.195 -0.1412  0.0527  0.3690
   47DOPE   O12 5949   2.884   5.459   3.016  0.4210 -0.2811 -0.5262
   47DOPE    C1 5950   3.104   5.259   3.157  1.2123  0.0280  0.3254
   47DOPE    HA 5951   3.145   5.320   3.074 -1.9353 -0.7069 -1.9566
   47DOPE    HB 5952   3.089   5.161   3.106 -3.3083  1.7727 -2.2732
   47DOPE    C2 5953   3.201   5.247   3.275 -0.7436 -0.6200 -0.2120
   47DOPE    HS 5954   3.295   5.198   3.241 -1.6548 -2.5569 -0.0867
   47DOPE   O21 5955   3.132   5.170   3.374  0.2449 -0.3777 -0.4577
   47DOPE   C21 5956   3.129   5.040   3.369  0.1106  0.0527  0.2913
   47DOPE   O22 5957   3.201   4.971   3.295  0.4024 -0.0544 -0.5245
   47DOPE   C22 5958   3.019   4.985   3.466 -0.2246 -0.6197  0.0655
   47DOPE   H2R 5959   2.931   4.968   3.400  0.7576  0.3651 -1.5781
   47DOPE   H2S 5960   2.989   5.052   3.550 -1.1913 -2.1781  1.0124
   47DOPE    C3 5961   3.245   5.388   3.334  0.6333 -0.0194  0.3654
   47DOPE    HX 5962   3.157   5.440   3.377  0.9215  0.9706 -0.2037
   47DOPE    HY 5963   3.285   5.443   3.246  0.9380 -0.9455 -0.0855
   47DOPE   O31 5964   3.338   5.353   3.431  0.2686 -0.0099 -0.4798
   47DOPE   C31 5965   3.444   5.435   3.444  0.6126  1.1913 -0.2763
   47DOPE   O32 5966   3.449   5.551   3.411 -0.1425 -0.0503 -0.2093
   47DOPE   C32 5967   3.563   5.355   3.509  0.2634  0.8024  0.1522
   47DOPE   H2X 5968   3.531   5.252   3.487 -3.4301  1.6606  0.8805
   47DOPE   H2Y 5969   3.655   5.389   3.456  0.3643 -0.3708 -0.4573
   47DOPE   C23 5970   3.067   4.863   3.556 -0.6284 -0.6897  0.4702
   47DOPE   H3R 5971   3.084   4.778   3.487 -1.0811  0.4822 -1.1620
   47DOPE   H3S 5972   2.987   4.838   3.628 -0.2367  1.3256  1.6678
   47DOPE   C24 5973   3.186   4.905   3.643  0.0990 -0.5115  0.5266
   47DOPE   H4R 5974   3.161   4.986   3.715  0.5518 -1.3155  1.6321
   47DOPE   H4S 5975   3.272   4.940   3.583 -1.0179 -1.9356 -2.0563
   47DOPE   C25 5976   3.229   4.780   3.722 -0.2638 -0.4968 -0.2050
   47DOPE   H5R 5977   3.269   4.710   3.646 -0.8686  0.8233 -1.7757
   47DOPE   H5S 5978   3.136   4.742   3.769 -2.7416  3.9607 -0.9339
   47DOPE   C26 5979   3.336   4.813   3.829 -0.3906  0.1470  0.2697
   47DOPE   H6R 5980   3.416   4.870   3.776 -1.8620  0.9056 -1.2079
   47DOPE   H6S 5981   3.370   4.717   3.873 -1.6405  0.4843  2.0644
   47DOPE   C27 5982   3.283   4.909   3.936 -0.3242 -0.1428 -0.3396
   47DOPE   H7R 5983   3.182   4.869   3.958 -1.3033  1.5434 -1.5620
   47DOPE   H7S 5984   3.283   5.013   3.899 -1.2488  0.0264  0.1111
   47DOPE   C28 5985   3.369   4.896   4.058 -0.4646 -0.1529  0.0342
   47DOPE   H8R 5986   3.471   4.936   4.040 -0.4039  0.0099  0.6971
   47DOPE   H8S 5987   3.381   4.786   4.072  1.1849 -0.4169 -2.7382
   47DOPE   C29 5988   3.321   4.980   4.175 -0.0075  0.2221  0.4234
   47DOPE   H9R 5989   3.326   5.088   4.155 -1.4713  0.3367  0.5439
   47DOPE  C210 5990   3.302   4.933   4.295 -0.2731 -0.3921 -0.6004
   47DOPE  H10R 5991   3.255   5.002   4.367 -1.4585 -0.1985 -1.5275
   47DOPE  C211 5992   3.303   4.792   4.331  0.0141  0.7359 -0.4650
   47DOPE  H11R 5993   3.370   4.728   4.269 -0.3834 -0.0629 -0.0874
   47DOPE  H11S 5994   3.204   4.745   4.311  0.0631 -0.4085  1.6583
   47DOPE  C212 5995   3.347   4.743   4.471 -0.2809  0.1951  0.4199
   47DOPE  H12R 5996   3.333   4.635   4.489 -1.0465  0.2662  0.2738
   47DOPE  H12S 5997   3.287   4.797   4.547  1.8163 -0.2572  2.5156
   47DOPE  C213 5998   3.493   4.786   4.501  0.2213 -0.5352  0.1607
   47DOPE  H13R 5999   3.519   4.865   4.429 -0.9620  1.6520  2.0020
   47DOPE  H13S 6000   3.565   4.702   4.489 -0.1478 -1.1951  2.1529
   47DOPE  C214 6001   3.511   4.841   4.647 -0.8037 -0.3698 -0.7405
   47DOPE  H14R 6002   3.604   4.813   4.700 -0.3788  0.9052 -0.7866
   47DOPE  H14S 6003   3.437   4.796   4.717  0.4882  2.6311  2.9105
   47DOPE  C215 6004   3.491   4.991   4.665  0.7755 -0.1871  0.3461
   47DOPE  H15R 6005   3.396   5.026   4.618  1.1300  2.2374  1.2514
   47DOPE  H15S 6006   3.572   5.037   4.605  2.2131 -2.8605  0.1019
   47DOPE  C216 6007   3.492   5.029   4.814 -0.1181 -0.5940  0.0458
   47DOPE  H16R 6008   3.509   5.138   4.814  3.0087 -0.9809 -1.0516
   47DOPE  H16S 6009   3.590   4.990   4.850  0.5762  0.3593 -0.7621
   47DOPE  C217 6010   3.370   4.993   4.895  0.2378 -0.2376  0.2441
   47DOPE  H17R 6011   3.381   5.033   4.998 -1.0743  1.0774 -0.0895
   47DOPE  H17S 6012   3.370   4.882   4.903  2.5236 -0.3613 -0.7781
   47DOPE  C218 6013   3.232   5.043   4.836 -0.6446 -0.2070 -0.3400
   47DOPE  H18R 6014   3.222   5.015   4.729  0.4759 -0.8051 -0.3030
   47DOPE  H18S 6015   3.224   5.154   4.841 -0.3600 -0.2429  2.1077
   47DOPE  H18T 6016   3.147   5.008   4.899 -0.2820 -0.0014  0.2792
   47DOPE   C33 6017   3.576   5.366   3.661  0.1555  0.0406  0.6954
   47DOPE   H3X 6018   3.580   5.475   3.684  2.3294  0.2509 -0.4142
   47DOPE   H3Y 6019   3.675   5.323   3.686 -0.1516 -0.5023  1.0049
   47DOPE   C34 6020   3.456   5.291   3.731  0.6101 -0.1360  0.0147
   47DOPE   H4X 6021   3.367   5.357   3.719  0.4487 -0.3719 -0.1079
   47DOPE   H4Y 6022   3.440   5.197   3.674 -0.9304  0.4813 -0.6155
   47DOPE   C35 6023   3.474   5.256   3.882 -0.0570  0.6798  0.4098
   47DOPE   H5X 6024   3.564   5.192   3.896  0.3959  1.3010  0.3651
   47DOPE   H5Y 6025   3.388   5.195   3.917 -0.1267  0.5565  0.0255
   47DOPE   C36 6026   3.500   5.379   3.975  0.1766 -0.1548  0.0124
   47DOPE   H6X 6027   3.435   5.461   3.936  0.1277 -0.0717  0.2692
   47DOPE   H6Y 6028   3.604   5.417   3.967 -0.4602  1.3456 -2.0858
   47DOPE   C37 6029   3.473   5.365   4.122 -0.6147 -0.3380 -0.1088
   47DOPE   H7X 6030   3.443   5.462   4.167 -1.5495  0.0093 -1.4238
   47DOPE   H7Y 6031   3.380   5.306   4.139 -0.0839 -0.5045  2.6240
   47DOPE   C38 6032   3.587   5.321   4.217  0.8695 -0.1551  0.4061
   47DOPE   H8X 6033   3.669   5.394   4.200  0.3565  0.1030 -1.1567
   47DOPE   H8Y 6034   3.627   5.227   4.172 -1.6479  0.6648 -4.1467
   47DOPE   C39 6035   3.537   5.301   4.359 -0.2840  0.9326 -0.8879
   47DOPE   H9X 6036   3.458   5.226   4.375  0.5180  0.8235  3.8694
   47DOPE  C310 6037   3.596   5.346   4.468  0.3834 -1.0143  0.1952
   47DOPE  H10X 6038   3.551   5.338   4.568  1.5947  0.4977  0.9018
   47DOPE  C311 6039   3.731   5.406   4.473 -0.2287  0.0564 -0.2390
   47DOPE  H11X 6040   3.811   5.333   4.450  0.3000  0.7247 -0.5894
   47DOPE  H11Y 6041   3.736   5.494   4.404  2.6269 -0.4593 -0.7854
   47DOPE  C312 6042   3.767   5.445   4.619  0.0181  0.1454 -0.0345
   47DOPE  H12X 6043   3.877   5.442   4.632  0.2550 -0.1500 -1.7993
   47DOPE  H12Y 6044   3.727   5.370   4.690  1.4824 -1.5406 -0.9115
   47DOPE  C313 6045   3.714   5.588   4.653 -0.3524  0.2048  0.0062
   47DOPE  H13X 6046   3.776   5.664   4.601 -1.4999 -1.0424 -3.3950
   47DOPE  H13Y 6047   3.610   5.589   4.614 -0.6958 -1.4758  0.8123
   47DOPE  C314 6048   3.712   5.616   4.806 -0.5308  0.5338  0.3299
   47DOPE  H14X 6049   3.722   5.725   4.822 -1.3607  0.2157  3.7156
   47DOPE  H14Y 6050   3.798   5.566   4.855 -1.0103  1.3465  2.0547
   47DOPE  C315 6051   3.588   5.562   4.892  0.0633  0.1568  0.3505
   47DOPE  H15X 6052   3.583   5.453   4.869 -1.3726  0.2861 -0.0601
   47DOPE  H15Y 6053   3.494   5.601   4.847  1.1164  1.8157 -0.5016
   47DOPE  C316 6054   3.605   5.578   5.044 -0.2811 -0.9634  0.3685
   47DOPE  H16X 6055   3.712   5.600   5.067 -1.0011  1.6529  1.4963
   47DOPE  H16Y 6056   3.568   5.488   5.097 -0.5204 -2.1576 -1.7000
   47DOPE  C317 6057   3.543   5.701   5.098  0.1888 -0.0976 -0.3808
   47DOPE  H17X 6058   3.583   5.792   5.049 -1.0806  1.8712  2.0123
   47DOPE  H17Y 6059   3.435   5.702   5.071  0.0426 -0.6488  0.1362
   47DOPE  C318 6060   3.576   5.728   5.240  0.3452 -0.5332 -0.8411
   47DOPE  H18X 6061   3.529   5.659   5.314  0.9244  0.8447  0.9033
   47DOPE  H18Y 6062   3.685   5.733   5.261  0.5181  0.5335 -1.8894
   47DOPE  H18Z 6063   3.536   5.825   5.279  0.5013 -1.1184  0.8911
   48DOPE     N 6064   7.205   2.537   2.797  0.7659  0.4745  0.1235
   48DOPE   HN1 6065   7.282   2.516   2.864  1.4274 -0.1390 -0.8044
   48DOPE   HN2 6066   7.253   2.573   2.711  0.6480  1.3460  0.4060
   48DOPE   HN3 6067   7.147   2.616   2.831  0.0513 -0.2401  0.5933
   48DOPE   C12 6068   7.126   2.409   2.765 -0.3744  0.1527 -0.0324
   48DOPE  H12A 6069   7.051   2.433   2.687 -0.3297 -0.1163 -0.1595
   48DOPE  H12B 6070   7.066   2.391   2.857 -0.0744  0.8017  0.2952
   48DOPE   C11 6071   7.223   2.297   2.726  0.5021 -0.1341 -0.3978
   48DOPE  H11A 6072   7.266   2.300   2.623 -1.1857  1.2360 -1.1040
   48DOPE  H11B 6073   7.171   2.199   2.729  2.0302 -0.9563  0.8904
   48DOPE     P 6074   7.465   2.224   2.800  0.4103  0.1412 -0.1402
   48DOPE   O13 6075   7.564   2.324   2.844 -0.0241  0.0238 -0.7983
   48DOPE   O14 6076   7.487   2.171   2.662 -0.4927 -0.7724 -0.3216
   48DOPE   O11 6077   7.461   2.101   2.900  0.1766 -0.1636 -0.0999
   48DOPE   O12 6078   7.323   2.290   2.819  0.7361 -0.4801 -0.3573
   48DOPE    C1 6079   7.339   2.057   2.958 -0.1346  0.0609 -0.9840
   48DOPE    HA 6080   7.361   1.963   3.014  2.2705  1.6502  0.9923
   48DOPE    HB 6081   7.264   2.047   2.877 -1.5574 -1.2025  0.4299
   48DOPE    C2 6082   7.284   2.149   3.071 -0.1459  0.0250 -0.6158
   48DOPE    HS 6083   7.220   2.229   3.028  0.6267  0.3544 -1.1640
   48DOPE   O21 6084   7.390   2.192   3.158 -0.4099 -0.5508  0.4894
   48DOPE   C21 6085   7.362   2.293   3.243  1.1701 -0.0377  0.2036
   48DOPE   O22 6086   7.262   2.370   3.237  0.3373  0.0056  0.3797
   48DOPE   C22 6087   7.470   2.314   3.352 -0.2555 -0.3497  0.2514
   48DOPE   H2R 6088   7.443   2.380   3.438  2.1512  0.5359  0.3837
   48DOPE   H2S 6089   7.558   2.364   3.307  0.0269 -2.1578 -1.3377
   48DOPE    C3 6090   7.180   2.077   3.152  0.2558 -0.4578 -0.3613
   48DOPE    HX 6091   7.091   2.045   3.094  0.3921 -0.2700 -0.6750
   48DOPE    HY 6092   7.132   2.138   3.232 -0.2708 -2.0076  0.5404
   48DOPE   O31 6093   7.233   1.952   3.205 -0.1100  0.1204 -0.0926
   48DOPE   C31 6094   7.253   1.950   3.341 -0.6373  0.0573  0.8878
   48DOPE   O32 6095   7.226   2.042   3.416  0.4159  0.2997 -0.2272
   48DOPE   C32 6096   7.297   1.809   3.379  0.1726 -0.4232  0.1280
   48DOPE   H2X 6097   7.211   1.738   3.385  2.3890 -3.7366 -3.3679
   48DOPE   H2Y 6098   7.374   1.780   3.305  0.3820 -0.0389  0.1929
   48DOPE   C23 6099   7.528   2.180   3.409  0.4275  0.2147  0.2801
   48DOPE   H3R 6100   7.551   2.107   3.329 -1.3024 -0.2274  0.1388
   48DOPE   H3S 6101   7.446   2.130   3.464 -0.4334  1.8732  0.5672
   48DOPE   C24 6102   7.640   2.195   3.505 -0.8609 -0.2747 -0.5171
   48DOPE   H4R 6103   7.626   2.287   3.566  1.0811 -0.2161 -0.1052
   48DOPE   H4S 6104   7.737   2.212   3.453 -2.1556 -2.4850 -4.0258
   48DOPE   C25 6105   7.657   2.077   3.605  0.0397  0.4034  0.3457
   48DOPE   H5R 6106   7.747   2.086   3.669  2.1352 -0.6714 -2.2304
   48DOPE   H5S 6107   7.678   1.983   3.550 -1.2622 -0.7138  1.6964
   48DOPE   C26 6108   7.550   2.042   3.713  0.0743  0.1834  0.1829
   48DOPE   H6R 6109   7.575   1.951   3.772 -1.3269  0.4948  1.3287
   48DOPE   H6S 6110   7.450   2.027   3.666 -1.8359 -0.4812  4.0374
   48DOPE   C27 6111   7.541   2.157   3.811 -0.3197 -0.3594  0.1717
   48DOPE   H7R 6112   7.533   2.253   3.756  1.1831 -1.0290 -1.3186
   48DOPE   H7S 6113   7.633   2.175   3.871  0.9643 -1.2257 -1.4359
   48DOPE   C28 6114   7.427   2.124   3.909 -0.3223 -0.4835  0.0825
   48DOPE   H8R 6115   7.334   2.091   3.858  0.1568 -1.7644 -0.0085
   48DOPE   H8S 6116   7.400   2.221   3.956 -0.3700 -1.1245  1.4379
   48DOPE   C29 6117   7.481   2.017   4.009  0.6874  0.7362 -0.5989
   48DOPE   H9R 6118   7.471   1.914   3.972  2.3878  1.1047 -2.2615
   48DOPE  C210 6119   7.517   2.029   4.141  0.4681 -0.4857  0.2691
   48DOPE  H10R 6120   7.527   1.937   4.201 -1.8930 -1.2191 -0.3546
   48DOPE  C211 6121   7.508   2.155   4.216  0.4016 -0.4517 -0.0673
   48DOPE  H11R 6122   7.484   2.243   4.152 -3.9000 -0.6977  0.8702
   48DOPE  H11S 6123   7.612   2.175   4.249  0.1440 -0.4316  0.7415
   48DOPE  C212 6124   7.406   2.157   4.333 -0.3115  0.0839 -0.0507
   48DOPE  H12R 6125   7.430   2.074   4.402  0.3169 -2.4653 -3.1162
   48DOPE  H12S 6126   7.305   2.129   4.296 -0.2522 -0.9606  0.5373
   48DOPE  C213 6127   7.384   2.296   4.404  0.0096  0.1921 -0.1867
   48DOPE  H13R 6128   7.299   2.292   4.476 -0.0493 -0.2557 -0.2770
   48DOPE  H13S 6129   7.352   2.364   4.322 -2.0903  0.4806  0.8065
   48DOPE  C214 6130   7.503   2.350   4.484  1.0318 -0.3166 -0.7745
   48DOPE  H14R 6131   7.466   2.443   4.531 -0.3226 -0.6316 -1.1465
   48DOPE  H14S 6132   7.578   2.377   4.407  0.0941  0.9863 -1.2768
   48DOPE  C215 6133   7.553   2.250   4.586 -0.1988  0.2029  0.3805
   48DOPE  H15R 6134   7.649   2.291   4.626  1.0717  1.9493 -3.8809
   48DOPE  H15S 6135   7.595   2.156   4.544 -0.7532 -0.7083  1.7742
   48DOPE  C216 6136   7.458   2.221   4.699  0.4928  0.1835 -0.2245
   48DOPE  H16R 6137   7.378   2.152   4.665  1.0457 -0.1901 -0.8020
   48DOPE  H16S 6138   7.409   2.316   4.728  1.0312  0.9318 -1.6675
   48DOPE  C217 6139   7.542   2.159   4.817 -0.1196 -0.0318  0.2316
   48DOPE  H17R 6140   7.611   2.236   4.858  1.5025 -1.4610  0.3318
   48DOPE  H17S 6141   7.609   2.079   4.778 -0.3558  0.1655 -0.5994
   48DOPE  C218 6142   7.446   2.110   4.924  0.2583 -0.2016  0.8400
   48DOPE  H18R 6143   7.385   2.023   4.892  1.7669 -0.8890 -0.3165
   48DOPE  H18S 6144   7.375   2.188   4.959 -1.1715 -0.1980 -1.8620
   48DOPE  H18T 6145   7.504   2.088   5.017 -2.0737  0.9201  2.6718
   48DOPE   C33 6146   7.369   1.806   3.518 -0.0197 -0.5902  0.2702
   48DOPE   H3X 6147   7.321   1.867   3.597  0.3589  1.7236 -1.1606
   48DOPE   H3Y 6148   7.473   1.842   3.497 -0.4046  0.5881  0.3099
   48DOPE   C34 6149   7.386   1.665   3.573  0.4864  0.0696  0.6277
   48DOPE   H4X 6150   7.286   1.625   3.598  0.0610  0.2348 -0.7129
   48DOPE   H4Y 6151   7.421   1.594   3.495  2.5027 -0.0823  1.6090
   48DOPE   C35 6152   7.486   1.650   3.680  0.1746  0.4268  0.0951
   48DOPE   H5X 6153   7.459   1.715   3.766  1.3029  2.2686 -0.8985
   48DOPE   H5Y 6154   7.587   1.689   3.657  0.1799  0.6487  0.4850
   48DOPE   C36 6155   7.504   1.502   3.722 -0.2433  0.4596 -0.5754
   48DOPE   H6X 6156   7.605   1.482   3.764 -0.4788  0.7984  0.1764
   48DOPE   H6Y 6157   7.488   1.432   3.638 -1.3038 -0.6547  0.5233
   48DOPE   C37 6158   7.394   1.456   3.818  0.4491  0.0627 -0.7939
   48DOPE   H7X 6159   7.299   1.467   3.762  0.6928 -0.7563 -1.3850
   48DOPE   H7Y 6160   7.396   1.345   3.827 -2.7013  0.0107  0.7182
   48DOPE   C38 6161   7.378   1.516   3.962 -0.1507  0.0967  1.0977
   48DOPE   H8X 6162   7.308   1.448   4.014  0.6323 -0.7657  1.0335
   48DOPE   H8Y 6163   7.309   1.603   3.948  0.8762  0.4849 -2.9404
   48DOPE   C39 6164   7.501   1.536   4.042  0.4335 -0.1239 -0.4275
   48DOPE   H9X 6165   7.571   1.609   3.999 -0.1260  1.0518  0.5844
   48DOPE  C310 6166   7.529   1.477   4.159 -0.2622 -0.5071 -0.0494
   48DOPE  H10X 6167   7.623   1.503   4.211 -0.7826  0.7453  0.2862
   48DOPE  C311 6168   7.440   1.391   4.244  0.4751 -0.7242 -0.1574
   48DOPE  H11X 6169   7.340   1.387   4.196  1.1222 -0.5312 -1.5595
   48DOPE  H11Y 6170   7.487   1.292   4.260  1.4701 -0.2445 -0.0740
   48DOPE  C312 6171   7.426   1.465   4.374 -0.3024  0.3711 -0.6973
   48DOPE  H12X 6172   7.529   1.485   4.411  0.5306 -0.9022 -2.2600
   48DOPE  H12Y 6173   7.373   1.399   4.446 -0.9301  0.1975 -1.3072
   48DOPE  C313 6174   7.354   1.602   4.357 -0.2347  0.2211  0.0936
   48DOPE  H13X 6175   7.411   1.674   4.294 -2.7255  0.6372 -1.8233
   48DOPE  H13Y 6176   7.258   1.583   4.305  0.8750 -2.2905 -1.2703
   48DOPE  C314 6177   7.313   1.666   4.489 -0.0628  0.2900  0.3952
   48DOPE  H14X 6178   7.405   1.691   4.546  0.4454 -2.0218  0.6993
   48DOPE  H14Y 6179   7.249   1.587   4.534  0.8918 -1.1730 -0.7021
   48DOPE  C315 6180   7.237   1.797   4.486  0.0523 -0.6326 -0.1470
   48DOPE  H15X 6181   7.154   1.793   4.413  0.8665  0.3444 -1.1798
   48DOPE  H15Y 6182   7.302   1.879   4.447  0.9210  0.0426  2.4811
   48DOPE  C316 6183   7.179   1.832   4.621 -0.3492  0.2638  0.2983
   48DOPE  H16X 6184   7.256   1.831   4.701  0.4895  0.3584 -0.4973
   48DOPE  H16Y 6185   7.106   1.750   4.635 -2.4049  1.5989 -1.8528
   48DOPE  C317 6186   7.099   1.968   4.621  0.4523  0.7615 -0.1344
   48DOPE  H17X 6187   7.145   2.037   4.547 -3.3632  0.6107 -2.9354
   48DOPE  H17Y 6188   6.997   1.945   4.583  0.5226  0.7707 -0.3282
   48DOPE  C318 6189   7.101   2.031   4.754  0.3737 -0.1198  0.1318
   48DOPE  H18X 6190   7.205   2.061   4.777 -0.5589  2.8415  0.9641
   48DOPE  H18Y 6191   7.040   2.124   4.754  0.3892 -0.0761  1.9218
   48DOPE  H18Z 6192   7.062   1.957   4.827  0.1176 -0.3087 -0.1901
   49DOPE     N 6193   2.346   5.767   3.591 -0.2015 -0.3411  0.1351
   49DOPE   HN1 6194   2.358   5.679   3.646 -0.8857 -1.2461 -1.1046
   49DOPE   HN2 6195   2.255   5.814   3.611 -0.3829 -0.2689 -0.7892
   49DOPE   HN3 6196   2.352   5.738   3.491  1.6061 -1.6032  0.5508
   49DOPE   C12 6197   2.443   5.871   3.641 -0.2360  0.2667 -0.4798
   49DOPE  H12A 6198   2.535   5.814   3.663 -0.3607 -0.2449 -1.2339
   49DOPE  H12B 6199   2.401   5.925   3.728 -0.7668  0.1129 -0.6320
   49DOPE   C11 6200   2.470   5.981   3.537  0.0083  0.2158 -0.8969
   49DOPE  H11A 6201   2.375   6.038   3.537  1.0143  2.1793  2.1608
   49DOPE  H11B 6202   2.511   5.943   3.441  0.0477 -0.7403 -0.5184
   49DOPE     P 6203   2.596   6.210   3.566 -0.5684  0.1898  0.2477
   49DOPE   O13 6204   2.503   6.298   3.642  0.2421  0.0790  0.2900
   49DOPE   O14 6205   2.586   6.228   3.419 -0.6345 -0.5161  0.4204
   49DOPE   O11 6206   2.744   6.236   3.613 -0.4715 -0.8038 -0.2005
   49DOPE   O12 6207   2.576   6.060   3.602  0.2034 -0.0044  0.0896
   49DOPE    C1 6208   2.857   6.165   3.555  0.3673  0.7884  0.2202
   49DOPE    HA 6209   2.907   6.220   3.472  1.3464 -0.3316  0.0313
   49DOPE    HB 6210   2.828   6.079   3.492 -1.9179  2.0586 -0.5686
   49DOPE    C2 6211   2.961   6.121   3.656  0.8705  0.2173 -0.1188
   49DOPE    HS 6212   3.033   6.060   3.598  1.5780 -0.9295  1.8705
   49DOPE   O21 6213   2.904   6.047   3.766  0.4645  0.1567 -0.2877
   49DOPE   C21 6214   2.864   5.924   3.740  0.3649  0.2289  0.3230
   49DOPE   O22 6215   2.885   5.866   3.632 -0.2981 -0.1073  0.4318
   49DOPE   C22 6216   2.812   5.864   3.873  0.1350  0.5307  0.5087
   49DOPE   H2R 6217   2.714   5.912   3.893 -0.0301  1.6945 -2.5642
   49DOPE   H2S 6218   2.892   5.880   3.948  0.4420 -0.3152  0.3743
   49DOPE    C3 6219   3.026   6.250   3.716  0.2272 -0.1001 -0.1183
   49DOPE    HX 6220   2.940   6.293   3.770 -0.9950 -1.7047 -0.7095
   49DOPE    HY 6221   3.047   6.328   3.640 -0.5399 -0.5620 -0.8133
   49DOPE   O31 6222   3.128   6.224   3.811  0.3622  0.8251 -0.4213
   49DOPE   C31 6223   3.256   6.234   3.770  0.1734 -0.4463  0.8299
   49DOPE   O32 6224   3.294   6.264   3.656  0.5680 -0.0173 -0.6589
   49DOPE   C32 6225   3.366   6.199   3.880 -0.5348 -0.5246  0.1510
   49DOPE   H2X 6226   3.308   6.214   3.974 -2.4502 -0.5063 -0.9771
   49DOPE   H2Y 6227   3.390   6.091   3.869  0.8863 -0.3499  1.2920
   49DOPE   C23 6228   2.772   5.717   3.863 -0.2372 -0.0434  0.8477
   49DOPE   H3R 6229   2.717   5.688   3.771 -3.8970  1.9721  2.1980
   49DOPE   H3S 6230   2.706   5.678   3.943 -1.0743 -0.3943  0.0113
   49DOPE   C24 6231   2.903   5.629   3.861  1.0767 -0.1323  0.0773
   49DOPE   H4R 6232   2.954   5.639   3.959 -0.8910 -0.6419  1.2176
   49DOPE   H4S 6233   2.968   5.658   3.776  1.4421 -0.6626  0.1687
   49DOPE   C25 6234   2.879   5.477   3.850 -0.4325  0.2988  0.6357
   49DOPE   H5R 6235   2.812   5.461   3.763  0.5907 -0.8875  0.0432
   49DOPE   H5S 6236   2.825   5.448   3.943  2.5317  0.2536  2.4741
   49DOPE   C26 6237   3.005   5.382   3.847 -0.6950  0.3403  0.3452
   49DOPE   H6R 6238   3.055   5.367   3.945 -0.5146  0.8692  0.3423
   49DOPE   H6S 6239   3.081   5.427   3.779  0.3479 -0.8599  0.6909
   49DOPE   C27 6240   2.979   5.241   3.797  0.1823 -0.5150  0.0055
   49DOPE   H7R 6241   3.081   5.199   3.780  0.8396  0.1437  2.0657
   49DOPE   H7S 6242   2.923   5.244   3.701  2.0583  1.9895 -1.1127
   49DOPE   C28 6243   2.903   5.146   3.895 -0.1139 -0.0746  0.5770
   49DOPE   H8R 6244   2.861   5.063   3.834 -0.8031  0.7596 -0.1114
   49DOPE   H8S 6245   2.812   5.201   3.926 -0.3209  0.6212 -1.1371
   49DOPE   C29 6246   2.980   5.090   4.011  0.5197  0.2648  0.4681
   49DOPE   H9R 6247   3.049   5.014   3.972 -2.1563 -1.4819 -1.2034
   49DOPE  C210 6248   2.967   5.138   4.140 -0.4111  0.3280  0.4420
   49DOPE  H10R 6249   3.023   5.094   4.224 -1.6645  0.3445  1.3046
   49DOPE  C211 6250   2.878   5.259   4.181  0.1183 -0.0586 -0.2028
   49DOPE  H11R 6251   2.780   5.231   4.226 -0.2816  1.2518 -0.2074
   49DOPE  H11S 6252   2.844   5.323   4.096 -4.4531 -0.8048  0.7878
   49DOPE  C212 6253   2.950   5.354   4.277 -0.4774  0.3773 -0.4807
   49DOPE  H12R 6254   2.891   5.448   4.282  1.5997  1.7332 -0.2840
   49DOPE  H12S 6255   3.049   5.381   4.237  1.0975 -1.2312  2.0363
   49DOPE  C213 6256   2.973   5.293   4.423  0.0681 -0.2671 -0.4194
   49DOPE  H13R 6257   3.026   5.197   4.408 -0.8584 -0.4357 -3.2455
   49DOPE  H13S 6258   2.868   5.277   4.454 -0.8565  1.0138 -2.6269
   49DOPE  C214 6259   3.046   5.392   4.519 -0.3710  0.0507  0.5187
   49DOPE  H14R 6260   3.045   5.350   4.622 -2.4864 -0.7114  0.2321
   49DOPE  H14S 6261   2.992   5.489   4.524  2.2854  1.6914 -0.3312
   49DOPE  C215 6262   3.189   5.414   4.488 -0.4215 -0.5023  0.6423
   49DOPE  H15R 6263   3.202   5.450   4.384 -3.2294 -2.8733 -0.6698
   49DOPE  H15S 6264   3.242   5.317   4.502  0.8890  0.2827  1.3674
   49DOPE  C216 6265   3.253   5.527   4.578  0.3458  0.5128  0.8708
   49DOPE  H16R 6266   3.362   5.505   4.586  0.1417 -0.0733  2.4197
   49DOPE  H16S 6267   3.215   5.520   4.682  0.1615 -0.9962  0.7194
   49DOPE  C217 6268   3.223   5.665   4.518  0.9722  0.7045  0.3193
   49DOPE  H17R 6269   3.112   5.674   4.511  1.0464  1.0096 -0.5943
   49DOPE  H17S 6270   3.257   5.670   4.413  1.4811  0.8825  0.4910
   49DOPE  C218 6271   3.301   5.774   4.590  0.5008 -0.1963 -0.6301
   49DOPE  H18R 6272   3.249   5.798   4.685  0.8905 -0.8900 -0.2334
   49DOPE  H18S 6273   3.304   5.871   4.535  4.1383  0.2106  0.0310
   49DOPE  H18T 6274   3.400   5.736   4.623  1.7966  1.3953 -2.4432
   49DOPE   C33 6275   3.503   6.283   3.873 -0.2409  0.2805  0.0205
   49DOPE   H3X 6276   3.469   6.384   3.904 -1.2094  0.0453 -0.2304
   49DOPE   H3Y 6277   3.541   6.286   3.768 -0.4789 -0.5931 -0.0993
   49DOPE   C34 6278   3.620   6.236   3.968 -0.5662  0.1793 -0.5525
   49DOPE   H4X 6279   3.660   6.140   3.929  0.0978  0.3045 -0.1974
   49DOPE   H4Y 6280   3.704   6.308   3.960 -0.7013  0.5184  0.8635
   49DOPE   C35 6281   3.583   6.225   4.116  0.2785 -0.1884 -0.6521
   49DOPE   H5X 6282   3.540   6.124   4.136  2.2993 -1.0149 -0.2324
   49DOPE   H5Y 6283   3.502   6.295   4.145  0.3741 -0.0480 -0.7252
   49DOPE   C36 6284   3.694   6.251   4.213  0.4468  0.5548  0.0521
   49DOPE   H6X 6285   3.751   6.333   4.164  0.6287 -0.2521 -1.1162
   49DOPE   H6Y 6286   3.754   6.158   4.208  0.0511  0.3300 -0.6802
   49DOPE   C37 6287   3.649   6.269   4.354  0.2516 -0.5634  0.0629
   49DOPE   H7X 6288   3.569   6.195   4.375 -2.2741  2.0085  0.2073
   49DOPE   H7Y 6289   3.737   6.258   4.420  0.1746  0.3432  0.3330
   49DOPE   C38 6290   3.587   6.412   4.381  0.4076 -0.1278 -0.3501
   49DOPE   H8X 6291   3.531   6.445   4.291 -0.6351 -1.8307 -0.3854
   49DOPE   H8Y 6292   3.671   6.483   4.392 -0.0603  0.2281  1.2137
   49DOPE   C39 6293   3.486   6.408   4.492  0.6406 -0.3978  0.7806
   49DOPE   H9X 6294   3.384   6.386   4.459  0.1862  0.3253  1.6717
   49DOPE  C310 6295   3.525   6.455   4.612  0.2877 -0.3161  0.8048
   49DOPE  H10X 6296   3.451   6.469   4.691 -0.3006 -1.7405  0.5378
   49DOPE  C311 6297   3.663   6.501   4.653 -0.4224  0.5106  0.3211
   49DOPE  H11X 6298   3.738   6.462   4.580 -0.4141 -1.7246  1.4551
   49DOPE  H11Y 6299   3.684   6.609   4.662  2.7948  0.1159 -0.8915
   49DOPE  C312 6300   3.680   6.439   4.796  0.1620 -0.3318 -0.1060
   49DOPE  H12X 6301   3.673   6.329   4.782  1.9796 -0.3676 -0.9774
   49DOPE  H12Y 6302   3.606   6.464   4.875  0.5881 -0.1126  0.2216
   49DOPE  C313 6303   3.811   6.479   4.862 -1.0135  0.6215  0.2798
   49DOPE  H13X 6304   3.892   6.472   4.787 -0.2359 -0.4504  1.1871
   49DOPE  H13Y 6305   3.806   6.583   4.901 -1.2536  1.5150 -2.0014
   49DOPE  C314 6306   3.844   6.390   4.977 -0.5087 -0.7509  0.1981
   49DOPE  H14X 6307   3.820   6.283   4.957  1.0300 -1.3541  1.3345
   49DOPE  H14Y 6308   3.783   6.418   5.065 -0.7410  0.2247 -0.2617
   49DOPE  C315 6309   3.988   6.396   5.020 -0.1121  0.4706 -0.2437
   49DOPE  H15X 6310   4.004   6.504   5.040  0.7790  0.0464  1.5633
   49DOPE  H15Y 6311   4.063   6.368   4.944 -1.4600 -0.8779 -1.1460
   49DOPE  C316 6312   3.999   6.312   5.150 -0.1688 -0.5568  0.5337
   49DOPE  H16X 6313   3.976   6.209   5.117  1.4367 -0.0084 -2.7385
   49DOPE  H16Y 6314   3.926   6.354   5.222 -4.5538 -0.4811 -3.4412
   49DOPE  C317 6315   4.142   6.303   5.196  0.2168 -0.2084  0.1926
   49DOPE  H17X 6316   4.186   6.202   5.181  0.5012 -0.2617  1.3221
   49DOPE  H17Y 6317   4.198   6.391   5.157  1.2889 -0.4589  1.1031
   49DOPE  C318 6318   4.129   6.317   5.348  0.0958 -0.1067 -0.2884
   49DOPE  H18X 6319   4.231   6.320   5.392 -0.0008  1.9105 -0.1460
   49DOPE  H18Y 6320   4.077   6.410   5.378  0.5183 -0.8248  3.0482
   49DOPE  H18Z 6321   4.069   6.236   5.396  1.7665 -0.1539  1.9037
   50DOPE     N 6322   1.652   3.447   2.849 -0.7357  0.4219 -0.0990
   50DOPE   HN1 6323   1.691   3.503   2.771  0.4266 -0.1448  0.0642
   50DOPE   HN2 6324   1.656   3.507   2.933  1.8356 -0.0279  0.1772
   50DOPE   HN3 6325   1.721   3.373   2.873 -0.0893  1.4419  1.2746
   50DOPE   C12 6326   1.512   3.383   2.834 -0.3935 -0.2172  0.2799
   50DOPE  H12A 6327   1.503   3.301   2.909  0.4921 -2.0599 -1.5313
   50DOPE  H12B 6328   1.500   3.334   2.735 -1.1325 -0.0927  0.2977
   50DOPE   C11 6329   1.403   3.488   2.856 -0.1448  0.2482  0.3912
   50DOPE  H11A 6330   1.307   3.442   2.822 -0.2254 -1.1070  2.2724
   50DOPE  H11B 6331   1.416   3.578   2.793  1.4881 -0.1534  0.1213
   50DOPE     P 6332   1.458   3.647   3.051 -0.1829  0.0667 -0.2203
   50DOPE   O13 6333   1.385   3.768   3.012  0.2243  0.4281 -0.7341
   50DOPE   O14 6334   1.602   3.646   3.015  0.5609  0.0724 -0.0510
   50DOPE   O11 6335   1.445   3.610   3.210 -0.2212  0.0475 -0.4136
   50DOPE   O12 6336   1.386   3.523   2.991  0.6889  0.0787  0.7901
   50DOPE    C1 6337   1.375   3.694   3.300 -0.0888 -0.4623 -0.2144
   50DOPE    HA 6338   1.366   3.635   3.393 -0.4817  0.6151  0.4497
   50DOPE    HB 6339   1.277   3.721   3.254  0.3662  0.5443 -0.6303
   50DOPE    C2 6340   1.446   3.827   3.340 -0.7803  0.2003  0.0967
   50DOPE    HS 6341   1.459   3.891   3.250  2.0337  0.7961  0.8326
   50DOPE   O21 6342   1.578   3.798   3.405 -0.5181 -0.3948  0.5777
   50DOPE   C21 6343   1.667   3.894   3.396  0.0686  0.1386  0.3159
   50DOPE   O22 6344   1.652   4.002   3.335 -0.3250 -0.3569 -0.3907
   50DOPE   C22 6345   1.797   3.844   3.476  0.3959  0.4381 -0.1506
   50DOPE   H2R 6346   1.846   3.775   3.404  0.4225 -1.0890  1.2743
   50DOPE   H2S 6347   1.768   3.790   3.568  0.0611 -2.3252 -1.7641
   50DOPE    C3 6348   1.345   3.905   3.425 -0.5029  0.2992 -0.0962
   50DOPE    HX 6349   1.245   3.904   3.378 -0.7621  1.9931  0.3602
   50DOPE    HY 6350   1.371   4.011   3.409  1.9852  0.1920  2.3629
   50DOPE   O31 6351   1.339   3.872   3.569  0.0478  0.1133  0.0940
   50DOPE   C31 6352   1.411   3.948   3.651  0.2654  0.3420  0.6853
   50DOPE   O32 6353   1.482   4.037   3.619  0.4381 -0.0586  0.6181
   50DOPE   C32 6354   1.381   3.900   3.798 -0.9697  0.4927  0.2244
   50DOPE   H2X 6355   1.271   3.889   3.796 -0.8091 -1.1874 -0.7199
   50DOPE   H2Y 6356   1.431   3.801   3.807 -3.2110 -0.6481  1.0524
   50DOPE   C23 6357   1.894   3.961   3.508 -0.4063 -0.3626  0.0789
   50DOPE   H3R 6358   1.923   4.032   3.427  1.4840  0.7241  1.6309
   50DOPE   H3S 6359   1.992   3.912   3.528 -0.8031 -2.4730 -2.4687
   50DOPE   C24 6360   1.852   4.056   3.621  0.5985 -0.0483  0.2924
   50DOPE   H4R 6361   1.752   4.101   3.604  0.8415  0.9009  1.2853
   50DOPE   H4S 6362   1.927   4.138   3.626  1.3883 -0.7215 -0.1486
   50DOPE   C25 6363   1.852   3.982   3.754 -0.2890  0.1570 -0.6644
   50DOPE   H5R 6364   1.924   3.898   3.747 -0.1348  0.1156  0.9103
   50DOPE   H5S 6365   1.752   3.938   3.776 -0.4383  0.8810  0.1852
   50DOPE   C26 6366   1.890   4.072   3.876 -0.2202 -0.4616  0.2304
   50DOPE   H6R 6367   1.851   4.170   3.840 -0.3988 -0.4721  0.3943
   50DOPE   H6S 6368   1.995   4.105   3.862 -0.8645  0.8020 -2.2125
   50DOPE   C27 6369   1.860   4.014   4.015  0.7043 -0.2376 -0.7027
   50DOPE   H7R 6370   1.912   3.917   4.024  0.3815 -0.3437  0.1052
   50DOPE   H7S 6371   1.750   3.998   4.022  1.1280 -2.9780  0.8329
   50DOPE   C28 6372   1.911   4.115   4.118  0.3283  0.5442 -0.8754
   50DOPE   H8R 6373   1.848   4.092   4.207  1.5120  1.2079  0.1648
   50DOPE   H8S 6374   1.888   4.217   4.081  1.5771  0.9287 -0.6201
   50DOPE   C29 6375   2.050   4.082   4.153 -0.2269  0.2432  0.2826
   50DOPE   H9R 6376   2.120   4.103   4.071 -2.3983  0.2989 -1.6665
   50DOPE  C210 6377   2.099   4.049   4.272  0.3141  0.3160 -0.1452
   50DOPE  H10R 6378   2.208   4.032   4.281  0.3090  1.4564  4.1445
   50DOPE  C211 6379   2.023   4.013   4.400  0.4539  0.4392 -0.0591
   50DOPE  H11R 6380   1.920   3.988   4.370  1.0957 -2.7154  0.0645
   50DOPE  H11S 6381   2.014   4.087   4.483  2.8077  0.1708  0.5170
   50DOPE  C212 6382   2.080   3.879   4.451 -0.4655  0.1604 -0.5866
   50DOPE  H12R 6383   2.185   3.892   4.483 -0.3762  1.3384 -1.2764
   50DOPE  H12S 6384   2.072   3.814   4.361  0.4522  1.5214 -1.7044
   50DOPE  C213 6385   2.003   3.813   4.564 -0.2028  0.2588  0.4798
   50DOPE  H13R 6386   1.893   3.808   4.551 -0.2320  0.9825  0.4581
   50DOPE  H13S 6387   2.023   3.870   4.657  0.5889  3.7899 -1.6930
   50DOPE  C214 6388   2.048   3.663   4.583 -0.1641  0.2362 -0.2766
   50DOPE  H14R 6389   2.153   3.671   4.620 -1.0185  0.2905  2.3351
   50DOPE  H14S 6390   2.056   3.615   4.483  1.5333  0.6111 -0.3494
   50DOPE  C215 6391   1.969   3.576   4.680  0.0173  0.1333  0.2994
   50DOPE  H15R 6392   2.031   3.487   4.705  2.9154  1.9553  0.0956
   50DOPE  H15S 6393   1.879   3.544   4.623 -0.1714  2.9938 -1.2058
   50DOPE  C216 6394   1.910   3.643   4.802  0.3562 -0.1829 -0.5144
   50DOPE  H16R 6395   1.849   3.733   4.784  1.0153  0.4306  0.2700
   50DOPE  H16S 6396   1.995   3.674   4.867 -0.4662  2.3789 -0.5688
   50DOPE  C217 6397   1.826   3.540   4.882 -0.5595  0.0217  0.7819
   50DOPE  H17R 6398   1.825   3.570   4.989  1.1665 -3.5600  1.9747
   50DOPE  H17S 6399   1.883   3.444   4.880  0.1117  0.3882 -1.9016
   50DOPE  C218 6400   1.686   3.505   4.830 -0.5969  0.5728 -0.4918
   50DOPE  H18R 6401   1.622   3.595   4.838  0.2676  1.2187 -0.7524
   50DOPE  H18S 6402   1.652   3.425   4.899  0.5016  0.3021 -0.2390
   50DOPE  H18T 6403   1.700   3.456   4.731  0.9600 -1.5574  0.6883
   50DOPE   C33 6404   1.434   3.992   3.909  0.4618 -0.1551 -0.3756
   50DOPE   H3X 6405   1.442   4.097   3.875  3.7707  0.1284  0.9110
   50DOPE   H3Y 6406   1.545   3.983   3.918  0.8092  0.2271 -3.4127
   50DOPE   C34 6407   1.352   3.990   4.041  0.2588 -0.1709 -0.0609
   50DOPE   H4X 6408   1.243   3.998   4.023  0.1245  0.5136  0.9958
   50DOPE   H4Y 6409   1.370   3.897   4.099  0.8635 -0.4485 -0.6702
   50DOPE   C35 6410   1.386   4.109   4.124  0.0829 -0.4795  0.5663
   50DOPE   H5X 6411   1.353   4.201   4.070  0.5573 -1.4886 -1.5618
   50DOPE   H5Y 6412   1.496   4.111   4.140  0.0907 -0.8191  0.5566
   50DOPE   C36 6413   1.317   4.100   4.261  0.2378 -0.6837 -0.1553
   50DOPE   H6X 6414   1.378   4.045   4.336 -0.5494  1.0070  1.8577
   50DOPE   H6Y 6415   1.226   4.037   4.263  0.9301 -1.7416 -1.3250
   50DOPE   C37 6416   1.290   4.231   4.338  0.3187  0.7949 -0.4768
   50DOPE   H7X 6417   1.383   4.292   4.345 -0.8200  2.5673 -0.2287
   50DOPE   H7Y 6418   1.220   4.296   4.281  0.6301  1.0787 -0.5421
   50DOPE   C38 6419   1.245   4.196   4.481 -0.1015 -0.5815  0.2716
   50DOPE   H8X 6420   1.255   4.283   4.549  1.0681  0.0507 -0.6866
   50DOPE   H8Y 6421   1.313   4.127   4.535 -1.3769 -1.0932  1.2825
   50DOPE   C39 6422   1.099   4.161   4.495  0.2969  0.3318  0.3123
   50DOPE   H9X 6423   1.046   4.164   4.399  1.4638  1.8282 -0.3359
   50DOPE  C310 6424   1.039   4.116   4.608  0.4194  0.3986 -0.0786
   50DOPE  H10X 6425   0.934   4.084   4.598  0.3005  1.2996 -2.0581
   50DOPE  C311 6426   1.112   4.101   4.742 -0.4567  0.1283  0.8954
   50DOPE  H11X 6427   1.127   3.991   4.750  1.4361 -0.0759 -2.9411
   50DOPE  H11Y 6428   1.213   4.147   4.731  0.0410 -1.2566 -0.8151
   50DOPE  C312 6429   1.047   4.168   4.867  0.3255 -0.4573 -0.9210
   50DOPE  H12X 6430   1.081   4.121   4.961 -2.2135 -1.5396 -0.4533
   50DOPE  H12Y 6431   0.940   4.135   4.868  0.2756 -0.3739  1.3364
   50DOPE  C313 6432   1.053   4.323   4.879 -0.3399 -0.0600  0.3780
   50DOPE  H13X 6433   1.154   4.348   4.916  0.8669  0.4119 -2.8926
   50DOPE  H13Y 6434   1.044   4.377   4.782 -0.4032 -0.7727 -0.0157
   50DOPE  C314 6435   0.941   4.387   4.968 -0.2713 -0.2930 -0.1875
   50DOPE  H14X 6436   0.952   4.492   5.001  2.2855  0.5102 -3.0543
   50DOPE  H14Y 6437   0.955   4.327   5.060 -0.2832  0.6504  0.4385
   50DOPE  C315 6438   0.809   4.352   4.925  0.2999  0.1308  0.2404
   50DOPE  H15X 6439   0.783   4.247   4.950 -0.7428  0.1432 -0.6967
   50DOPE  H15Y 6440   0.792   4.362   4.816 -0.1281 -0.5856  0.2394
   50DOPE  C316 6441   0.691   4.452   4.969  0.3478 -0.2548  0.2050
   50DOPE  H16X 6442   0.708   4.557   4.936  0.1165  0.1943  1.4885
   50DOPE  H16Y 6443   0.681   4.454   5.079  0.2620 -0.7904  0.2097
   50DOPE  C317 6444   0.563   4.416   4.890 -0.0842 -0.3183 -0.0880
   50DOPE  H17X 6445   0.567   4.468   4.793 -1.8061  1.3111  0.6524
   50DOPE  H17Y 6446   0.573   4.309   4.861  2.1826 -0.6129  1.4272
   50DOPE  C318 6447   0.423   4.458   4.942  0.7794 -0.1786  0.1555
   50DOPE  H18X 6448   0.411   4.415   5.043 -0.4757  0.5153  0.3264
   50DOPE  H18Y 6449   0.409   4.567   4.960 -2.1379 -0.3731 -0.4361
   50DOPE  H18Z 6450   0.346   4.421   4.871  1.3514 -1.3983  0.1487
   51DOPE     N 6451   2.900   7.356   3.324  0.1747  0.6036 -0.3156
   51DOPE   HN1 6452   2.965   7.354   3.405  0.5770  0.7346 -0.6286
   51DOPE   HN2 6453   2.893   7.446   3.272 -0.4795 -0.1517 -1.5902
   51DOPE   HN3 6454   2.804   7.330   3.355 -0.5389  0.9934 -2.0663
   51DOPE   C12 6455   2.945   7.253   3.228 -0.0574 -0.2797  0.1591
   51DOPE  H12A 6456   2.860   7.232   3.160  0.4536 -0.4611 -0.4306
   51DOPE  H12B 6457   2.980   7.164   3.284  1.2717  1.7302  2.7541
   51DOPE   C11 6458   3.062   7.314   3.142 -0.1705 -0.1308 -0.3443
   51DOPE  H11A 6459   3.036   7.413   3.099 -2.5185 -0.6143 -0.1991
   51DOPE  H11B 6460   3.076   7.242   3.059 -1.0591 -0.4406 -0.2397
   51DOPE     P 6461   3.312   7.247   3.207  0.6056 -0.2724 -0.5918
   51DOPE   O13 6462   3.387   7.298   3.095  0.3892 -0.1571 -0.2318
   51DOPE   O14 6463   3.272   7.104   3.193  0.2200 -0.0994 -0.3272
   51DOPE   O11 6464   3.390   7.271   3.338 -0.0076 -0.2920  0.1558
   51DOPE   O12 6465   3.177   7.334   3.231  0.4093  0.2260  0.0306
   51DOPE    C1 6466   3.499   7.181   3.365  0.4461 -0.2864 -0.2020
   51DOPE    HA 6467   3.584   7.200   3.297  2.4674 -0.2002  2.1885
   51DOPE    HB 6468   3.467   7.076   3.352 -2.0933  0.3972 -0.0153
   51DOPE    C2 6469   3.557   7.208   3.506 -0.6594 -0.5487 -0.0501
   51DOPE    HS 6470   3.625   7.121   3.521  0.4060  0.3071  0.2107
   51DOPE   O21 6471   3.455   7.215   3.604  0.5600 -0.1007 -0.2644
   51DOPE   C21 6472   3.373   7.118   3.621 -0.7460 -0.4986  0.3661
   51DOPE   O22 6473   3.345   7.035   3.533 -0.3093  0.1886 -0.0418
   51DOPE   C22 6474   3.299   7.139   3.757 -0.5771 -0.0745 -0.0960
   51DOPE   H2R 6475   3.189   7.144   3.743 -0.4207 -1.3787 -2.1746
   51DOPE   H2S 6476   3.317   7.243   3.794 -3.3098  0.4578 -0.0423
   51DOPE    C3 6477   3.640   7.343   3.515  0.3100  0.7318  0.0144
   51DOPE    HX 6478   3.598   7.430   3.461  0.1998 -0.1353 -1.3513
   51DOPE    HY 6479   3.737   7.309   3.472  0.5085 -1.5311  2.0542
   51DOPE   O31 6480   3.679   7.379   3.649 -0.8246 -0.7416  0.5356
   51DOPE   C31 6481   3.618   7.479   3.713  0.3033 -0.5516 -0.3691
   51DOPE   O32 6482   3.529   7.547   3.661 -0.2141  0.2554  0.1199
   51DOPE   C32 6483   3.687   7.496   3.856 -0.3535  0.0541  0.4794
   51DOPE   H2X 6484   3.740   7.402   3.882 -0.2522  0.5899  2.3408
   51DOPE   H2Y 6485   3.750   7.588   3.846  0.2460 -0.0061  3.0193
   51DOPE   C23 6486   3.346   7.031   3.854 -0.0798 -0.0885 -0.3725
   51DOPE   H3R 6487   3.298   7.060   3.949 -1.2636 -0.7434 -0.7542
   51DOPE   H3S 6488   3.457   7.026   3.864 -0.1258  0.0725  0.2326
   51DOPE   C24 6489   3.300   6.886   3.822  0.4506 -0.0541  0.3157
   51DOPE   H4R 6490   3.348   6.814   3.893 -0.2610  0.6392  1.5449
   51DOPE   H4S 6491   3.337   6.865   3.720 -1.6677 -1.5489 -0.2032
   51DOPE   C25 6492   3.148   6.859   3.833  0.4655  0.2698  0.0041
   51DOPE   H5R 6493   3.104   6.942   3.774  2.1228  0.1296 -1.4957
   51DOPE   H5S 6494   3.115   6.854   3.939 -0.9370  1.5631 -0.3296
   51DOPE   C26 6495   3.127   6.719   3.772 -0.2680 -0.0295 -0.1570
   51DOPE   H6R 6496   3.172   6.725   3.670 -1.7357  0.3411 -0.8077
   51DOPE   H6S 6497   3.019   6.704   3.751 -0.2664 -0.3173  0.0523
   51DOPE   C27 6498   3.179   6.598   3.849 -0.0879  0.0421 -0.4782
   51DOPE   H7R 6499   3.289   6.612   3.854 -0.3104  1.4349  2.0250
   51DOPE   H7S 6500   3.151   6.504   3.797 -0.6673  1.4777 -2.8881
   51DOPE   C28 6501   3.128   6.586   3.995  0.4041  0.0073 -0.4893
   51DOPE   H8R 6502   3.018   6.601   3.998  0.3282 -0.4828 -0.8157
   51DOPE   H8S 6503   3.186   6.663   4.051  0.3926  0.1219 -0.6356
   51DOPE   C29 6504   3.165   6.450   4.051 -0.3002  0.0538 -0.3445
   51DOPE   H9R 6505   3.271   6.422   4.039 -0.2007  0.3771 -0.2410
   51DOPE  C210 6506   3.076   6.357   4.093 -0.8101  0.3821 -0.2436
   51DOPE  H10R 6507   3.115   6.257   4.117 -0.0229  0.3082 -1.6608
   51DOPE  C211 6508   2.930   6.370   4.105 -0.7711  0.3336 -0.1411
   51DOPE  H11R 6509   2.908   6.456   4.038  0.5215  1.3785  0.7375
   51DOPE  H11S 6510   2.915   6.399   4.211  2.7202 -0.9358  0.8531
   51DOPE  C212 6511   2.852   6.242   4.074  1.1313 -0.1110  0.1718
   51DOPE  H12R 6512   2.867   6.165   4.152  1.6699  0.6379  0.8189
   51DOPE  H12S 6513   2.881   6.208   3.972 -2.2856 -2.5616 -0.1626
   51DOPE  C213 6514   2.705   6.287   4.067  0.3365  0.0512 -0.0161
   51DOPE  H13R 6515   2.695   6.389   4.025 -0.1569 -0.1404 -0.3651
   51DOPE  H13S 6516   2.674   6.283   4.174  0.1726 -0.4980 -0.0804
   51DOPE  C214 6517   2.604   6.193   3.990 -0.1929 -0.0260  0.6085
   51DOPE  H14R 6518   2.613   6.083   4.007  0.9183 -0.3015 -1.4138
   51DOPE  H14S 6519   2.631   6.209   3.883  0.3063 -0.0216  0.7327
   51DOPE  C215 6520   2.456   6.224   4.001  0.1755 -0.3871 -0.0372
   51DOPE  H15R 6521   2.433   6.330   3.979  0.5611  0.0677  1.6359
   51DOPE  H15S 6522   2.431   6.206   4.108 -0.4667  0.6473 -0.0049
   51DOPE  C216 6523   2.370   6.129   3.915 -0.7920 -0.1030  0.8452
   51DOPE  H16R 6524   2.386   6.022   3.942  2.1149 -0.0318 -0.2466
   51DOPE  H16S 6525   2.406   6.129   3.810 -2.6980 -0.8564  0.1394
   51DOPE  C217 6526   2.221   6.171   3.923 -0.6448  0.4701 -0.3078
   51DOPE  H17R 6527   2.196   6.163   4.030 -0.3730 -1.4108 -0.3515
   51DOPE  H17S 6528   2.158   6.093   3.875 -0.8245 -0.7001  1.7636
   51DOPE  C218 6529   2.166   6.305   3.872 -0.3863 -0.0503 -0.5282
   51DOPE  H18R 6530   2.154   6.309   3.762 -2.2780  0.4015 -0.3405
   51DOPE  H18S 6531   2.227   6.387   3.915 -1.1744 -0.0345  0.6010
   51DOPE  H18T 6532   2.060   6.306   3.905 -0.7321 -0.8251 -1.5650
   51DOPE   C33 6533   3.580   7.526   3.965  0.1253  0.5621  0.5507
   51DOPE   H3X 6534   3.487   7.468   3.950  0.8675 -0.1325 -1.7734
   51DOPE   H3Y 6535   3.560   7.636   3.966 -0.0279  0.5395  0.0169
   51DOPE   C34 6536   3.634   7.476   4.097  0.8087  0.7826  0.0584
   51DOPE   H4X 6537   3.672   7.371   4.092 -0.6489  0.1502  1.2705
   51DOPE   H4Y 6538   3.711   7.543   4.139  2.0690  1.1207 -2.5717
   51DOPE   C35 6539   3.525   7.476   4.203  0.3371 -0.3776 -0.5526
   51DOPE   H5X 6540   3.450   7.397   4.181 -1.5798  1.6604 -1.7084
   51DOPE   H5Y 6541   3.462   7.567   4.194  2.4954  1.3087  0.2747
   51DOPE   C36 6542   3.582   7.436   4.344 -0.5649  1.0134  0.7324
   51DOPE   H6X 6543   3.648   7.347   4.343  0.4811  1.7260  2.1884
   51DOPE   H6Y 6544   3.498   7.408   4.412  0.2133  0.9496  1.6833
   51DOPE   C37 6545   3.667   7.537   4.421 -0.1706 -0.0549  0.0420
   51DOPE   H7X 6546   3.757   7.570   4.364 -1.9803  1.5274 -2.1160
   51DOPE   H7Y 6547   3.599   7.625   4.421  0.1570  0.2213  1.7708
   51DOPE   C38 6548   3.697   7.501   4.570 -0.1538 -0.4695 -0.6284
   51DOPE   H8X 6549   3.607   7.452   4.612 -0.8898  1.0262 -0.3775
   51DOPE   H8Y 6550   3.717   7.601   4.615 -1.9562 -0.1174 -0.5292
   51DOPE   C39 6551   3.811   7.413   4.594 -0.0872  0.6784 -0.9321
   51DOPE   H9X 6552   3.825   7.330   4.522 -2.4264  0.0308 -0.7485
   51DOPE  C310 6553   3.894   7.421   4.697 -0.2839 -0.4206  0.2017
   51DOPE  H10X 6554   3.956   7.331   4.709 -0.4597 -0.5177  0.4057
   51DOPE  C311 6555   3.916   7.535   4.802  0.2651  0.2074  0.1975
   51DOPE  H11X 6556   4.022   7.568   4.811 -0.2566  2.0522 -0.0744
   51DOPE  H11Y 6557   3.862   7.628   4.775 -1.5563 -1.1302 -0.9143
   51DOPE  C312 6558   3.847   7.500   4.936  0.1070  0.9381  0.2780
   51DOPE  H12X 6559   3.859   7.392   4.956  0.9877  1.0036  0.1407
   51DOPE  H12Y 6560   3.736   7.509   4.930 -0.1701 -2.2479 -1.0178
   51DOPE  C313 6561   3.901   7.584   5.052  0.7174  0.2405  0.3066
   51DOPE  H13X 6562   4.012   7.578   5.060  0.5934 -0.8108  1.6251
   51DOPE  H13Y 6563   3.861   7.683   5.023 -1.5353 -0.5532  0.4979
   51DOPE  C314 6564   3.838   7.538   5.184  0.4014 -0.3337  0.3092
   51DOPE  H14X 6565   3.859   7.429   5.176  3.2261  0.0329  1.5621
   51DOPE  H14Y 6566   3.727   7.539   5.180  0.3270 -0.5150  1.7774
   51DOPE  C315 6567   3.894   7.583   5.323  0.7146  0.1395  1.1291
   51DOPE  H15X 6568   3.837   7.547   5.412  0.4912  2.3060  1.9234
   51DOPE  H15Y 6569   3.887   7.694   5.328 -0.1061  0.1160  0.6062
   51DOPE  C316 6570   4.046   7.558   5.343  0.0044 -0.7342 -0.3401
   51DOPE  H16X 6571   4.098   7.561   5.245  0.2969 -1.9253 -0.2355
   51DOPE  H16Y 6572   4.051   7.451   5.374  1.5887 -0.9517 -1.2388
   51DOPE  C317 6573   4.130   7.651   5.435 -0.4824  0.2044  0.7433
   51DOPE  H17X 6574   4.086   7.752   5.424  1.7267  1.1007 -0.6423
   51DOPE  H17Y 6575   4.110   7.615   5.538  0.7713 -0.6067  0.7303
   51DOPE  C318 6576   4.285   7.656   5.422  0.2420 -0.8045  0.1381
   51DOPE  H18X 6577   4.324   7.677   5.320  1.0460  0.7461  0.7292
   51DOPE  H18Y 6578   4.332   7.740   5.477 -2.4912  1.6646 -1.0435
   51DOPE  H18Z 6579   4.330   7.558   5.449 -1.4494 -1.9739 -1.0655
   52DOPE     N 6580   0.829   3.993   2.843 -0.6087 -0.0814  0.2937
   52DOPE   HN1 6581   0.788   3.949   2.927  1.2423  0.2768  1.4346
   52DOPE   HN2 6582   0.776   4.080   2.821  2.4568  1.3571 -2.2598
   52DOPE   HN3 6583   0.806   3.932   2.761 -0.1810  1.0264 -0.6854
   52DOPE   C12 6584   0.977   4.013   2.860 -0.0271  0.0435  0.2250
   52DOPE  H12A 6585   1.024   4.039   2.762 -3.2094 -0.0019 -1.4268
   52DOPE  H12B 6586   1.000   3.904   2.868 -2.9050 -0.9359 -2.5445
   52DOPE   C11 6587   1.028   4.085   2.984  0.0084 -0.1306  0.4457
   52DOPE  H11A 6588   1.139   4.087   2.986  0.1178 -1.0639 -1.7653
   52DOPE  H11B 6589   1.000   4.014   3.065  0.5724 -1.4460 -0.4789
   52DOPE     P 6590   0.972   4.295   3.133  0.1397 -0.2974  0.0799
   52DOPE   O13 6591   1.021   4.427   3.093 -0.0957 -0.6448  0.0070
   52DOPE   O14 6592   1.048   4.223   3.242 -0.2236  0.4055  0.2647
   52DOPE   O11 6593   0.822   4.298   3.174 -0.1374 -0.3050 -0.2905
   52DOPE   O12 6594   0.974   4.212   2.997  0.6793  0.1304 -0.4890
   52DOPE    C1 6595   0.727   4.195   3.147  0.3887  0.4481 -0.1002
   52DOPE    HA 6596   0.781   4.102   3.118  0.3123  0.7234 -1.1549
   52DOPE    HB 6597   0.666   4.226   3.060 -2.5209 -1.2979  1.1858
   52DOPE    C2 6598   0.641   4.171   3.274  0.4655  0.3018 -0.1121
   52DOPE    HS 6599   0.573   4.089   3.242 -0.2455  0.0636  1.8787
   52DOPE   O21 6600   0.563   4.290   3.300 -0.5568 -0.1788  0.0947
   52DOPE   C21 6601   0.475   4.323   3.214  0.1650  1.0050  0.2954
   52DOPE   O22 6602   0.454   4.284   3.101  0.8815  0.0384 -0.7773
   52DOPE   C22 6603   0.398   4.446   3.283  0.2349  0.0003  0.6706
   52DOPE   H2R 6604   0.328   4.490   3.209  0.6178 -1.5998 -0.7048
   52DOPE   H2S 6605   0.480   4.519   3.303  0.6366  0.0723 -1.0643
   52DOPE    C3 6606   0.723   4.138   3.398 -0.8325  0.2244  0.1019
   52DOPE    HX 6607   0.788   4.228   3.400  0.5398 -0.4179 -4.5532
   52DOPE    HY 6608   0.793   4.055   3.373 -0.4379  0.3838  0.6668
   52DOPE   O31 6609   0.644   4.117   3.515 -0.0428  0.8623 -0.0401
   52DOPE   C31 6610   0.638   4.220   3.602 -0.4367 -0.2113  0.3231
   52DOPE   O32 6611   0.703   4.317   3.603  0.1718  0.1759 -0.1683
   52DOPE   C32 6612   0.542   4.178   3.714  0.3253 -0.1620 -0.8660
   52DOPE   H2X 6613   0.437   4.201   3.686 -0.0615 -0.2733  0.3919
   52DOPE   H2Y 6614   0.557   4.069   3.728  2.7326  0.2300  0.0841
   52DOPE   C23 6615   0.329   4.423   3.423  0.0953 -0.0491  0.3716
   52DOPE   H3R 6616   0.364   4.331   3.475  1.5016  0.5270  0.4737
   52DOPE   H3S 6617   0.218   4.417   3.413 -0.0010 -2.6226  2.0577
   52DOPE   C24 6618   0.370   4.549   3.513 -0.5455 -0.3345  0.4385
   52DOPE   H4R 6619   0.331   4.646   3.478  1.1179  0.1338 -0.2250
   52DOPE   H4S 6620   0.481   4.540   3.506 -0.3837  1.1857  0.6715
   52DOPE   C25 6621   0.328   4.530   3.659 -0.1746  0.1537 -0.8441
   52DOPE   H5R 6622   0.404   4.461   3.701 -0.0617  1.0043  0.4179
   52DOPE   H5S 6623   0.231   4.477   3.669  1.2515 -2.7076 -0.9458
   52DOPE   C26 6624   0.332   4.665   3.745 -0.5704 -0.2836 -0.4729
   52DOPE   H6R 6625   0.284   4.649   3.844 -1.4734  0.7296 -0.7294
   52DOPE   H6S 6626   0.271   4.741   3.690 -0.4722 -0.1389 -0.3819
   52DOPE   C27 6627   0.472   4.723   3.761  0.3599  0.3367  0.2655
   52DOPE   H7R 6628   0.545   4.702   3.680  1.7438  1.5793  1.1502
   52DOPE   H7S 6629   0.514   4.661   3.844  1.5461 -1.5153 -1.6131
   52DOPE   C28 6630   0.474   4.867   3.814 -0.4083  0.4372  0.6609
   52DOPE   H8R 6631   0.571   4.901   3.856  1.0837 -1.1740 -1.2995
   52DOPE   H8S 6632   0.404   4.875   3.901 -2.1148  0.0348 -0.6160
   52DOPE   C29 6633   0.430   4.949   3.694  0.1033 -0.1948  0.1281
   52DOPE   H9R 6634   0.476   4.935   3.596  1.0429  3.0013 -0.0158
   52DOPE  C210 6635   0.339   5.047   3.699 -0.5070 -0.3055  0.0076
   52DOPE  H10R 6636   0.315   5.113   3.613 -0.3643 -0.9658 -0.5467
   52DOPE  C211 6637   0.254   5.076   3.828 -0.3693 -0.0854  0.0371
   52DOPE  H11R 6638   0.237   4.989   3.895 -0.0006 -0.2728 -0.1115
   52DOPE  H11S 6639   0.151   5.104   3.796 -0.2753 -0.9800 -1.0848
   52DOPE  C212 6640   0.300   5.198   3.923  0.0637  0.7705 -0.6151
   52DOPE  H12R 6641   0.213   5.256   3.962 -0.2905 -1.1467  1.7072
   52DOPE  H12S 6642   0.353   5.270   3.858 -1.1703  1.2422 -1.1363
   52DOPE  C213 6643   0.401   5.145   4.034 -0.3958 -0.5105 -1.0098
   52DOPE  H13R 6644   0.455   5.233   4.077 -0.5486 -0.7032 -0.4097
   52DOPE  H13S 6645   0.474   5.074   3.990  0.4992 -1.0335  1.1501
   52DOPE  C214 6646   0.332   5.072   4.156 -0.2226  0.1181 -0.4186
   52DOPE  H14R 6647   0.300   4.971   4.121  0.7215 -0.0663 -0.7791
   52DOPE  H14S 6648   0.248   5.136   4.190  0.0646  0.1245  0.2960
   52DOPE  C215 6649   0.421   5.046   4.277  0.2342 -0.1744  0.1160
   52DOPE  H15R 6650   0.530   5.051   4.255  0.4651  1.2883  1.4115
   52DOPE  H15S 6651   0.396   4.948   4.323  2.8402 -0.0615  2.0188
   52DOPE  C216 6652   0.417   5.151   4.384 -0.5413  0.3286 -0.1331
   52DOPE  H16R 6653   0.364   5.240   4.342  1.5466  1.1878 -1.0969
   52DOPE  H16S 6654   0.512   5.189   4.427  0.4076 -3.1778  1.2189
   52DOPE  C217 6655   0.328   5.116   4.503  0.2844 -0.1879  0.1560
   52DOPE  H17R 6656   0.392   5.063   4.578  1.2117  0.3880 -0.2101
   52DOPE  H17S 6657   0.241   5.053   4.476  1.4405 -1.5481 -0.5386
   52DOPE  C218 6658   0.287   5.244   4.585  0.6722 -0.1051 -0.8529
   52DOPE  H18R 6659   0.192   5.289   4.549 -1.7075 -0.1064  4.5295
   52DOPE  H18S 6660   0.259   5.208   4.686 -0.0749  0.6577 -0.7719
   52DOPE  H18T 6661   0.372   5.314   4.590  1.7132 -1.4118  0.7000
   52DOPE   C33 6662   0.561   4.257   3.850  0.0751  0.3413 -0.3782
   52DOPE   H3X 6663   0.552   4.366   3.833 -2.0939  0.2556 -0.1594
   52DOPE   H3Y 6664   0.664   4.231   3.881 -0.3750 -0.8213  0.2096
   52DOPE   C34 6665   0.456   4.217   3.962 -0.2900  0.3285  0.6905
   52DOPE   H4X 6666   0.353   4.215   3.920  1.2467  0.3845 -3.5380
   52DOPE   H4Y 6667   0.485   4.113   3.987 -1.9358 -0.3499 -0.0777
   52DOPE   C35 6668   0.471   4.312   4.084 -0.6333  0.5870  0.0680
   52DOPE   H5X 6669   0.458   4.420   4.060 -2.5026  1.3828  3.8727
   52DOPE   H5Y 6670   0.580   4.302   4.103 -0.6435 -1.0380 -0.5926
   52DOPE   C36 6671   0.375   4.270   4.198  0.2740  0.2197  0.7950
   52DOPE   H6X 6672   0.390   4.163   4.221 -1.2796 -0.6558 -1.8652
   52DOPE   H6Y 6673   0.270   4.275   4.163  1.0610 -2.6992 -2.4088
   52DOPE   C37 6674   0.377   4.364   4.315 -0.2060  0.0080  0.0112
   52DOPE   H7X 6675   0.478   4.373   4.360 -0.4701  0.6741  0.4777
   52DOPE   H7Y 6676   0.342   4.465   4.285  0.6807  0.7248  1.3158
   52DOPE   C38 6677   0.283   4.335   4.423 -0.0012 -0.3512  0.4881
   52DOPE   H8X 6678   0.319   4.236   4.457 -0.1307 -0.7792 -0.6096
   52DOPE   H8Y 6679   0.175   4.319   4.402 -1.0317  2.2103  3.0249
   52DOPE   C39 6680   0.284   4.422   4.544  0.5598 -0.5854  0.5714
   52DOPE   H9X 6681   0.378   4.476   4.569 -0.8607  2.1861  0.3658
   52DOPE  C310 6682   0.178   4.446   4.629 -0.3236  0.1100 -0.1054
   52DOPE  H10X 6683   0.207   4.507   4.716 -0.2854 -0.1581  0.0694
   52DOPE  C311 6684   0.034   4.405   4.618  0.4886  0.2405 -0.0977
   52DOPE  H11X 6685  -0.022   4.468   4.546  1.1660  1.2323  0.2227
   52DOPE  H11Y 6686   0.033   4.308   4.563  1.0074 -0.0612  0.4072
   52DOPE  C312 6687  -0.050   4.387   4.749 -0.1134 -0.0510  0.2903
   52DOPE  H12X 6688  -0.148   4.352   4.711 -0.8948  0.3485  1.8382
   52DOPE  H12Y 6689  -0.057   4.489   4.793  0.3444 -0.2460  0.8204
   52DOPE  C313 6690   0.001   4.279   4.843 -0.7685  0.4248 -0.1265
   52DOPE  H13X 6691   0.043   4.189   4.792  0.4743  0.1597  1.2867
   52DOPE  H13Y 6692   0.093   4.326   4.885 -1.4325  2.2027 -0.6019
   52DOPE  C314 6693  -0.099   4.238   4.949  0.1852 -0.1669 -0.0415
   52DOPE  H14X 6694  -0.171   4.172   4.897  0.5250 -1.5510  1.1960
   52DOPE  H14Y 6695  -0.147   4.330   4.989 -1.2677 -1.2863  0.8988
   52DOPE  C315 6696  -0.034   4.159   5.061  0.6754  0.6241  0.2448
   52DOPE  H15X 6697   0.036   4.228   5.113  0.9175 -0.0955  0.8986
   52DOPE  H15Y 6698   0.022   4.080   5.007  2.5327  1.4540  0.8807
   52DOPE  C316 6699  -0.138   4.087   5.153  0.4949  0.4264 -1.1221
   52DOPE  H16X 6700  -0.088   4.019   5.225  0.1266  2.3508  1.1161
   52DOPE  H16Y 6701  -0.208   4.027   5.092 -1.8555  0.2036  1.5807
   52DOPE  C317 6702  -0.214   4.183   5.241  0.6137 -0.3225 -0.1278
   52DOPE  H17X 6703  -0.137   4.226   5.309  1.3319  1.4388 -1.9610
   52DOPE  H17Y 6704  -0.264   4.262   5.180  0.5771  0.0415  0.3623
   52DOPE  C318 6705  -0.327   4.135   5.331 -0.8905  0.5223  0.6156
   52DOPE  H18X 6706  -0.413   4.093   5.275  0.6777 -1.3860 -0.4961
   52DOPE  H18Y 6707  -0.283   4.048   5.384  1.8943  1.5244  0.1167
   52DOPE  H18Z 6708  -0.362   4.224   5.387 -2.2524  1.1495 -1.1173
   53DOPE     N 6709   6.452   6.266   2.336 -0.2748  0.1709 -0.1670
   53DOPE   HN1 6710   6.509   6.345   2.372 -0.0179  0.8964 -2.0620
   53DOPE   HN2 6711   6.500   6.207   2.265 -1.8506  0.6091 -1.6854
   53DOPE   HN3 6712   6.373   6.308   2.283 -0.7915 -1.3829 -0.6933
   53DOPE   C12 6713   6.394   6.175   2.447  0.8636 -0.1191 -0.1134
   53DOPE  H12A 6714   6.480   6.128   2.499  2.1744  1.3218 -0.8834
   53DOPE  H12B 6715   6.330   6.102   2.393  0.8456  0.7091 -1.2519
   53DOPE   C11 6716   6.309   6.248   2.547  0.9061 -0.3752  0.1120
   53DOPE  H11A 6717   6.272   6.177   2.624  3.0953  1.3396  2.9535
   53DOPE  H11B 6718   6.220   6.286   2.492  0.3051 -0.1848  1.1658
   53DOPE     P 6719   6.348   6.506   2.581 -0.3749  0.2638  0.3478
   53DOPE   O13 6720   6.209   6.545   2.614  0.3073  0.2626 -0.1661
   53DOPE   O14 6721   6.386   6.528   2.436  0.0997 -0.8315 -0.9435
   53DOPE   O11 6722   6.448   6.575   2.677 -0.3790 -0.5500 -0.8034
   53DOPE   O12 6723   6.364   6.360   2.622  0.0347  0.0113  0.2114
   53DOPE    C1 6724   6.517   6.496   2.782 -0.0248 -0.2667  0.7277
   53DOPE    HA 6725   6.601   6.554   2.826  0.4325 -1.5156  1.5645
   53DOPE    HB 6726   6.557   6.396   2.755 -0.2663 -1.1217  3.2746
   53DOPE    C2 6727   6.417   6.470   2.894 -0.5729 -0.3357 -0.4843
   53DOPE    HS 6728   6.323   6.434   2.848 -0.9840  1.0970 -0.8168
   53DOPE   O21 6729   6.387   6.590   2.965  0.0031 -0.3299  0.1314
   53DOPE   C21 6730   6.264   6.609   3.010 -0.0715  0.2063 -0.3072
   53DOPE   O22 6731   6.170   6.531   3.000  0.4901  0.1119  0.9642
   53DOPE   C22 6732   6.264   6.732   3.099  0.4388 -0.3614  0.1795
   53DOPE   H2R 6733   6.255   6.824   3.038  0.5986  0.1948  0.9733
   53DOPE   H2S 6734   6.356   6.725   3.161 -1.2636 -0.5157  2.8453
   53DOPE    C3 6735   6.469   6.370   3.007 -0.1656  0.2410 -0.7011
   53DOPE    HX 6736   6.509   6.276   2.963  1.9355  1.0205 -0.5812
   53DOPE    HY 6737   6.384   6.348   3.074  0.7309  0.6404  0.6168
   53DOPE   O31 6738   6.591   6.412   3.079  0.0873 -0.7624 -0.1773
   53DOPE   C31 6739   6.575   6.481   3.194  0.2179 -0.2631 -0.4951
   53DOPE   O32 6740   6.470   6.507   3.244  0.9423  0.1247  0.2955
   53DOPE   C32 6741   6.712   6.520   3.248 -0.3325  0.2921 -0.0064
   53DOPE   H2X 6742   6.759   6.422   3.269 -0.6462  0.0335 -0.4897
   53DOPE   H2Y 6743   6.776   6.567   3.170  0.5638 -0.6072  0.1689
   53DOPE   C23 6744   6.147   6.732   3.197 -0.4931  0.3532  0.2345
   53DOPE   H3R 6745   6.119   6.632   3.237  0.7986  0.5131  1.6285
   53DOPE   H3S 6746   6.061   6.785   3.150  0.9009  1.1025 -1.5959
   53DOPE   C24 6747   6.188   6.800   3.329 -0.5437  0.0154  0.5948
   53DOPE   H4R 6748   6.275   6.743   3.368  0.7386  2.6222  1.8492
   53DOPE   H4S 6749   6.102   6.792   3.399 -0.5680 -1.4665  0.4217
   53DOPE   C25 6750   6.228   6.944   3.312 -0.2189  0.2756  0.3548
   53DOPE   H5R 6751   6.139   6.982   3.258 -0.8682 -1.4973  0.1146
   53DOPE   H5S 6752   6.322   6.952   3.253  0.1830  2.4870  1.2125
   53DOPE   C26 6753   6.239   7.030   3.436  0.0042  0.3222 -0.3285
   53DOPE   H6R 6754   6.142   7.036   3.490 -0.6721 -0.1364 -1.4632
   53DOPE   H6S 6755   6.269   7.132   3.403 -0.0441  0.2501 -0.5972
   53DOPE   C27 6756   6.342   6.987   3.544 -0.6575  0.1193 -0.1129
   53DOPE   H7R 6757   6.443   7.005   3.501 -1.2019  2.9034 -0.3913
   53DOPE   H7S 6758   6.329   6.881   3.576 -3.6679  0.9513  1.7919
   53DOPE   C28 6759   6.338   7.078   3.674  0.7658  0.1415 -0.1348
   53DOPE   H8R 6760   6.355   7.184   3.645 -0.2439  0.4920  0.4882
   53DOPE   H8S 6761   6.415   7.054   3.750 -1.2239  0.3372  2.0698
   53DOPE   C29 6762   6.213   7.055   3.760  0.0593 -0.7594  0.7063
   53DOPE   H9R 6763   6.123   7.069   3.699  0.3535  0.1911  0.4619
   53DOPE  C210 6764   6.199   7.017   3.883 -0.5757 -0.0659  0.7406
   53DOPE  H10R 6765   6.099   7.005   3.927 -0.3946 -1.5100  0.7848
   53DOPE  C211 6766   6.311   6.988   3.975 -0.3238  0.6025 -0.7280
   53DOPE  H11R 6767   6.392   7.063   3.980 -1.7525  2.1250  0.7674
   53DOPE  H11S 6768   6.369   6.902   3.934  0.9833  1.5205 -0.8585
   53DOPE  C212 6769   6.258   6.952   4.110  0.3682 -0.4568 -0.0343
   53DOPE  H12R 6770   6.196   7.035   4.150  0.8080  0.0086 -0.3210
   53DOPE  H12S 6771   6.342   6.935   4.180 -0.8102 -0.6678  1.3821
   53DOPE  C213 6772   6.164   6.829   4.108 -0.2063  0.1234  0.2204
   53DOPE  H13R 6773   6.163   6.791   4.003 -1.0690  1.1266 -0.1407
   53DOPE  H13S 6774   6.068   6.873   4.141 -0.3432  0.2273 -0.3029
   53DOPE  C214 6775   6.209   6.706   4.192 -0.3085 -0.1117 -0.0465
   53DOPE  H14R 6776   6.219   6.748   4.295  0.6479 -0.0665 -0.1467
   53DOPE  H14S 6777   6.312   6.681   4.159 -1.2497 -2.0805 -1.6710
   53DOPE  C215 6778   6.103   6.599   4.201 -0.1161  0.4087 -0.2029
   53DOPE  H15R 6779   6.113   6.534   4.112  2.0908  1.0038 -0.4511
   53DOPE  H15S 6780   6.001   6.644   4.195  0.6772  2.3181 -0.2524
   53DOPE  C216 6781   6.115   6.511   4.331 -0.5381  0.6165  0.2370
   53DOPE  H16R 6782   6.220   6.478   4.347 -0.4941 -0.2861 -1.6601
   53DOPE  H16S 6783   6.064   6.415   4.311  1.7220 -0.3434 -1.1993
   53DOPE  C217 6784   6.061   6.583   4.451 -0.5127  0.7285  0.5597
   53DOPE  H17R 6785   6.122   6.670   4.482 -0.3226  0.4678  0.9213
   53DOPE  H17S 6786   6.061   6.520   4.542 -2.9018  2.3298  1.7774
   53DOPE  C218 6787   5.912   6.618   4.447 -0.1473 -0.2606  1.2034
   53DOPE  H18R 6788   5.894   6.654   4.551  0.9941  2.1801  0.6400
   53DOPE  H18S 6789   5.836   6.548   4.406 -1.3407  2.2765 -1.3126
   53DOPE  H18T 6790   5.896   6.708   4.383  0.2614 -1.8529 -1.2903
   53DOPE   C33 6791   6.708   6.605   3.381 -0.0976 -0.2401  0.2483
   53DOPE   H3X 6792   6.792   6.590   3.452  0.1209  1.0898  0.3041
   53DOPE   H3Y 6793   6.611   6.607   3.434 -0.8858  1.4572 -1.1467
   53DOPE   C34 6794   6.723   6.757   3.348  0.1465  0.5496 -0.1084
   53DOPE   H4X 6795   6.808   6.776   3.279  0.2271 -0.4950 -0.3086
   53DOPE   H4Y 6796   6.632   6.783   3.291  0.7362  0.2776 -1.1934
   53DOPE   C35 6797   6.743   6.856   3.471  0.1651 -0.3071 -0.5369
   53DOPE   H5X 6798   6.838   6.830   3.522  0.7644  0.5512 -1.1730
   53DOPE   H5Y 6799   6.651   6.850   3.533  0.9353 -0.4660  0.6329
   53DOPE   C36 6800   6.757   7.002   3.430  0.7920 -0.3948  0.1581
   53DOPE   H6X 6801   6.666   7.027   3.371  1.2738  0.6170 -0.1693
   53DOPE   H6Y 6802   6.841   7.016   3.359  0.1629  0.2525 -0.4732
   53DOPE   C37 6803   6.770   7.111   3.541  0.1488 -0.2820 -0.2676
   53DOPE   H7X 6804   6.696   7.100   3.623  2.5565  0.7533  2.2138
   53DOPE   H7Y 6805   6.870   7.102   3.588 -1.1961 -0.1154  2.8265
   53DOPE   C38 6806   6.740   7.254   3.486  0.3375 -1.2762 -0.1753
   53DOPE   H8X 6807   6.700   7.309   3.574  2.2148 -1.1321  0.6306
   53DOPE   H8Y 6808   6.663   7.254   3.405 -2.0521  1.7255  1.8844
   53DOPE   C39 6809   6.861   7.326   3.429  0.1321 -0.1703 -0.5671
   53DOPE   H9X 6810   6.854   7.343   3.321  1.8706 -2.4776 -1.1123
   53DOPE  C310 6811   6.977   7.349   3.491 -0.4356 -0.5005 -0.4656
   53DOPE  H10X 6812   7.060   7.376   3.423 -0.0651 -1.6734 -0.4889
   53DOPE  C311 6813   7.025   7.320   3.631 -0.1506 -0.5598  0.0597
   53DOPE  H11X 6814   6.937   7.332   3.698  1.0909 -1.0406  1.8430
   53DOPE  H11Y 6815   7.069   7.218   3.642 -2.1522 -1.3663  1.1484
   53DOPE  C312 6816   7.134   7.416   3.671  1.0726 -0.2384 -0.4691
   53DOPE  H12X 6817   7.089   7.517   3.680  1.9525  0.1743 -0.6452
   53DOPE  H12Y 6818   7.213   7.432   3.595  0.9266  1.1204 -0.3491
   53DOPE  C313 6819   7.205   7.388   3.811 -0.4427  0.5229  0.2853
   53DOPE  H13X 6820   7.267   7.296   3.818  0.3177  0.7153 -2.5112
   53DOPE  H13Y 6821   7.285   7.465   3.809  1.9491 -1.8148 -1.3773
   53DOPE  C314 6822   7.116   7.402   3.933 -0.4091 -0.8612 -0.9026
   53DOPE  H14X 6823   7.025   7.338   3.929 -1.7701  0.3356  4.0325
   53DOPE  H14Y 6824   7.084   7.505   3.959  2.3043 -0.5210  1.6735
   53DOPE  C315 6825   7.188   7.359   4.063 -0.4613  0.1303  0.1521
   53DOPE  H15X 6826   7.247   7.450   4.088 -1.5016  0.6410  0.8669
   53DOPE  H15Y 6827   7.262   7.278   4.047 -0.1433  0.5319 -0.4586
   53DOPE  C316 6828   7.088   7.330   4.169 -0.0974 -0.0432 -0.4533
   53DOPE  H16X 6829   7.040   7.231   4.156 -0.3103 -0.0505  0.3317
   53DOPE  H16Y 6830   6.998   7.395   4.157 -1.1311 -1.3581 -0.0706
   53DOPE  C317 6831   7.153   7.340   4.308  0.1249 -0.4202  0.1479
   53DOPE  H17X 6832   7.250   7.286   4.317  0.4022  0.0446 -0.0021
   53DOPE  H17Y 6833   7.182   7.446   4.323  0.0811 -0.0818 -1.8814
   53DOPE  C318 6834   7.056   7.294   4.413  0.0055  0.0881 -0.0573
   53DOPE  H18X 6835   6.972   7.366   4.420  0.4169  0.4903  1.0633
   53DOPE  H18Y 6836   7.015   7.191   4.397 -1.1009  0.2805  1.3150
   53DOPE  H18Z 6837   7.113   7.298   4.509 -3.5380  1.8449  2.2003
   54DOPE     N 6838   2.140   2.886   2.948 -0.6350  0.2774 -0.8901
   54DOPE   HN1 6839   2.191   2.935   3.024 -0.1151 -0.3191 -0.8534
   54DOPE   HN2 6840   2.193   2.861   2.862 -0.4525  0.0449 -0.7124
   54DOPE   HN3 6841   2.073   2.956   2.910 -0.7243  0.0090 -1.2220
   54DOPE   C12 6842   2.070   2.761   2.998  0.4347 -0.2157  0.1397
   54DOPE  H12A 6843   2.050   2.778   3.106 -0.4303 -2.3537  0.3615
   54DOPE  H12B 6844   2.140   2.675   2.995 -0.3656 -0.8312 -1.1178
   54DOPE   C11 6845   1.936   2.739   2.930  0.1687  0.1184  0.9011
   54DOPE  H11A 6846   1.899   2.645   2.977  0.8847 -0.4608  0.3366
   54DOPE  H11B 6847   1.944   2.715   2.822 -2.1664  3.0155 -0.0432
   54DOPE     P 6848   1.725   2.868   3.030  0.0654 -0.0525 -0.3345
   54DOPE   O13 6849   1.635   2.756   2.988 -0.0840  0.3352  0.3662
   54DOPE   O14 6850   1.669   3.001   3.000 -0.1257 -0.4014 -0.3882
   54DOPE   O11 6851   1.768   2.854   3.176  0.3069  0.2816  0.3859
   54DOPE   O12 6852   1.858   2.860   2.944  0.1930  0.1496  0.2341
   54DOPE    C1 6853   1.856   2.946   3.246 -0.5011  0.5188  0.3070
   54DOPE    HA 6854   1.893   3.023   3.174 -0.0099  0.4849  0.5194
   54DOPE    HB 6855   1.945   2.888   3.278 -1.1106 -2.0328 -2.2402
   54DOPE    C2 6856   1.793   3.010   3.368  0.3458 -0.7003 -0.5983
   54DOPE    HS 6857   1.861   3.080   3.420  1.7081 -0.5359 -2.5167
   54DOPE   O21 6858   1.752   2.908   3.463  0.4979 -0.2552  0.6323
   54DOPE   C21 6859   1.853   2.856   3.528  0.7425 -0.2003 -0.5929
   54DOPE   O22 6860   1.967   2.894   3.528  0.3737  0.5189 -0.0153
   54DOPE   C22 6861   1.808   2.731   3.599 -0.4424  0.4721 -0.0745
   54DOPE   H2R 6862   1.859   2.653   3.538  0.4701  1.3329 -0.4504
   54DOPE   H2S 6863   1.700   2.716   3.581 -0.4335 -0.1586  0.3372
   54DOPE    C3 6864   1.672   3.086   3.316  1.0733 -0.3802 -0.2883
   54DOPE    HX 6865   1.589   3.016   3.295 -0.8997  2.1393 -1.5439
   54DOPE    HY 6866   1.697   3.129   3.217 -0.3675  0.1657 -0.4441
   54DOPE   O31 6867   1.638   3.192   3.405  0.0720 -0.7401 -0.2764
   54DOPE   C31 6868   1.518   3.238   3.383  0.4227 -0.9115 -0.1334
   54DOPE   O32 6869   1.438   3.202   3.298 -0.5650 -0.1093 -0.5529
   54DOPE   C32 6870   1.488   3.357   3.483 -0.2481  0.1539  0.3450
   54DOPE   H2X 6871   1.483   3.446   3.417  0.0307  0.5633  0.8706
   54DOPE   H2Y 6872   1.382   3.350   3.515 -1.1511  1.5282 -2.0489
   54DOPE   C23 6873   1.856   2.718   3.742  0.2035  0.0541 -0.4121
   54DOPE   H3R 6874   1.967   2.724   3.740  0.2172  1.6503  1.7616
   54DOPE   H3S 6875   1.828   2.621   3.789  0.1640  0.0652 -0.4129
   54DOPE   C24 6876   1.806   2.831   3.842 -0.1263  0.0771  0.2984
   54DOPE   H4R 6877   1.706   2.803   3.881  1.2053 -2.1536  2.4164
   54DOPE   H4S 6878   1.801   2.928   3.788  2.1059  0.0888  0.0219
   54DOPE   C25 6879   1.905   2.852   3.959  0.1263  0.3578 -0.0185
   54DOPE   H5R 6880   1.884   2.957   3.990 -1.6049  1.0279 -3.0166
   54DOPE   H5S 6881   2.010   2.847   3.925  0.2149  0.7774  0.1811
   54DOPE   C26 6882   1.877   2.767   4.086 -0.0654 -0.2440 -0.4115
   54DOPE   H6R 6883   1.886   2.659   4.061 -0.4166 -0.4401  0.2980
   54DOPE   H6S 6884   1.773   2.794   4.114  0.0761 -0.1979  0.0702
   54DOPE   C27 6885   1.972   2.816   4.194 -0.1481  0.1794 -0.1681
   54DOPE   H7R 6886   1.969   2.927   4.202 -1.3211  0.1224  0.4157
   54DOPE   H7S 6887   2.069   2.774   4.159 -0.8631 -2.8062  1.0840
   54DOPE   C28 6888   1.947   2.763   4.336  0.3667  0.2479 -0.1265
   54DOPE   H8R 6889   1.840   2.780   4.362 -0.1105 -0.9634 -1.1976
   54DOPE   H8S 6890   2.012   2.828   4.398  1.0186  1.1476 -1.7016
   54DOPE   C29 6891   1.984   2.614   4.329  0.2556  0.0753  0.0049
   54DOPE   H9R 6892   1.962   2.563   4.234  0.1268  1.5655 -0.7924
   54DOPE  C210 6893   2.027   2.528   4.433  0.0977 -0.4422  0.2267
   54DOPE  H10R 6894   2.072   2.429   4.416  3.3109  0.4885  2.3292
   54DOPE  C211 6895   2.056   2.588   4.572 -0.1259  0.3815 -0.1610
   54DOPE  H11R 6896   2.014   2.523   4.651  1.0246 -1.6889 -1.1814
   54DOPE  H11S 6897   2.002   2.685   4.583 -0.5021 -0.0711  2.5281
   54DOPE  C212 6898   2.210   2.596   4.593  0.4245  0.3112 -0.2649
   54DOPE  H12R 6899   2.262   2.663   4.522  2.3244  1.6929  2.2466
   54DOPE  H12S 6900   2.253   2.493   4.593  1.5838  0.7664  1.0074
   54DOPE  C213 6901   2.248   2.660   4.734  0.8626 -0.1353 -0.3515
   54DOPE  H13R 6902   2.173   2.616   4.804 -1.4091 -0.1735 -2.6787
   54DOPE  H13S 6903   2.209   2.764   4.725  2.6740  0.7111  0.9908
   54DOPE  C214 6904   2.395   2.656   4.768 -0.2505  0.2107 -0.2771
   54DOPE  H14R 6905   2.462   2.709   4.697  1.2152 -0.3216  0.6607
   54DOPE  H14S 6906   2.422   2.548   4.760  0.9448  0.5762 -1.7591
   54DOPE  C215 6907   2.448   2.698   4.905 -0.7608  0.3111  0.3339
   54DOPE  H15R 6908   2.555   2.667   4.911 -1.0447 -0.5526  1.2467
   54DOPE  H15S 6909   2.389   2.644   4.983 -1.5325  1.8987  0.8804
   54DOPE  C216 6910   2.433   2.843   4.932 -0.3906  0.3822 -0.6145
   54DOPE  H16R 6911   2.336   2.880   4.893 -2.3156 -0.8129  2.6938
   54DOPE  H16S 6912   2.521   2.884   4.877  0.9318 -1.4226  0.0601
   54DOPE  C217 6913   2.432   2.883   5.083 -0.5364  0.0792 -0.5688
   54DOPE  H17R 6914   2.536   2.884   5.120 -0.9796 -0.9472  0.7989
   54DOPE  H17S 6915   2.377   2.810   5.146  1.9500 -0.9487  0.5582
   54DOPE  C218 6916   2.382   3.020   5.131 -0.3043 -0.0190  0.5883
   54DOPE  H18R 6917   2.425   3.105   5.073  0.0667 -1.3160 -1.1008
   54DOPE  H18S 6918   2.404   3.032   5.240  1.2900 -2.5383  0.6170
   54DOPE  H18T 6919   2.272   3.021   5.118 -0.3782 -2.6184  0.5733
   54DOPE   C33 6920   1.603   3.396   3.582  0.3145  0.7094  0.7477
   54DOPE   H3X 6921   1.698   3.414   3.527 -0.2884 -0.8981 -0.9236
   54DOPE   H3Y 6922   1.614   3.322   3.663  0.7880  0.9843  0.9425
   54DOPE   C34 6923   1.543   3.519   3.650 -0.5559  0.5581 -0.6324
   54DOPE   H4X 6924   1.525   3.601   3.578  1.8420  0.7683 -1.0861
   54DOPE   H4Y 6925   1.441   3.507   3.692 -2.0335  2.8688 -3.2544
   54DOPE   C35 6926   1.649   3.584   3.748  0.1483  0.4546 -0.6169
   54DOPE   H5X 6927   1.626   3.683   3.792 -0.5729  0.4071 -0.8739
   54DOPE   H5Y 6928   1.739   3.599   3.685  1.1052  0.5455  0.7181
   54DOPE   C36 6929   1.693   3.487   3.868  0.5139  0.1284  0.0731
   54DOPE   H6X 6930   1.762   3.406   3.837  0.4585  0.0574  0.1336
   54DOPE   H6Y 6931   1.613   3.432   3.923  1.0168 -0.8414 -0.1357
   54DOPE   C37 6932   1.772   3.568   3.971  0.2659  0.0448 -0.2308
   54DOPE   H7X 6933   1.863   3.510   3.996 -0.8048 -1.6414 -0.0895
   54DOPE   H7Y 6934   1.802   3.666   3.927  0.8078  0.9114  1.9609
   54DOPE   C38 6935   1.688   3.600   4.100  0.1361  0.1985  0.4572
   54DOPE   H8X 6936   1.639   3.506   4.134  1.1555 -0.7578 -0.6420
   54DOPE   H8Y 6937   1.611   3.668   4.058 -0.9677 -0.4691  1.3545
   54DOPE   C39 6938   1.752   3.668   4.216  0.4436  0.3256  0.2247
   54DOPE   H9X 6939   1.861   3.681   4.205  0.6974 -2.7430 -2.2357
   54DOPE  C310 6940   1.688   3.712   4.327 -0.5512 -0.3905  0.3019
   54DOPE  H10X 6941   1.750   3.737   4.415  1.6682 -0.3022 -1.2070
   54DOPE  C311 6942   1.541   3.699   4.356  0.1291  0.5220 -0.6186
   54DOPE  H11X 6943   1.486   3.794   4.338 -1.1540 -0.1491 -0.3064
   54DOPE  H11Y 6944   1.496   3.618   4.295 -1.4734  0.8323  0.1227
   54DOPE  C312 6945   1.511   3.648   4.502  0.1776  0.5141  0.0114
   54DOPE  H12X 6946   1.580   3.563   4.520 -1.0942 -1.0073 -1.8361
   54DOPE  H12Y 6947   1.404   3.619   4.514 -0.1239  2.0784  1.5693
   54DOPE  C313 6948   1.535   3.753   4.606 -0.0943 -0.7967 -0.3826
   54DOPE  H13X 6949   1.524   3.692   4.698 -3.8235 -2.3326 -1.6446
   54DOPE  H13Y 6950   1.636   3.799   4.609 -0.7819  0.8312 -1.0523
   54DOPE  C314 6951   1.427   3.864   4.609 -0.2703 -0.6761 -0.9688
   54DOPE  H14X 6952   1.325   3.821   4.619  0.3548 -1.9399  0.3796
   54DOPE  H14Y 6953   1.435   3.909   4.508  1.9659 -1.6636 -1.2803
   54DOPE  C315 6954   1.460   3.948   4.730  0.2737  0.2786 -0.0772
   54DOPE  H15X 6955   1.489   3.878   4.812 -0.8970  0.4154  0.4695
   54DOPE  H15Y 6956   1.369   4.002   4.765 -0.7739 -2.4930  1.8571
   54DOPE  C316 6957   1.581   4.047   4.719 -0.8392 -0.3208  0.5486
   54DOPE  H16X 6958   1.547   4.115   4.639 -1.6594 -3.4769 -1.9894
   54DOPE  H16Y 6959   1.677   4.003   4.685 -0.5120  0.5885  0.2820
   54DOPE  C317 6960   1.601   4.127   4.845  0.0957  0.0786 -0.4227
   54DOPE  H17X 6961   1.672   4.210   4.826  0.1207  0.3602  0.8436
   54DOPE  H17Y 6962   1.497   4.165   4.853 -0.2954 -0.6576 -1.6700
   54DOPE  C318 6963   1.662   4.050   4.963  0.1899  0.5525  0.7140
   54DOPE  H18X 6964   1.773   4.054   4.960  0.1437  2.2102  0.1870
   54DOPE  H18Y 6965   1.628   4.094   5.059  2.0700 -1.6516  2.5129
   54DOPE  H18Z 6966   1.634   3.943   4.970 -0.6444  0.7297  0.2080
   55DOPE     N 6967   0.913   4.636   2.970  0.1589  0.2960  0.1548
   55DOPE   HN1 6968   0.963   4.677   2.889 -2.6891  1.1921 -1.2594
   55DOPE   HN2 6969   0.966   4.563   3.023 -0.8724 -0.9391 -0.4564
   55DOPE   HN3 6970   0.835   4.588   2.921  0.6961  1.6126 -2.1263
   55DOPE   C12 6971   0.878   4.749   3.061  0.0402  0.3800  0.0123
   55DOPE  H12A 6972   0.768   4.749   3.076  0.2470 -0.8047  1.8327
   55DOPE  H12B 6973   0.899   4.846   3.010  1.6846 -1.2169 -2.6015
   55DOPE   C11 6974   0.947   4.746   3.199  0.3809 -0.4973 -0.1164
   55DOPE  H11A 6975   0.923   4.649   3.249  3.5167 -0.6785  1.2098
   55DOPE  H11B 6976   0.896   4.819   3.265  0.5968 -1.0028  0.6189
   55DOPE     P 6977   1.142   4.910   3.215  0.4189  0.1847 -0.4094
   55DOPE   O13 6978   1.034   5.010   3.206  0.1718 -0.1126  0.6856
   55DOPE   O14 6979   1.265   4.931   3.130 -0.0874 -0.0608 -0.3181
   55DOPE   O11 6980   1.188   4.913   3.364 -0.1411  0.2181 -0.3749
   55DOPE   O12 6981   1.085   4.768   3.184 -0.0793 -0.0792  1.0463
   55DOPE    C1 6982   1.183   4.795   3.455  0.3547  0.2300 -0.2191
   55DOPE    HA 6983   1.283   4.747   3.452 -0.2212 -1.4151  2.6953
   55DOPE    HB 6984   1.103   4.722   3.428 -0.9123  0.5305  2.3688
   55DOPE    C2 6985   1.180   4.828   3.611  0.1682  0.4250 -0.2557
   55DOPE    HS 6986   1.107   4.753   3.650 -1.0624 -0.9432 -4.5673
   55DOPE   O21 6987   1.125   4.958   3.640  0.2715  0.2697 -0.6759
   55DOPE   C21 6988   0.996   4.977   3.606  0.6171  0.1336 -0.2262
   55DOPE   O22 6989   0.915   4.890   3.578 -0.2409  0.6749 -0.4505
   55DOPE   C22 6990   0.967   5.122   3.591  0.4822 -0.2631  0.2330
   55DOPE   H2R 6991   1.012   5.153   3.495  2.8874 -0.9072  1.0979
   55DOPE   H2S 6992   1.008   5.179   3.677 -2.5280  0.9630  0.9857
   55DOPE    C3 6993   1.314   4.792   3.675 -0.7714  0.1110 -0.0227
   55DOPE    HX 6994   1.390   4.851   3.620 -3.3914  2.1186 -1.7386
   55DOPE    HY 6995   1.341   4.684   3.668 -0.8970 -0.1628  2.5665
   55DOPE   O31 6996   1.309   4.818   3.821  0.5938 -0.1197 -0.4787
   55DOPE   C31 6997   1.362   4.934   3.868  0.0150  0.1463  0.5496
   55DOPE   O32 6998   1.423   5.009   3.798  0.5930 -1.0924 -0.3105
   55DOPE   C32 6999   1.356   4.936   4.021  0.3943  0.5618 -0.5536
   55DOPE   H2X 7000   1.250   4.958   4.047  0.6480  1.1024  0.0423
   55DOPE   H2Y 7001   1.383   4.833   4.054 -0.9266  0.9103  1.7653
   55DOPE   C23 7002   0.813   5.146   3.577 -0.0581  0.3637 -0.0717
   55DOPE   H3R 7003   0.782   5.071   3.500  0.1858  2.0268 -1.8738
   55DOPE   H3S 7004   0.791   5.236   3.516 -0.5393  0.3641  0.0991
   55DOPE   C24 7005   0.749   5.147   3.715  0.5982 -0.5317 -0.6315
   55DOPE   H4R 7006   0.791   5.054   3.760  2.7600  0.1460 -1.1628
   55DOPE   H4S 7007   0.640   5.134   3.700  0.7688 -1.9423 -0.8153
   55DOPE   C25 7008   0.783   5.267   3.810  0.6539 -0.1711  0.2951
   55DOPE   H5R 7009   0.698   5.338   3.798  0.2973 -0.5848  0.3094
   55DOPE   H5S 7010   0.877   5.322   3.793 -1.0115  2.4989 -0.9147
   55DOPE   C26 7011   0.794   5.224   3.959 -0.0068 -0.1975 -0.2031
   55DOPE   H6R 7012   0.695   5.177   3.978 -2.3731  3.3483 -2.4547
   55DOPE   H6S 7013   0.780   5.318   4.017  0.3678 -0.4168  0.2506
   55DOPE   C27 7014   0.914   5.141   4.005  0.1424 -0.3453  0.2759
   55DOPE   H7R 7015   1.002   5.206   3.984  0.5694 -1.2692 -0.9139
   55DOPE   H7S 7016   0.916   5.051   3.940 -1.0023  0.4247 -0.9057
   55DOPE   C28 7017   0.899   5.095   4.152  0.1843  0.2531  0.5213
   55DOPE   H8R 7018   0.976   5.016   4.164 -1.1605 -1.4062 -1.1753
   55DOPE   H8S 7019   0.804   5.043   4.176 -0.0589  1.3657  2.1565
   55DOPE   C29 7020   0.915   5.197   4.259  0.1395  0.5553 -0.0117
   55DOPE   H9R 7021   0.820   5.244   4.290  0.7651  1.2510  0.8655
   55DOPE  C210 7022   1.026   5.231   4.329  0.0332  0.2253 -0.0559
   55DOPE  H10R 7023   1.015   5.275   4.430  0.0380 -1.7937  0.8824
   55DOPE  C211 7024   1.170   5.179   4.310 -0.2839  0.4232  0.4130
   55DOPE  H11R 7025   1.251   5.252   4.285 -0.6091  1.0421  1.1417
   55DOPE  H11S 7026   1.170   5.108   4.225 -1.7015  0.5113  0.3205
   55DOPE  C212 7027   1.220   5.086   4.419  0.0116  0.8138  0.5100
   55DOPE  H12R 7028   1.316   5.042   4.385 -0.2757  1.0105 -0.5806
   55DOPE  H12S 7029   1.135   5.014   4.431  0.4773  0.2417  0.4008
   55DOPE  C213 7030   1.241   5.155   4.558  0.2810 -0.3097  0.1702
   55DOPE  H13R 7031   1.292   5.091   4.633  0.9207  1.7661  1.6162
   55DOPE  H13S 7032   1.151   5.186   4.616  0.8229  1.2613  0.2136
   55DOPE  C214 7033   1.329   5.284   4.552  0.3584  0.1015 -0.1086
   55DOPE  H14R 7034   1.300   5.341   4.461 -0.6183  0.1895  0.2409
   55DOPE  H14S 7035   1.437   5.270   4.531  0.2212  0.9860 -1.5663
   55DOPE  C215 7036   1.327   5.370   4.681 -0.3396 -0.6760 -0.2132
   55DOPE  H15R 7037   1.224   5.404   4.706  0.7737  3.1383 -0.1769
   55DOPE  H15S 7038   1.373   5.470   4.663 -0.1233 -0.4819  1.2945
   55DOPE  C216 7039   1.390   5.303   4.803 -0.3189 -0.1198 -0.0050
   55DOPE  H16R 7040   1.494   5.285   4.766 -0.3530  0.5980 -0.4624
   55DOPE  H16S 7041   1.354   5.204   4.838  0.3297 -0.1823  0.4983
   55DOPE  C217 7042   1.413   5.404   4.917  0.5128 -0.7151 -0.2408
   55DOPE  H17R 7043   1.330   5.478   4.919  1.7529  0.6904  1.8921
   55DOPE  H17S 7044   1.503   5.458   4.881  1.2901 -1.8836 -0.0838
   55DOPE  C218 7045   1.432   5.348   5.055 -0.1112  0.3592  0.1443
   55DOPE  H18R 7046   1.461   5.430   5.125 -0.7260  0.3206  0.4507
   55DOPE  H18S 7047   1.511   5.270   5.051 -2.7260 -2.7680  2.7121
   55DOPE  H18T 7048   1.336   5.301   5.088 -0.0016  0.6177  0.8613
   55DOPE   C33 7049   1.443   5.041   4.082 -0.0483  0.2237 -0.6528
   55DOPE   H3X 7050   1.419   5.062   4.189  0.1356 -2.2789 -0.0488
   55DOPE   H3Y 7051   1.441   5.136   4.025 -1.3885  0.9410  0.4961
   55DOPE   C34 7052   1.585   4.986   4.088 -0.3551  0.0497 -1.0257
   55DOPE   H4X 7053   1.588   4.880   4.122  0.4553  0.3780 -0.0383
   55DOPE   H4Y 7054   1.642   4.991   3.993  0.8775 -1.4062 -0.4103
   55DOPE   C35 7055   1.681   5.068   4.181  0.7416 -0.0969 -0.3822
   55DOPE   H5X 7056   1.654   5.175   4.184  3.1167  0.5556  0.1495
   55DOPE   H5Y 7057   1.789   5.062   4.156  0.8559  0.9426 -0.1644
   55DOPE   C36 7058   1.666   5.020   4.325 -0.2998  0.6419  0.2496
   55DOPE   H6X 7059   1.687   4.911   4.337  0.1747  0.9600  2.8960
   55DOPE   H6Y 7060   1.561   5.038   4.357 -0.8283 -1.7981  0.0945
   55DOPE   C37 7061   1.774   5.074   4.421 -0.0658  0.5326 -0.1274
   55DOPE   H7X 7062   1.868   5.066   4.362 -1.4267  0.1781 -2.3777
   55DOPE   H7Y 7063   1.746   5.181   4.432 -1.1270  0.0635  2.3393
   55DOPE   C38 7064   1.776   4.989   4.549  0.0680  0.2326 -0.1741
   55DOPE   H8X 7065   1.794   4.884   4.517 -1.9266 -0.4749  0.8649
   55DOPE   H8Y 7066   1.684   4.991   4.611 -1.8758  0.9326 -2.9358
   55DOPE   C39 7067   1.894   5.037   4.629 -0.6066  0.0596  0.2898
   55DOPE   H9X 7068   1.992   4.994   4.602 -1.1360 -2.2244  1.7375
   55DOPE  C310 7069   1.915   5.139   4.713 -0.2706 -0.2703  0.1000
   55DOPE  H10X 7070   2.001   5.129   4.781  1.2917 -1.1774 -1.9132
   55DOPE  C311 7071   1.813   5.245   4.748  0.8839 -0.3132 -0.0593
   55DOPE  H11X 7072   1.848   5.342   4.708 -1.3831  1.0511  1.0320
   55DOPE  H11Y 7073   1.713   5.230   4.702  0.3991  0.3411  0.7373
   55DOPE  C312 7074   1.780   5.276   4.896  0.1964  0.3724  0.1168
   55DOPE  H12X 7075   1.730   5.184   4.934  0.1489  0.2999 -0.1154
   55DOPE  H12Y 7076   1.705   5.358   4.903  0.2815  0.4272  0.3696
   55DOPE  C313 7077   1.900   5.317   4.984 -0.2202 -0.2535  0.4246
   55DOPE  H13X 7078   1.971   5.231   4.983  0.9597  0.6945 -0.5203
   55DOPE  H13Y 7079   1.956   5.407   4.950  0.6633 -0.2833  1.7117
   55DOPE  C314 7080   1.850   5.342   5.131  0.5633 -0.3233  0.6734
   55DOPE  H14X 7081   1.787   5.434   5.135 -2.3443 -2.2116  0.7396
   55DOPE  H14Y 7082   1.942   5.350   5.192 -0.5546 -2.2802  2.7409
   55DOPE  C315 7083   1.772   5.229   5.194 -0.1367  0.3879 -0.8175
   55DOPE  H15X 7084   1.833   5.137   5.180 -0.6477 -0.2346  0.8876
   55DOPE  H15Y 7085   1.674   5.213   5.143 -1.4764  0.9481  1.4411
   55DOPE  C316 7086   1.746   5.240   5.343 -0.1019  0.5366  0.2806
   55DOPE  H16X 7087   1.691   5.334   5.364 -0.1659  0.6686 -0.4434
   55DOPE  H16Y 7088   1.840   5.234   5.401 -0.5333 -3.4801  0.9189
   55DOPE  C317 7089   1.674   5.112   5.410 -0.2544 -0.4191 -0.3978
   55DOPE  H17X 7090   1.596   5.093   5.333  0.6736  1.2750 -1.8285
   55DOPE  H17Y 7091   1.751   5.033   5.423 -1.2732 -1.4640 -0.5388
   55DOPE  C318 7092   1.618   5.159   5.544 -0.9163  0.3778 -0.2466
   55DOPE  H18X 7093   1.553   5.250   5.547  1.0825  1.8821  3.1362
   55DOPE  H18Y 7094   1.558   5.080   5.595 -1.4466 -0.3790 -1.9599
   55DOPE  H18Z 7095   1.706   5.183   5.607  0.7208 -2.1586 -1.4106
   56DOPE     N 7096   1.635   5.400   3.342 -1.5018  0.2528  0.4873
   56DOPE   HN1 7097   1.569   5.350   3.278  1.1340  0.0522 -2.2903
   56DOPE   HN2 7098   1.586   5.417   3.432 -0.7379 -0.8792  1.1279
   56DOPE   HN3 7099   1.670   5.491   3.306  0.2152 -0.6098 -0.1027
   56DOPE   C12 7100   1.759   5.315   3.360  0.0088  0.5990  0.1482
   56DOPE  H12A 7101   1.744   5.226   3.294  2.6167 -0.2912  0.6417
   56DOPE  H12B 7102   1.756   5.284   3.466 -3.0248 -0.4819 -0.1500
   56DOPE   C11 7103   1.887   5.404   3.324  0.2821  0.8726  0.4427
   56DOPE  H11A 7104   1.885   5.437   3.218  0.1631 -0.2959  0.0648
   56DOPE  H11B 7105   1.972   5.333   3.332 -0.9648 -1.1587 -2.5438
   56DOPE     P 7106   2.018   5.607   3.405 -0.1300 -0.5806  0.2982
   56DOPE   O13 7107   1.986   5.742   3.351  0.1496 -0.5970 -0.1945
   56DOPE   O14 7108   2.122   5.533   3.331 -0.4925  0.4447  0.5206
   56DOPE   O11 7109   2.069   5.624   3.550  0.2191 -0.7004  0.4339
   56DOPE   O12 7110   1.889   5.515   3.415  0.4708 -0.2468 -0.0087
   56DOPE    C1 7111   2.024   5.544   3.654  0.4881 -0.1445  0.3157
   56DOPE    HA 7112   2.095   5.545   3.740 -0.4452 -0.4319  1.0976
   56DOPE    HB 7113   2.020   5.441   3.614  0.6929 -1.3142  3.1380
   56DOPE    C2 7114   1.879   5.577   3.710 -0.8007  0.3814 -0.1006
   56DOPE    HS 7115   1.807   5.582   3.625 -1.1343 -1.1235  0.0628
   56DOPE   O21 7116   1.889   5.713   3.767  0.5687  0.0823  0.0940
   56DOPE   C21 7117   1.762   5.751   3.803 -0.0015  0.1196 -0.7634
   56DOPE   O22 7118   1.658   5.695   3.771 -0.0174 -0.0591 -0.3708
   56DOPE   C22 7119   1.767   5.886   3.883  0.4398  0.1198  1.0393
   56DOPE   H2R 7120   1.666   5.929   3.864  1.0164  0.1604 -2.5706
   56DOPE   H2S 7121   1.841   5.954   3.835  1.4330  0.2335  2.6502
   56DOPE    C3 7122   1.836   5.465   3.807  1.0318 -0.1189  0.3238
   56DOPE    HX 7123   1.828   5.376   3.741  1.2560  0.7287 -0.9021
   56DOPE    HY 7124   1.738   5.470   3.859  0.8519  0.5950 -0.0589
   56DOPE   O31 7125   1.942   5.441   3.909 -0.3954 -0.1695  0.1266
   56DOPE   C31 7126   1.918   5.487   4.031  1.2049  0.2641 -0.4650
   56DOPE   O32 7127   1.818   5.554   4.071 -0.6782  0.2157  0.2442
   56DOPE   C32 7128   2.030   5.420   4.115 -0.5321  0.3213 -0.9512
   56DOPE   H2X 7129   2.024   5.311   4.098 -0.6046 -0.0874  1.3691
   56DOPE   H2Y 7130   2.128   5.456   4.078 -0.8632  0.1981 -1.9671
   56DOPE   C23 7131   1.806   5.874   4.034  0.4574 -0.0283 -0.1293
   56DOPE   H3R 7132   1.915   5.881   4.053  0.3423  0.0663  0.5019
   56DOPE   H3S 7133   1.756   5.785   4.078 -1.0486  1.1922  0.7238
   56DOPE   C24 7134   1.764   6.001   4.113  0.6149 -0.3269  0.1090
   56DOPE   H4R 7135   1.657   6.017   4.087  1.0155 -1.6705 -2.7520
   56DOPE   H4S 7136   1.803   6.095   4.069  0.4163  0.8881  2.3982
   56DOPE   C25 7137   1.787   5.974   4.259  0.6788 -0.4052  0.1262
   56DOPE   H5R 7138   1.895   5.951   4.272  0.4441 -1.3574  0.5208
   56DOPE   H5S 7139   1.737   5.886   4.306 -0.2191  1.1560  2.2711
   56DOPE   C26 7140   1.756   6.096   4.339  0.2984  0.3128  0.4482
   56DOPE   H6R 7141   1.763   6.180   4.266  2.7545 -0.6874 -0.5579
   56DOPE   H6S 7142   1.835   6.110   4.416 -0.0074  1.3429  0.5964
   56DOPE   C27 7143   1.613   6.094   4.394 -0.5034 -0.9595 -0.4088
   56DOPE   H7R 7144   1.614   6.018   4.475 -0.4161  0.6687  1.2087
   56DOPE   H7S 7145   1.538   6.071   4.315  2.0681  0.3629 -3.4635
   56DOPE   C28 7146   1.566   6.226   4.461 -0.0161 -0.3187  0.5543
   56DOPE   H8R 7147   1.588   6.299   4.380 -2.0901  0.5183  0.6764
   56DOPE   H8S 7148   1.633   6.254   4.545  2.0995  2.2805 -1.7788
   56DOPE   C29 7149   1.419   6.234   4.505 -0.1238  0.4846  0.0704
   56DOPE   H9R 7150   1.384   6.134   4.534  3.3320 -0.9542 -0.1833
   56DOPE  C210 7151   1.337   6.333   4.504 -0.0443 -0.5082 -0.0076
   56DOPE  H10R 7152   1.237   6.317   4.548  0.5181 -2.7280  0.5848
   56DOPE  C211 7153   1.367   6.474   4.459  0.1511 -0.7512  0.0899
   56DOPE  H11R 7154   1.475   6.498   4.469  0.0327 -0.0054 -0.3998
   56DOPE  H11S 7155   1.315   6.552   4.518  1.3729  0.2767 -0.1402
   56DOPE  C212 7156   1.325   6.491   4.300 -0.9491 -0.2335 -0.4698
   56DOPE  H12R 7157   1.214   6.487   4.310 -0.8224  1.2840  3.2214
   56DOPE  H12S 7158   1.353   6.393   4.256  0.2192 -0.6643  1.1517
   56DOPE  C213 7159   1.355   6.623   4.235  0.9518 -0.1276 -0.3083
   56DOPE  H13R 7160   1.424   6.614   4.148 -0.7707  0.7138 -1.8318
   56DOPE  H13S 7161   1.403   6.689   4.311  0.1158  0.1290  0.0082
   56DOPE  C214 7162   1.229   6.693   4.188 -0.4842  0.2001  0.2473
   56DOPE  H14R 7163   1.155   6.681   4.270 -1.4644 -1.3754 -0.8181
   56DOPE  H14S 7164   1.180   6.646   4.100  1.3357  0.0555 -0.7287
   56DOPE  C215 7165   1.246   6.843   4.150 -0.2954 -0.1123 -1.1465
   56DOPE  H15R 7166   1.301   6.840   4.053 -1.4749 -2.2950 -1.8028
   56DOPE  H15S 7167   1.302   6.896   4.230  0.2485 -4.0090  1.2884
   56DOPE  C216 7168   1.107   6.904   4.113 -0.2549  0.1677 -0.4818
   56DOPE  H16R 7169   1.076   6.844   4.026 -1.3747  0.2681 -0.1644
   56DOPE  H16S 7170   1.123   7.006   4.072  0.0905  0.3260  0.0264
   56DOPE  C217 7171   1.023   6.916   4.242 -0.4871 -0.2837  0.5249
   56DOPE  H17R 7172   1.078   6.980   4.314  2.1823 -0.3632 -1.2893
   56DOPE  H17S 7173   1.003   6.816   4.287 -2.9430 -0.6751 -1.2398
   56DOPE  C218 7174   0.883   6.974   4.223  0.4719  0.4888  0.0380
   56DOPE  H18R 7175   0.890   7.080   4.192 -1.6379  1.0802  1.4309
   56DOPE  H18S 7176   0.822   6.966   4.315 -0.0622  0.5423 -0.3068
   56DOPE  H18T 7177   0.829   6.917   4.144 -0.9711  0.5360  0.9679
   56DOPE   C33 7178   2.022   5.436   4.270  0.4836  0.0356  0.1343
   56DOPE   H3X 7179   1.916   5.420   4.299 -0.3118  1.0179 -2.0576
   56DOPE   H3Y 7180   2.039   5.544   4.288 -0.9141 -0.1640  3.3171
   56DOPE   C34 7181   2.122   5.353   4.345 -0.5984 -0.3890  0.1803
   56DOPE   H4X 7182   2.107   5.252   4.301  0.6844 -0.5538  0.0851
   56DOPE   H4Y 7183   2.217   5.402   4.313 -1.0554 -0.0569 -0.7162
   56DOPE   C35 7184   2.108   5.374   4.497  0.9493 -0.2273 -0.1578
   56DOPE   H5X 7185   2.002   5.363   4.528  1.1706  0.8402  1.0545
   56DOPE   H5Y 7186   2.131   5.479   4.523  0.6292 -0.6739  2.1281
   56DOPE   C36 7187   2.206   5.290   4.591 -0.1586 -0.3235  0.6405
   56DOPE   H6X 7188   2.303   5.297   4.538 -0.8732  2.0972 -0.4928
   56DOPE   H6Y 7189   2.170   5.185   4.582 -1.0657 -0.0037  0.4297
   56DOPE   C37 7190   2.213   5.346   4.732 -0.0361  0.7414  0.0361
   56DOPE   H7X 7191   2.239   5.453   4.720 -0.0292  0.6245 -1.1030
   56DOPE   H7Y 7192   2.111   5.328   4.773 -0.0143 -0.2434 -0.2920
   56DOPE   C38 7193   2.310   5.267   4.830 -0.1529 -0.0574  0.8149
   56DOPE   H8X 7194   2.292   5.315   4.928 -1.4171  1.4854 -0.1242
   56DOPE   H8Y 7195   2.416   5.287   4.803  0.7300 -2.7616  1.9374
   56DOPE   C39 7196   2.299   5.121   4.840 -0.3282  0.2626 -0.7939
   56DOPE   H9X 7197   2.341   5.068   4.753  0.6180 -2.5458  1.2401
   56DOPE  C310 7198   2.246   5.053   4.944  0.2168  0.7492 -0.0774
   56DOPE  H10X 7199   2.262   4.944   4.945 -0.3035  0.6539  1.8006
   56DOPE  C311 7200   2.212   5.104   5.085 -0.3618 -1.0295  0.3449
   56DOPE  H11X 7201   2.211   5.215   5.091  0.6589 -0.9686 -0.2415
   56DOPE  H11Y 7202   2.114   5.064   5.116 -0.2438 -0.3933  1.5946
   56DOPE  C312 7203   2.312   5.056   5.190 -0.1426  0.0602 -0.8008
   56DOPE  H12X 7204   2.275   5.095   5.288 -0.1210 -4.6148  1.3604
   56DOPE  H12Y 7205   2.413   5.092   5.161 -0.2094  0.0369 -1.0631
   56DOPE  C313 7206   2.321   4.905   5.213  0.2311  1.3790  0.5004
   56DOPE  H13X 7207   2.229   4.867   5.262  1.6637 -0.8437  1.6308
   56DOPE  H13Y 7208   2.340   4.850   5.119 -0.6241 -1.5028  1.8857
   56DOPE  C314 7209   2.443   4.876   5.307  0.8387  0.0023 -0.3358
   56DOPE  H14X 7210   2.537   4.918   5.267  0.0464 -0.6222 -3.0690
   56DOPE  H14Y 7211   2.458   4.767   5.301  0.4861 -0.0579 -0.1798
   56DOPE  C315 7212   2.413   4.930   5.452 -0.1577 -0.2428  0.1458
   56DOPE  H15X 7213   2.419   5.041   5.450  2.4315 -0.3091 -2.1501
   56DOPE  H15Y 7214   2.491   4.896   5.523 -1.7894 -0.9767  1.6401
   56DOPE  C316 7215   2.274   4.898   5.509 -0.4896  0.4706  0.0355
   56DOPE  H16X 7216   2.253   4.791   5.488 -1.9072  0.6415  0.5147
   56DOPE  H16Y 7217   2.197   4.961   5.460 -2.7132 -2.1139  0.0154
   56DOPE  C317 7218   2.252   4.925   5.657  0.5512  0.3940 -0.2810
   56DOPE  H17X 7219   2.262   5.034   5.676  0.6555  0.6691 -1.7958
   56DOPE  H17Y 7220   2.146   4.915   5.689 -0.1567  0.6639 -2.3795
   56DOPE  C318 7221   2.327   4.826   5.754  0.0361  0.2064  0.0556
   56DOPE  H18X 7222   2.438   4.831   5.745 -0.0718  2.1644 -0.6891
   56DOPE  H18Y 7223   2.295   4.834   5.860  1.4226  0.5116  0.4662
   56DOPE  H18Z 7224   2.303   4.721   5.726 -0.7542  0.3257  0.2629
   57DOPE     N 7225   1.240   1.123   3.102  0.1385  0.4129 -0.3933
   57DOPE   HN1 7226   1.172   1.045   3.119  1.4015 -0.5686  0.3115
   57DOPE   HN2 7227   1.271   1.124   3.002  0.2927 -0.7468 -0.3748
   57DOPE   HN3 7228   1.328   1.091   3.147 -1.1989 -1.7057  0.9131
   57DOPE   C12 7229   1.171   1.244   3.164 -0.0382 -0.6509 -0.2565
   57DOPE  H12A 7230   1.160   1.214   3.271  2.5467  0.5572  0.4286
   57DOPE  H12B 7231   1.072   1.268   3.120  0.6914  1.9459 -0.6591
   57DOPE   C11 7232   1.265   1.363   3.167  0.1525  0.5116 -0.4663
   57DOPE  H11A 7233   1.292   1.399   3.065 -0.0879  1.7370 -0.1154
   57DOPE  H11B 7234   1.360   1.332   3.216  0.2029  0.7405 -0.4138
   57DOPE     P 7235   1.274   1.580   3.302  0.2661 -0.4982  0.1383
   57DOPE   O13 7236   1.197   1.656   3.401  0.3570 -0.0277 -0.1491
   57DOPE   O14 7237   1.342   1.659   3.198  0.5322  0.1910 -0.1273
   57DOPE   O11 7238   1.391   1.498   3.374 -0.0361 -0.0468 -0.2935
   57DOPE   O12 7239   1.190   1.467   3.235 -0.3143  0.5922 -0.3234
   57DOPE    C1 7240   1.378   1.421   3.491 -0.0687 -0.1413  0.3269
   57DOPE    HA 7241   1.421   1.320   3.476  1.4753  0.6045 -0.5268
   57DOPE    HB 7242   1.272   1.415   3.524 -0.2431  0.2812 -0.1377
   57DOPE    C2 7243   1.452   1.492   3.610 -0.0749  0.0709  1.0059
   57DOPE    HS 7244   1.470   1.418   3.691 -1.9656 -0.2175  1.2191
   57DOPE   O21 7245   1.390   1.609   3.666  0.0097 -0.0235  0.1467
   57DOPE   C21 7246   1.295   1.589   3.749 -0.2226  0.0236  0.1439
   57DOPE   O22 7247   1.242   1.479   3.769  0.4759 -0.4504  0.3725
   57DOPE   C22 7248   1.258   1.713   3.830  0.4583 -0.1621  0.8422
   57DOPE   H2R 7249   1.184   1.781   3.784  1.2008 -0.2563 -0.5505
   57DOPE   H2S 7250   1.349   1.776   3.840  1.5838 -1.4612 -0.6440
   57DOPE    C3 7251   1.602   1.529   3.565  0.2374  0.6226 -0.0182
   57DOPE    HX 7252   1.611   1.612   3.491  0.6213  0.6231  0.0258
   57DOPE    HY 7253   1.645   1.445   3.507  1.2941  0.1194  1.4566
   57DOPE   O31 7254   1.687   1.543   3.685  0.3795 -0.4748 -0.6982
   57DOPE   C31 7255   1.712   1.669   3.726 -0.3843  0.0309 -0.2167
   57DOPE   O32 7256   1.669   1.774   3.674  0.1519  0.9165  0.0806
   57DOPE   C32 7257   1.812   1.672   3.841  0.3931  0.0405 -0.7032
   57DOPE   H2X 7258   1.778   1.599   3.918 -0.1769 -1.4200 -2.2637
   57DOPE   H2Y 7259   1.907   1.642   3.792  1.1649  1.9461 -0.4762
   57DOPE   C23 7260   1.198   1.679   3.972 -0.0370  1.0270  0.6679
   57DOPE   H3R 7261   1.235   1.585   4.018 -1.0043  0.6217  0.6440
   57DOPE   H3S 7262   1.093   1.648   3.951 -0.0419  1.1046  0.5764
   57DOPE   C24 7263   1.192   1.794   4.065 -0.0096  0.3305 -0.8868
   57DOPE   H4R 7264   1.095   1.847   4.077 -0.3516 -0.3160 -0.7453
   57DOPE   H4S 7265   1.256   1.876   4.025  0.7002  0.8174  1.1239
   57DOPE   C25 7266   1.229   1.746   4.204 -0.3664 -0.0603  0.1315
   57DOPE   H5R 7267   1.332   1.704   4.195 -1.4336 -2.7650 -0.2890
   57DOPE   H5S 7268   1.170   1.654   4.220  0.4379 -0.5611  0.2756
   57DOPE   C26 7269   1.226   1.863   4.305  0.7063  0.6518 -0.2355
   57DOPE   H6R 7270   1.259   1.960   4.261 -1.2020  0.7542 -1.5585
   57DOPE   H6S 7271   1.300   1.830   4.380  1.3399  0.1123 -1.0782
   57DOPE   C27 7272   1.083   1.879   4.372  0.3596  0.6027  0.2710
   57DOPE   H7R 7273   1.039   1.780   4.396 -0.2304  1.4349  3.0429
   57DOPE   H7S 7274   1.014   1.925   4.298 -1.2992  0.5591  1.7073
   57DOPE   C28 7275   1.100   1.971   4.499  1.1929  0.0824 -0.0859
   57DOPE   H8R 7276   1.152   2.055   4.449  0.0568 -0.1366 -1.7164
   57DOPE   H8S 7277   1.175   1.925   4.568  2.7459  2.3118 -0.1613
   57DOPE   C29 7278   0.963   1.997   4.553 -0.7278  0.5551  0.5265
   57DOPE   H9R 7279   0.912   1.900   4.567 -0.0337 -0.0036 -0.6179
   57DOPE  C210 7280   0.897   2.105   4.593  0.2939  0.3562  0.0002
   57DOPE  H10R 7281   0.799   2.084   4.638  1.5792 -0.3445  2.7122
   57DOPE  C211 7282   0.944   2.247   4.596  0.0425 -0.4661  0.4814
   57DOPE  H11R 7283   0.876   2.311   4.536  0.5129 -0.1582  0.2617
   57DOPE  H11S 7284   1.047   2.269   4.558 -0.1347  0.5916  0.5693
   57DOPE  C212 7285   0.930   2.314   4.734 -0.0761  0.0871  0.5234
   57DOPE  H12R 7286   0.825   2.310   4.772 -0.2357  2.9211  0.5522
   57DOPE  H12S 7287   0.958   2.421   4.734  1.1898 -0.1764  2.5956
   57DOPE  C213 7288   1.041   2.259   4.826  0.1361  0.2254 -0.0124
   57DOPE  H13R 7289   1.138   2.271   4.771 -0.1573  0.0668 -0.5764
   57DOPE  H13S 7290   1.023   2.150   4.837 -2.6041  0.7018  0.8146
   57DOPE  C214 7291   1.054   2.324   4.962  0.2758 -0.5330  0.1182
   57DOPE  H14R 7292   1.086   2.430   4.955  1.6052 -0.8867  0.5106
   57DOPE  H14S 7293   1.140   2.283   5.019  1.6325 -1.0671 -2.2121
   57DOPE  C215 7294   0.923   2.316   5.046  0.5733  0.4480 -0.6908
   57DOPE  H15R 7295   0.845   2.384   5.006 -0.3452 -0.0169  0.2807
   57DOPE  H15S 7296   0.939   2.362   5.146 -0.7920 -0.4281 -0.0403
   57DOPE  C216 7297   0.862   2.175   5.069  0.7101  0.5160 -0.3713
   57DOPE  H16R 7298   0.941   2.118   5.121 -1.7276 -1.8449  1.0296
   57DOPE  H16S 7299   0.842   2.132   4.968 -0.6250  1.8361 -0.7009
   57DOPE  C217 7300   0.731   2.167   5.148 -0.4003 -0.0597 -0.6994
   57DOPE  H17R 7301   0.753   2.165   5.257 -2.3421  3.7264 -0.0584
   57DOPE  H17S 7302   0.684   2.070   5.119  1.5720 -1.7198  1.3099
   57DOPE  C218 7303   0.634   2.279   5.133 -0.0229 -0.4885 -0.4297
   57DOPE  H18R 7304   0.668   2.372   5.183 -2.3112 -0.6917  1.6771
   57DOPE  H18S 7305   0.542   2.264   5.194  0.8577  1.0833  1.3904
   57DOPE  H18T 7306   0.615   2.297   5.025  0.5133 -0.5137 -0.5276
   57DOPE   C33 7307   1.823   1.803   3.917 -0.1086 -0.7151 -0.0971
   57DOPE   H3X 7308   1.839   1.893   3.854 -0.8688 -0.8689 -0.5193
   57DOPE   H3Y 7309   1.910   1.792   3.985  1.2193  3.2135 -0.9117
   57DOPE   C34 7310   1.707   1.821   4.013  0.4736  0.1208  0.4722
   57DOPE   H4X 7311   1.618   1.850   3.954  2.1195  3.6265 -0.5803
   57DOPE   H4Y 7312   1.686   1.722   4.058 -1.9269  1.0542  1.5564
   57DOPE   C35 7313   1.720   1.934   4.114 -0.6252 -0.1962  0.1145
   57DOPE   H5X 7314   1.707   2.030   4.060  0.5154 -0.9557 -1.5731
   57DOPE   H5Y 7315   1.827   1.918   4.140 -0.4082 -0.2159 -0.7621
   57DOPE   C36 7316   1.641   1.914   4.240 -0.2651 -0.5508  0.4616
   57DOPE   H6X 7317   1.635   1.808   4.274  1.0018 -0.9260 -0.4200
   57DOPE   H6Y 7318   1.532   1.932   4.226 -0.5283 -1.3506  1.3214
   57DOPE   C37 7319   1.687   2.000   4.347 -0.0979  0.5001 -0.2973
   57DOPE   H7X 7320   1.797   1.984   4.347 -0.3695 -1.8747 -1.4065
   57DOPE   H7Y 7321   1.680   2.111   4.346  0.9980  0.7299  3.0704
   57DOPE   C38 7322   1.652   1.952   4.489 -0.7655 -0.5474 -0.3086
   57DOPE   H8X 7323   1.714   2.005   4.564 -0.6965 -0.2701 -0.5588
   57DOPE   H8Y 7324   1.670   1.843   4.495  0.5072 -0.2694  1.8684
   57DOPE   C39 7325   1.513   1.975   4.530 -0.0779  0.0011  1.0876
   57DOPE   H9X 7326   1.446   1.969   4.444  1.1824 -1.8241  0.1756
   57DOPE  C310 7327   1.465   1.981   4.656  0.0480 -0.8264 -0.0482
   57DOPE  H10X 7328   1.358   1.997   4.674  0.6412  1.0380  2.2762
   57DOPE  C311 7329   1.543   1.973   4.783 -0.0590 -0.0982  0.7664
   57DOPE  H11X 7330   1.569   1.865   4.786  0.3469 -0.1745 -2.2634
   57DOPE  H11Y 7331   1.637   2.033   4.779 -0.6926  0.8244 -1.6982
   57DOPE  C312 7332   1.468   2.010   4.917 -0.3546 -0.5796  0.4499
   57DOPE  H12X 7333   1.467   2.121   4.904  0.9957 -0.5747  0.3021
   57DOPE  H12Y 7334   1.537   1.975   4.996 -1.0807  0.0873  1.4071
   57DOPE  C313 7335   1.329   1.943   4.936  0.3201  0.2578  0.8774
   57DOPE  H13X 7336   1.250   1.988   4.873 -0.0545 -1.4238  0.1022
   57DOPE  H13Y 7337   1.337   1.836   4.908 -0.0869  0.7001 -1.1476
   57DOPE  C314 7338   1.280   1.947   5.083  0.3437 -0.9283  0.1329
   57DOPE  H14X 7339   1.269   2.053   5.115 -0.3374 -0.7787 -0.5580
   57DOPE  H14Y 7340   1.366   1.900   5.135  1.2470 -0.3830 -0.8327
   57DOPE  C315 7341   1.149   1.878   5.115  0.8685 -0.0918  0.5549
   57DOPE  H15X 7342   1.162   1.771   5.090 -0.3253 -0.1195  0.0020
   57DOPE  H15Y 7343   1.084   1.918   5.035  3.8320  0.0851 -1.9719
   57DOPE  C316 7344   1.092   1.907   5.259 -0.1789  0.0599 -0.0468
   57DOPE  H16X 7345   1.090   2.017   5.278 -3.0334  0.1179 -0.2468
   57DOPE  H16Y 7346   1.156   1.857   5.335  0.3352 -2.1704 -1.8549
   57DOPE  C317 7347   0.942   1.862   5.279 -0.4840  0.3217  0.0167
   57DOPE  H17X 7348   0.879   1.910   5.201 -2.0258  0.1836  1.1302
   57DOPE  H17Y 7349   0.930   1.753   5.262  1.6483  0.1311 -0.6761
   57DOPE  C318 7350   0.876   1.917   5.409 -0.2325 -0.9274 -0.0806
   57DOPE  H18X 7351   0.773   1.878   5.409  0.0452 -1.9342 -2.8888
   57DOPE  H18Y 7352   0.942   1.876   5.488  0.6194 -2.0255 -1.3128
   57DOPE  H18Z 7353   0.870   2.028   5.412 -1.1152 -0.9602 -0.3098
   58DOPE     N 7354   7.613   5.999   2.766 -0.1838  0.0717  0.2563
   58DOPE   HN1 7355   7.586   6.059   2.846  0.1417 -1.3276  1.4479
   58DOPE   HN2 7356   7.554   6.029   2.685  0.8057 -0.9121 -0.8652
   58DOPE   HN3 7357   7.588   5.900   2.787  0.7436  0.2138  2.2662
   58DOPE   C12 7358   7.760   6.016   2.735  0.0841  0.4166 -0.5101
   58DOPE  H12A 7359   7.789   6.124   2.732 -2.1701  1.1280  0.5416
   58DOPE  H12B 7360   7.767   5.971   2.634 -1.0072  1.3994 -1.0575
   58DOPE   C11 7361   7.845   5.945   2.844  0.4554  0.7165 -0.9680
   58DOPE  H11A 7362   7.823   5.993   2.942  0.8758  0.5033 -0.7638
   58DOPE  H11B 7363   7.951   5.973   2.823  0.4454 -0.6212 -3.1415
   58DOPE     P 7364   7.732   5.719   2.922 -0.0612 -0.1697  0.0997
   58DOPE   O13 7365   7.770   5.578   2.935 -0.4518 -0.1089  0.3528
   58DOPE   O14 7366   7.602   5.749   2.866  0.4848 -0.7159 -0.8784
   58DOPE   O11 7367   7.737   5.783   3.063  0.8303 -0.4738 -0.2965
   58DOPE   O12 7368   7.841   5.800   2.846  0.6607 -0.1532  0.2579
   58DOPE    C1 7369   7.861   5.787   3.137  0.3523 -0.1493 -0.4177
   58DOPE    HA 7370   7.920   5.878   3.114 -0.4878  0.8233  1.1011
   58DOPE    HB 7371   7.925   5.696   3.128  0.7503  0.1060 -0.1841
   58DOPE    C2 7372   7.830   5.812   3.292 -0.1758  0.5643 -0.0253
   58DOPE    HS 7373   7.772   5.727   3.336  1.1758 -0.1855  0.3567
   58DOPE   O21 7374   7.752   5.934   3.306  0.3014  0.2086  0.5868
   58DOPE   C21 7375   7.672   5.940   3.412 -0.0556  0.3732  0.1682
   58DOPE   O22 7376   7.648   5.845   3.487  0.2773  0.7435 -0.1821
   58DOPE   C22 7377   7.632   6.084   3.436  0.2708 -0.2942  0.3119
   58DOPE   H2R 7378   7.535   6.099   3.383  0.6305 -2.0247 -0.9406
   58DOPE   H2S 7379   7.712   6.149   3.395  0.1886  0.7011  1.6904
   58DOPE    C3 7380   7.964   5.801   3.378 -0.1020 -0.0557  0.3035
   58DOPE    HX 7381   8.021   5.889   3.342  1.6531 -0.5399  1.7191
   58DOPE    HY 7382   8.020   5.713   3.339 -0.9614  0.8750 -3.4000
   58DOPE   O31 7383   7.961   5.800   3.525  0.1427 -0.1040  0.2103
   58DOPE   C31 7384   7.942   5.677   3.577 -0.2048 -0.9007 -0.1613
   58DOPE   O32 7385   7.923   5.575   3.515  0.4611  0.0148  0.2071
   58DOPE   C32 7386   7.949   5.690   3.730  0.4782  0.1782 -0.0175
   58DOPE   H2X 7387   8.043   5.633   3.745  0.3624  0.1689  0.6998
   58DOPE   H2Y 7388   7.965   5.797   3.758  0.8957 -0.3761  2.0154
   58DOPE   C23 7389   7.590   6.108   3.583  0.5905  0.6534 -0.0164
   58DOPE   H3R 7390   7.508   6.036   3.601  0.9448  0.1462 -0.4064
   58DOPE   H3S 7391   7.541   6.207   3.598 -1.6499 -0.7281  2.6595
   58DOPE   C24 7392   7.707   6.089   3.686  0.2128 -0.2502 -0.1081
   58DOPE   H4R 7393   7.788   6.149   3.640 -0.4473 -0.9610 -2.3046
   58DOPE   H4S 7394   7.745   5.985   3.686 -3.1287 -1.6269  1.1479
   58DOPE   C25 7395   7.672   6.138   3.830  0.5771  0.5771  0.3693
   58DOPE   H5R 7396   7.575   6.093   3.859  0.7967 -0.4035 -0.3667
   58DOPE   H5S 7397   7.669   6.249   3.828 -1.0960  0.5389 -0.3800
   58DOPE   C26 7398   7.773   6.104   3.940  0.2248  0.7569 -0.0030
   58DOPE   H6R 7399   7.871   6.148   3.912  0.3480  0.5020  0.0262
   58DOPE   H6S 7400   7.789   5.994   3.937  1.1664  0.8267  1.4736
   58DOPE   C27 7401   7.740   6.157   4.078 -0.3367  0.1074  0.2242
   58DOPE   H7R 7402   7.712   6.262   4.056  1.9194  0.1804 -2.8291
   58DOPE   H7S 7403   7.837   6.143   4.130 -0.3897  1.1124  0.6107
   58DOPE   C28 7404   7.622   6.085   4.156 -0.6469  0.5865  0.1599
   58DOPE   H8R 7405   7.534   6.102   4.091 -0.3969 -2.4706 -1.1508
   58DOPE   H8S 7406   7.616   6.121   4.261 -2.6293 -0.1438  0.3308
   58DOPE   C29 7407   7.651   5.937   4.160  0.1218 -0.0654 -0.3280
   58DOPE   H9R 7408   7.604   5.876   4.083  1.6153 -2.1971  0.3401
   58DOPE  C210 7409   7.737   5.878   4.245  0.6031  0.3792 -0.2341
   58DOPE  H10R 7410   7.773   5.774   4.231 -0.8197 -0.1848  0.1912
   58DOPE  C211 7411   7.818   5.949   4.352  0.1382 -0.3947 -0.2533
   58DOPE  H11R 7412   7.791   6.057   4.361 -1.6744 -0.9264  1.4230
   58DOPE  H11S 7413   7.924   5.946   4.318  0.5027  0.3104  0.7622
   58DOPE  C212 7414   7.802   5.874   4.480  0.1307  0.6808  0.8796
   58DOPE  H12R 7415   7.821   5.766   4.459 -0.8304  0.6164  0.2654
   58DOPE  H12S 7416   7.696   5.879   4.514 -0.8940 -0.0473 -1.9759
   58DOPE  C213 7417   7.886   5.932   4.598 -0.4069  0.2212  0.8572
   58DOPE  H13R 7418   7.841   6.031   4.623 -0.7599 -0.1188  1.6046
   58DOPE  H13S 7419   7.990   5.953   4.565 -0.4694  1.8414  1.5696
   58DOPE  C214 7420   7.887   5.863   4.734  0.8461  1.0756  0.2730
   58DOPE  H14R 7421   7.931   5.762   4.721  1.6144  1.3275  0.8747
   58DOPE  H14S 7422   7.782   5.853   4.770  0.6927 -1.1123 -0.6292
   58DOPE  C215 7423   7.968   5.948   4.826 -0.4545  0.4330 -0.1174
   58DOPE  H15R 7424   7.944   6.055   4.813 -0.7727  0.3040 -0.6276
   58DOPE  H15S 7425   8.075   5.923   4.808 -0.1967  2.2194 -1.2876
   58DOPE  C216 7426   7.936   5.914   4.972  0.7221 -0.0260  0.5909
   58DOPE  H16R 7427   7.950   5.806   4.992  1.9701  0.1408  0.7169
   58DOPE  H16S 7428   7.827   5.934   4.977  0.8363  1.0210 -0.5256
   58DOPE  C217 7429   8.010   5.999   5.075  0.0040  0.0727 -0.6747
   58DOPE  H17R 7430   7.959   5.988   5.173 -0.7429  1.2587 -0.9084
   58DOPE  H17S 7431   7.992   6.101   5.034  0.9211  0.4995 -0.0720
   58DOPE  C218 7432   8.160   5.962   5.082  0.6606 -0.8330 -0.3316
   58DOPE  H18R 7433   8.198   6.030   5.162 -2.0349  0.1611  0.2200
   58DOPE  H18S 7434   8.223   5.985   4.994  0.7916 -1.5260 -0.4239
   58DOPE  H18T 7435   8.174   5.853   5.100  1.4311 -0.8111 -0.7673
   58DOPE   C33 7436   7.839   5.605   3.794  0.7625  0.7403 -0.1744
   58DOPE   H3X 7437   7.869   5.576   3.897 -2.7346 -3.2469 -0.0054
   58DOPE   H3Y 7438   7.826   5.512   3.735 -0.9403  0.7684  0.1085
   58DOPE   C34 7439   7.698   5.675   3.791 -0.3818  0.9359 -0.9538
   58DOPE   H4X 7440   7.719   5.774   3.837  0.3825  0.4637 -0.2564
   58DOPE   H4Y 7441   7.666   5.702   3.688 -2.5406 -0.7330 -0.7863
   58DOPE   C35 7442   7.579   5.594   3.855 -0.2297  0.1090 -0.8277
   58DOPE   H5X 7443   7.535   5.523   3.782 -1.4505  2.6726 -2.7506
   58DOPE   H5Y 7444   7.501   5.669   3.878 -0.5502 -0.7719  1.1690
   58DOPE   C36 7445   7.613   5.522   3.989 -0.1459 -0.3471  0.1598
   58DOPE   H6X 7446   7.644   5.606   4.055 -1.1478  0.9026 -0.8922
   58DOPE   H6Y 7447   7.698   5.451   3.989  1.3007  1.3197  0.2864
   58DOPE   C37 7448   7.498   5.442   4.057 -0.1229 -0.2025  0.3473
   58DOPE   H7X 7449   7.428   5.525   4.079  1.1324  0.9554  0.1080
   58DOPE   H7Y 7450   7.473   5.375   3.972 -0.6324  0.3482  0.0563
   58DOPE   C38 7451   7.546   5.373   4.183 -0.5771 -0.5816 -0.4281
   58DOPE   H8X 7452   7.619   5.296   4.149  0.7575  0.9776 -1.2163
   58DOPE   H8Y 7453   7.459   5.312   4.216  1.3855 -2.3583  1.8365
   58DOPE   C39 7454   7.579   5.465   4.295  0.8677  0.1762  0.0157
   58DOPE   H9X 7455   7.490   5.513   4.340 -0.4269 -0.7514 -1.4818
   58DOPE  C310 7456   7.703   5.481   4.337  0.5424  0.4425  0.1992
   58DOPE  H10X 7457   7.728   5.542   4.424  0.5460  0.6530  0.0504
   58DOPE  C311 7458   7.826   5.418   4.273 -0.4074  0.9947 -0.0862
   58DOPE  H11X 7459   7.870   5.337   4.335 -1.1259  1.3555  0.9188
   58DOPE  H11Y 7460   7.802   5.364   4.179 -2.3553  1.5648  0.0417
   58DOPE  C312 7461   7.932   5.526   4.249 -0.4821  0.0938 -0.2896
   58DOPE  H12X 7462   7.974   5.568   4.344  0.1723 -0.5431 -0.2882
   58DOPE  H12Y 7463   7.896   5.611   4.188  0.4682  0.9912  0.3539
   58DOPE  C313 7464   8.050   5.484   4.163  0.2994  0.9569  0.3224
   58DOPE  H13X 7465   8.106   5.401   4.212  0.6508  0.0442 -1.5501
   58DOPE  H13Y 7466   7.997   5.439   4.077 -1.3362  0.1273  1.6967
   58DOPE  C314 7467   8.150   5.587   4.113  0.7279 -0.3186  0.3992
   58DOPE  H14X 7468   8.187   5.651   4.195  1.1507  0.5517 -0.4484
   58DOPE  H14Y 7469   8.092   5.656   4.048 -0.0746 -0.3653  1.0496
   58DOPE  C315 7470   8.256   5.509   4.047 -0.6249 -0.2108  0.2555
   58DOPE  H15X 7471   8.208   5.467   3.956 -1.0436 -1.3575  0.9753
   58DOPE  H15Y 7472   8.308   5.427   4.102 -0.3279  0.7339  1.4200
   58DOPE  C316 7473   8.361   5.609   3.998 -0.2652 -1.0754  0.3609
   58DOPE  H16X 7474   8.320   5.703   3.956  0.0850 -0.9630  0.2724
   58DOPE  H16Y 7475   8.404   5.561   3.908 -1.1105 -3.1975  1.0272
   58DOPE  C317 7476   8.481   5.625   4.095 -0.3741  0.2071  0.9838
   58DOPE  H17X 7477   8.436   5.659   4.191 -1.5937 -0.8934  0.8312
   58DOPE  H17Y 7478   8.525   5.524   4.113  1.3533  0.9283  1.0306
   58DOPE  C318 7479   8.586   5.722   4.048  0.2502 -0.3735 -0.4536
   58DOPE  H18X 7480   8.543   5.810   3.996 -1.8152 -1.6802 -1.0876
   58DOPE  H18Y 7481   8.647   5.757   4.134  1.5734  1.1737 -1.9656
   58DOPE  H18Z 7482   8.658   5.668   3.982  2.1213 -0.3032  1.4106
   59DOPE     N 7483   0.808   1.586   3.179 -0.1704 -0.3313  0.1378
   59DOPE   HN1 7484   0.796   1.687   3.159  0.8485  0.5287  3.3011
   59DOPE   HN2 7485   0.899   1.558   3.137  1.3841 -0.7586  3.4666
   59DOPE   HN3 7486   0.739   1.523   3.133  1.1016 -3.6858  2.4275
   59DOPE   C12 7487   0.820   1.545   3.326 -0.0945  0.2052 -0.0037
   59DOPE  H12A 7488   0.723   1.565   3.377  1.2047  1.6556  2.0328
   59DOPE  H12B 7489   0.889   1.616   3.375 -2.0472  1.8349  0.5081
   59DOPE   C11 7490   0.872   1.401   3.349  0.2638  0.8198  0.0673
   59DOPE  H11A 7491   0.877   1.373   3.456  3.4619  0.1471 -0.1753
   59DOPE  H11B 7492   0.975   1.402   3.308 -0.2502 -0.2319 -1.3512
   59DOPE     P 7493   0.821   1.154   3.315  0.7513  0.0350 -0.0480
   59DOPE   O13 7494   0.934   1.136   3.417  0.3397 -0.0438 -0.4515
   59DOPE   O14 7495   0.830   1.066   3.192 -0.0856 -0.1759  0.0682
   59DOPE   O11 7496   0.679   1.137   3.390 -0.5544 -0.3835 -0.5573
   59DOPE   O12 7497   0.802   1.301   3.269 -0.0253 -0.1123 -0.0560
   59DOPE    C1 7498   0.670   1.055   3.515 -0.6610 -0.0191  0.3389
   59DOPE    HA 7499   0.726   1.106   3.596 -0.9582 -1.0490  1.2156
   59DOPE    HB 7500   0.702   0.949   3.502 -2.2067 -0.4810  0.1189
   59DOPE    C2 7501   0.518   1.050   3.554 -0.6621  0.7921  0.3751
   59DOPE    HS 7502   0.492   1.156   3.575 -0.4370  0.7317  0.9981
   59DOPE   O21 7503   0.502   0.969   3.666 -0.0520  0.0846  0.1773
   59DOPE   C21 7504   0.546   1.023   3.781 -0.1504  0.4087 -0.1521
   59DOPE   O22 7505   0.595   1.135   3.796 -0.2366 -0.5782 -0.3236
   59DOPE   C22 7506   0.525   0.921   3.887  0.3446  0.9015  0.1657
   59DOPE   H2R 7507   0.617   0.858   3.892 -0.9893 -1.1690  0.0203
   59DOPE   H2S 7508   0.448   0.848   3.853  0.2965  1.1057 -0.1714
   59DOPE    C3 7509   0.428   0.989   3.443  0.0094 -0.5472 -0.5122
   59DOPE    HX 7510   0.455   0.882   3.438 -2.9788 -1.4976  1.2026
   59DOPE    HY 7511   0.456   1.038   3.346 -1.2410  0.7935 -0.2368
   59DOPE   O31 7512   0.292   0.995   3.475  0.1954  0.4855 -0.3160
   59DOPE   C31 7513   0.227   1.100   3.429 -0.1531  0.1240 -0.2041
   59DOPE   O32 7514   0.281   1.189   3.366 -0.3365 -0.0623  0.0674
   59DOPE   C32 7515   0.086   1.088   3.464 -0.2868  0.0307 -0.2429
   59DOPE   H2X 7516   0.032   1.134   3.379 -1.2217  0.8160  0.7392
   59DOPE   H2Y 7517   0.063   0.979   3.476 -1.7240  0.3976  0.6164
   59DOPE   C23 7518   0.496   0.969   4.032  0.4672 -0.2419 -0.3719
   59DOPE   H3R 7519   0.388   0.996   4.032  0.2985 -0.8079 -1.8524
   59DOPE   H3S 7520   0.554   1.056   4.069 -0.0341 -1.2514  3.1310
   59DOPE   C24 7521   0.519   0.863   4.139  0.7280  0.9404 -0.0260
   59DOPE   H4R 7522   0.489   0.907   4.236 -2.7051  0.8218 -0.8833
   59DOPE   H4S 7523   0.627   0.837   4.141  0.4213 -0.6112 -1.1194
   59DOPE   C25 7524   0.442   0.729   4.117 -0.1679 -0.3878  0.0891
   59DOPE   H5R 7525   0.471   0.661   4.034  1.5191 -0.9792  1.1062
   59DOPE   H5S 7526   0.333   0.739   4.099 -0.1853 -2.0396 -0.8510
   59DOPE   C26 7527   0.455   0.632   4.239  0.6535  0.2495  0.4493
   59DOPE   H6R 7528   0.412   0.533   4.212  0.5783  0.5628 -0.6232
   59DOPE   H6S 7529   0.401   0.676   4.325 -0.8347  1.4330 -1.0389
   59DOPE   C27 7530   0.596   0.596   4.285 -0.1204  0.9926 -0.0262
   59DOPE   H7R 7531   0.650   0.691   4.303 -0.4186  1.1525  0.0333
   59DOPE   H7S 7532   0.651   0.552   4.199 -0.6478  0.7011 -0.2200
   59DOPE   C28 7533   0.598   0.502   4.410 -0.1593 -0.2763 -0.0636
   59DOPE   H8R 7534   0.522   0.423   4.388  0.5131 -0.6888 -0.9691
   59DOPE   H8S 7535   0.558   0.570   4.488 -0.0179 -0.1342 -0.1160
   59DOPE   C29 7536   0.733   0.435   4.440 -0.4200 -0.4566 -0.5853
   59DOPE   H9R 7537   0.774   0.387   4.350  0.3918  0.2116 -0.5861
   59DOPE  C210 7538   0.823   0.439   4.542 -0.0097 -0.0427 -0.4786
   59DOPE  H10R 7539   0.920   0.393   4.519  0.2296 -0.3155  0.9899
   59DOPE  C211 7540   0.804   0.495   4.681 -0.4114 -0.5853  0.9773
   59DOPE  H11R 7541   0.699   0.530   4.687 -0.5976 -0.8299 -0.5478
   59DOPE  H11S 7542   0.862   0.590   4.680  2.0593 -2.0206  0.8871
   59DOPE  C212 7543   0.841   0.411   4.806 -0.8264  0.3744  0.0697
   59DOPE  H12R 7544   0.861   0.484   4.888 -1.4745  0.7915 -0.1371
   59DOPE  H12S 7545   0.937   0.358   4.789  0.7114  2.4815  1.5958
   59DOPE  C213 7546   0.729   0.314   4.842  0.7278  0.5560  0.2628
   59DOPE  H13R 7547   0.707   0.248   4.756  0.2002  2.3904 -1.0667
   59DOPE  H13S 7548   0.634   0.369   4.858 -0.1834 -0.5521 -1.1003
   59DOPE  C214 7549   0.771   0.234   4.960  0.2363  0.8488  0.0817
   59DOPE  H14R 7550   0.778   0.307   5.043 -0.5893  1.0073  0.0182
   59DOPE  H14S 7551   0.866   0.185   4.929  0.6602  0.5964  1.7290
   59DOPE  C215 7552   0.668   0.125   4.996 -0.1844 -0.5707 -0.1095
   59DOPE  H15R 7553   0.703   0.059   5.078 -1.9919  1.7476  2.7515
   59DOPE  H15S 7554   0.666   0.052   4.913  0.1873  0.4045 -1.0087
   59DOPE  C216 7555   0.527   0.183   5.029 -0.0076 -0.2571 -0.3659
   59DOPE  H16R 7556   0.481   0.221   4.936  0.6936  0.7597 -0.3115
   59DOPE  H16S 7557   0.545   0.265   5.102 -0.7012 -0.1912 -0.2684
   59DOPE  C217 7558   0.430   0.083   5.076  0.6075  0.2333  0.1639
   59DOPE  H17R 7559   0.459   0.060   5.181  0.1124  1.5108  0.6062
   59DOPE  H17S 7560   0.420  -0.002   5.005 -2.0328  0.0288  0.6411
   59DOPE  C218 7561   0.297   0.143   5.098  0.1017  0.0465 -0.0871
   59DOPE  H18R 7562   0.266   0.146   5.205  2.5496  0.5296  0.6674
   59DOPE  H18S 7563   0.219   0.084   5.045 -0.6938  0.9196  0.0891
   59DOPE  H18T 7564   0.296   0.250   5.069 -1.3629  0.0985  0.0969
   59DOPE   C33 7565   0.063   1.177   3.587 -0.2011 -0.0579 -0.2119
   59DOPE   H3X 7566  -0.047   1.191   3.601 -0.1184  0.7145 -0.2809
   59DOPE   H3Y 7567   0.099   1.278   3.559  2.3696 -1.2382 -1.4812
   59DOPE   C34 7568   0.106   1.115   3.716  0.5429  0.1018 -0.3488
   59DOPE   H4X 7569   0.059   1.015   3.727  1.3979 -0.4107 -1.1178
   59DOPE   H4Y 7570   0.216   1.100   3.728  0.0610 -2.7346  1.5840
   59DOPE   C35 7571   0.055   1.200   3.835  0.3767 -0.5876 -0.8783
   59DOPE   H5X 7572  -0.046   1.170   3.870  0.2782  0.1592 -0.5078
   59DOPE   H5Y 7573   0.053   1.304   3.795 -0.6072  1.5779  4.0396
   59DOPE   C36 7574   0.145   1.178   3.954  0.3981  0.1576  0.4919
   59DOPE   H6X 7575   0.245   1.200   3.911  0.2743 -2.0823 -1.1293
   59DOPE   H6Y 7576   0.144   1.073   3.992 -0.1656  0.9118  2.6607
   59DOPE   C37 7577   0.123   1.265   4.078 -0.0232 -0.4637  0.5953
   59DOPE   H7X 7578   0.138   1.366   4.035  0.1529 -0.9589 -0.5263
   59DOPE   H7Y 7579   0.025   1.266   4.131 -0.0784  1.6083  0.5265
   59DOPE   C38 7580   0.231   1.237   4.192  0.4689 -0.1133 -0.2528
   59DOPE   H8X 7581   0.231   1.336   4.243 -0.0221 -0.1936 -0.0906
   59DOPE   H8Y 7582   0.335   1.221   4.157  1.2053  2.1647  0.7251
   59DOPE   C39 7583   0.188   1.118   4.270 -0.3678  0.1592  1.1972
   59DOPE   H9X 7584   0.181   1.028   4.207 -0.7309  0.7848  0.3164
   59DOPE  C310 7585   0.169   1.102   4.397 -0.1092 -0.0868 -0.0431
   59DOPE  H10X 7586   0.138   1.001   4.430  2.2033 -2.2259 -3.6864
   59DOPE  C311 7587   0.170   1.200   4.507  0.4356 -0.7877  0.3562
   59DOPE  H11X 7588   0.235   1.153   4.583  1.1361 -0.6850 -0.1748
   59DOPE  H11Y 7589   0.219   1.292   4.470  1.4287 -1.8906 -1.2170
   59DOPE  C312 7590   0.022   1.225   4.561 -0.1895  1.3302  0.0119
   59DOPE  H12X 7591  -0.033   1.129   4.556 -0.2728  1.4048 -0.5584
   59DOPE  H12Y 7592  -0.030   1.292   4.489  0.3276  0.5014 -1.1687
   59DOPE  C313 7593   0.009   1.289   4.701 -0.2601  0.6198  0.0661
   59DOPE  H13X 7594   0.046   1.210   4.769 -0.0081  1.8399  1.4145
   59DOPE  H13Y 7595   0.086   1.369   4.715  0.7286 -0.3378  0.2009
   59DOPE  C314 7596  -0.131   1.327   4.738  0.0053 -0.1530  0.1260
   59DOPE  H14X 7597  -0.199   1.245   4.709  1.9253 -2.0242  0.6832
   59DOPE  H14Y 7598  -0.169   1.419   4.687 -0.0044 -0.2619 -0.0650
   59DOPE  C315 7599  -0.147   1.350   4.893  0.6566  0.0823  0.1630
   59DOPE  H15X 7600  -0.122   1.455   4.919 -0.3745  0.4982 -0.4262
   59DOPE  H15Y 7601  -0.087   1.282   4.956  0.0938 -0.2199  0.3847
   59DOPE  C316 7602  -0.297   1.342   4.943 -0.1472  0.1288  0.1516
   59DOPE  H16X 7603  -0.320   1.233   4.934  2.3734 -0.5429  1.0150
   59DOPE  H16Y 7604  -0.357   1.379   4.857  1.8972 -0.3541 -1.5578
   59DOPE  C317 7605  -0.335   1.379   5.086 -0.3487 -0.1945 -0.1741
   59DOPE  H17X 7606  -0.263   1.331   5.156  1.9190  0.4577 -1.9318
   59DOPE  H17Y 7607  -0.312   1.488   5.094 -2.1085  0.1390  0.6990
   59DOPE  C318 7608  -0.475   1.356   5.131  0.1829 -0.5121  0.3939
   59DOPE  H18X 7609  -0.541   1.427   5.076  1.3149 -0.4710 -0.9742
   59DOPE  H18Y 7610  -0.500   1.251   5.105  3.1084 -1.7467  2.0741
   59DOPE  H18Z 7611  -0.492   1.377   5.239  0.5986 -1.6279  0.6914
   60DOPE     N 7612   1.001   7.187   3.695  0.3829 -0.4988 -0.4349
   60DOPE   HN1 7613   0.974   7.175   3.596  1.0636 -1.3284 -0.5267
   60DOPE   HN2 7614   0.927   7.247   3.738 -1.0773 -0.4505 -2.8651
   60DOPE   HN3 7615   1.091   7.239   3.692 -0.1405  0.3887 -1.7173
   60DOPE   C12 7616   1.005   7.061   3.777  0.2452  0.2227  0.5448
   60DOPE  H12A 7617   0.910   7.010   3.755 -0.2944  0.8156  1.4141
   60DOPE  H12B 7618   0.996   7.099   3.881 -0.3680 -2.3829  1.5066
   60DOPE   C11 7619   1.121   6.966   3.751  0.0296 -0.2780 -0.0639
   60DOPE  H11A 7620   1.088   6.880   3.812 -0.1914 -1.4841 -1.8028
   60DOPE  H11B 7621   1.219   7.006   3.787  0.1099  1.0523 -1.6311
   60DOPE     P 7622   1.048   6.825   3.546  0.5167  0.3837 -0.0268
   60DOPE   O13 7623   1.146   6.718   3.533 -0.3407  0.2409 -0.1350
   60DOPE   O14 7624   0.975   6.878   3.426 -0.0431  0.0643 -0.0359
   60DOPE   O11 7625   0.947   6.786   3.661  0.7913  0.0065 -0.6114
   60DOPE   O12 7626   1.130   6.944   3.611 -0.1779  0.0379  0.6690
   60DOPE    C1 7627   0.854   6.677   3.657 -0.5139  0.3189 -0.5277
   60DOPE    HA 7628   0.901   6.577   3.641  0.7840  0.7338  0.4584
   60DOPE    HB 7629   0.783   6.687   3.573  0.1347 -2.4703 -1.5104
   60DOPE    C2 7630   0.780   6.665   3.791  0.3994  0.2569  0.4935
   60DOPE    HS 7631   0.682   6.615   3.774 -0.0608  0.9670  0.9691
   60DOPE   O21 7632   0.764   6.796   3.852 -1.0745  0.6829 -0.2735
   60DOPE   C21 7633   0.661   6.862   3.816 -0.2781 -0.7095  0.8743
   60DOPE   O22 7634   0.576   6.840   3.727 -0.3277  0.0206 -0.5090
   60DOPE   C22 7635   0.649   6.989   3.902 -0.1441  0.5672  0.0789
   60DOPE   H2R 7636   0.737   7.056   3.912  0.4606 -0.4409  2.1544
   60DOPE   H2S 7637   0.643   6.945   4.004  0.2567  0.2059 -0.0505
   60DOPE    C3 7638   0.855   6.579   3.893 -0.5579 -1.2742  0.5720
   60DOPE    HX 7639   0.948   6.637   3.909 -2.0500  1.0378  1.4067
   60DOPE    HY 7640   0.878   6.479   3.852 -2.7725 -1.8852  0.6813
   60DOPE   O31 7641   0.777   6.571   4.016  0.4821  0.4467 -0.7784
   60DOPE   C31 7642   0.848   6.533   4.115 -0.2588 -0.2130  0.2134
   60DOPE   O32 7643   0.962   6.490   4.106 -0.4285  0.4561 -0.2210
   60DOPE   C32 7644   0.775   6.541   4.248  0.4635 -0.0208  0.9605
   60DOPE   H2X 7645   0.731   6.643   4.254  1.2577  0.5527 -1.7195
   60DOPE   H2Y 7646   0.694   6.466   4.235  0.2258  0.6363 -2.3540
   60DOPE   C23 7647   0.527   7.079   3.864 -0.5956  0.2609 -0.6116
   60DOPE   H3R 7648   0.536   7.105   3.756 -2.6450  1.3963 -0.5561
   60DOPE   H3S 7649   0.536   7.170   3.927  1.6154  0.4493 -1.1282
   60DOPE   C24 7650   0.391   7.010   3.896 -0.0946  0.0202 -0.4386
   60DOPE   H4R 7651   0.394   6.972   4.001  1.9849  0.6498 -0.2303
   60DOPE   H4S 7652   0.385   6.925   3.824  0.8667 -0.7462  0.3600
   60DOPE   C25 7653   0.270   7.097   3.866 -0.2388 -0.6047  0.3244
   60DOPE   H5R 7654   0.271   7.117   3.757  0.4395  1.0339  0.5959
   60DOPE   H5S 7655   0.295   7.188   3.925  3.2144 -1.3724  0.2509
   60DOPE   C26 7656   0.139   7.029   3.904 -0.6157  0.3566 -1.2481
   60DOPE   H6R 7657   0.116   7.080   4.000 -1.0791 -1.1157 -0.5383
   60DOPE   H6S 7658   0.150   6.920   3.923 -1.1107  0.2256 -1.6660
   60DOPE   C27 7659   0.034   7.063   3.803 -0.5583 -0.0920  0.6155
   60DOPE   H7R 7660   0.046   6.998   3.713 -2.3317  0.1780  0.1400
   60DOPE   H7S 7661   0.046   7.168   3.769 -0.0523 -0.4018 -0.2127
   60DOPE   C28 7662  -0.114   7.061   3.840 -0.2449  0.2186 -0.4943
   60DOPE   H8R 7663  -0.130   6.962   3.887 -0.8958  0.7972  0.5251
   60DOPE   H8S 7664  -0.165   7.065   3.741 -0.4390  0.7198 -0.3750
   60DOPE   C29 7665  -0.157   7.178   3.930  0.4619 -0.9102 -0.8924
   60DOPE   H9R 7666  -0.162   7.281   3.891  2.1360  0.3777  1.9488
   60DOPE  C210 7667  -0.174   7.173   4.065  0.9604 -0.1639  0.6853
   60DOPE  H10R 7668  -0.181   7.270   4.116 -1.2769  1.3190 -2.1226
   60DOPE  C211 7669  -0.152   7.048   4.150  0.5500  0.3023 -0.4921
   60DOPE  H11R 7670  -0.140   6.957   4.088  1.1620 -1.0733  1.5262
   60DOPE  H11S 7671  -0.238   7.043   4.220  0.6482 -3.2676 -0.4590
   60DOPE  C212 7672  -0.024   7.043   4.252  0.4810 -0.0430  0.1773
   60DOPE  H12R 7673   0.053   7.109   4.208  0.7433  1.0868  2.2443
   60DOPE  H12S 7674   0.013   6.939   4.264  1.4376 -0.2037 -3.2112
   60DOPE  C213 7675  -0.064   7.099   4.397 -0.8359  0.3239 -0.6866
   60DOPE  H13R 7676  -0.124   7.192   4.385  0.1406  1.1619  0.6678
   60DOPE  H13S 7677   0.019   7.119   4.468 -2.9996  1.3750  1.7005
   60DOPE  C214 7678  -0.154   7.000   4.477  0.8347  0.2508 -0.0099
   60DOPE  H14R 7679  -0.098   6.905   4.476  0.3779 -0.0402  0.8525
   60DOPE  H14S 7680  -0.245   6.985   4.414 -1.3244  0.5588  2.8058
   60DOPE  C215 7681  -0.195   7.059   4.613 -1.1049 -0.0434  0.2366
   60DOPE  H15R 7682  -0.105   7.086   4.672 -0.8085  1.1231 -0.7247
   60DOPE  H15S 7683  -0.243   6.973   4.665 -0.7496  0.3383  1.2298
   60DOPE  C216 7684  -0.291   7.175   4.614  0.0401 -0.3597 -0.6551
   60DOPE  H16R 7685  -0.350   7.155   4.522  1.5576 -0.6044 -1.6008
   60DOPE  H16S 7686  -0.236   7.271   4.608 -0.3477 -0.1052 -0.2621
   60DOPE  C217 7687  -0.397   7.182   4.729 -0.0867  0.8320  0.5365
   60DOPE  H17R 7688  -0.475   7.105   4.710  1.3383 -0.1431 -1.7940
   60DOPE  H17S 7689  -0.443   7.283   4.739  0.4143  0.9375  2.0991
   60DOPE  C218 7690  -0.341   7.149   4.875  0.4752 -0.3537  0.3235
   60DOPE  H18R 7691  -0.284   7.055   4.886 -0.3067 -0.6063  2.8382
   60DOPE  H18S 7692  -0.420   7.154   4.952  1.3113 -0.2481  1.1975
   60DOPE  H18T 7693  -0.259   7.223   4.891 -0.1895  1.0480 -2.1097
   60DOPE   C33 7694   0.858   6.500   4.365 -0.1165  0.3201 -0.0850
   60DOPE   H3X 7695   0.944   6.566   4.390 -0.7510  1.3068 -0.4267
   60DOPE   H3Y 7696   0.891   6.396   4.347 -1.2001 -0.4812  2.0659
   60DOPE   C34 7697   0.772   6.475   4.491 -0.0035 -0.1062 -0.6252
   60DOPE   H4X 7698   0.664   6.457   4.469 -0.2570  1.0478 -0.4136
   60DOPE   H4Y 7699   0.815   6.392   4.550 -0.7952  1.8517  3.0248
   60DOPE   C35 7700   0.782   6.596   4.580 -0.4802  0.4429  0.4331
   60DOPE   H5X 7701   0.756   6.683   4.515 -1.0320  0.0111  0.0592
   60DOPE   H5Y 7702   0.886   6.605   4.616 -0.1015  0.8199 -0.7183
   60DOPE   C36 7703   0.691   6.596   4.696 -0.5254 -0.5744 -1.1653
   60DOPE   H6X 7704   0.725   6.503   4.747  0.8219  1.3687  1.7516
   60DOPE   H6Y 7705   0.584   6.583   4.668 -0.2249 -1.2882 -2.0267
   60DOPE   C37 7706   0.714   6.714   4.791 -0.4022  1.2018 -0.7106
   60DOPE   H7X 7707   0.674   6.689   4.892 -1.3855  0.9260 -1.1590
   60DOPE   H7Y 7708   0.824   6.712   4.801 -0.5971  1.1029  3.1265
   60DOPE   C38 7709   0.658   6.851   4.748 -0.3637  0.6916 -0.1689
   60DOPE   H8X 7710   0.547   6.853   4.736 -0.2794  2.4829 -1.0717
   60DOPE   H8Y 7711   0.709   6.860   4.650  2.1036  1.3378  1.1061
   60DOPE   C39 7712   0.709   6.948   4.847  0.6742 -0.4132 -0.5096
   60DOPE   H9X 7713   0.816   6.971   4.841  0.6596 -0.3275 -0.4343
   60DOPE  C310 7714   0.643   6.984   4.964  0.3457  0.0233 -0.5695
   60DOPE  H10X 7715   0.690   7.057   5.031 -0.5444 -1.5709  1.9046
   60DOPE  C311 7716   0.501   6.942   5.011  0.6137 -0.5715 -0.0049
   60DOPE  H11X 7717   0.436   7.032   5.021 -1.7695 -2.2294  0.5612
   60DOPE  H11Y 7718   0.456   6.878   4.933  0.0900  1.2701 -1.2716
   60DOPE  C312 7719   0.508   6.862   5.137  0.1229 -0.2926 -0.8289
   60DOPE  H12X 7720   0.599   6.801   5.153  0.8024  1.1061  1.0886
   60DOPE  H12Y 7721   0.422   6.793   5.124 -0.8583  0.6467  0.4450
   60DOPE  C313 7722   0.491   6.940   5.266  0.0985 -0.3669  0.2964
   60DOPE  H13X 7723   0.584   6.997   5.286  1.0701 -2.1586  1.1753
   60DOPE  H13Y 7724   0.408   7.014   5.259 -0.8664 -1.5327 -1.2089
   60DOPE  C314 7725   0.482   6.864   5.401  0.4498 -0.1707 -0.0321
   60DOPE  H14X 7726   0.582   6.871   5.450  1.6951  1.6953 -2.5728
   60DOPE  H14Y 7727   0.450   6.758   5.390  1.4155 -0.3167 -1.9617
   60DOPE  C315 7728   0.383   6.932   5.494  0.2611  0.3616 -1.0785
   60DOPE  H15X 7729   0.277   6.913   5.465 -0.4541  0.6792  1.1462
   60DOPE  H15Y 7730   0.396   7.042   5.504 -0.8100  0.2801  3.5826
   60DOPE  C316 7731   0.412   6.874   5.638  0.0824  0.1941  0.3955
   60DOPE  H16X 7732   0.512   6.909   5.672 -0.4003  2.1444 -0.0653
   60DOPE  H16Y 7733   0.422   6.765   5.620  0.6181  0.3226 -0.1078
   60DOPE  C317 7734   0.298   6.922   5.735  0.5246 -0.1737 -0.0178
   60DOPE  H17X 7735   0.202   6.881   5.696  0.1602  0.4885  0.1662
   60DOPE  H17Y 7736   0.311   6.868   5.832  0.9571  0.8796  0.5219
   60DOPE  C318 7737   0.298   7.073   5.764  0.3342  0.5020 -0.3916
   60DOPE  H18X 7738   0.273   7.126   5.670 -0.3411  0.1523 -0.4223
   60DOPE  H18Y 7739   0.210   7.086   5.831 -0.3127  1.4440 -1.3968
   60DOPE  H18Z 7740   0.394   7.100   5.813  0.8419 -1.4152 -0.2215
   6123SM     N 7741   4.890   4.488   7.439  0.1932  0.1354  0.6265
   6123SM   C15 7742   5.001   4.577   7.403 -0.3483  0.0369 -0.0249
   6123SM  H15A 7743   5.048   4.556   7.309  0.6276 -1.4439  0.7614
   6123SM  H15B 7744   5.079   4.565   7.477 -1.1713 -1.7936  0.5932
   6123SM  H15C 7745   4.976   4.682   7.390 -1.0161 -0.0366  0.5689
   6123SM   C14 7746   4.933   4.343   7.421  0.3973 -0.4711 -0.0715
   6123SM  H14A 7747   5.024   4.328   7.478  0.4647 -1.2597 -0.3842
   6123SM  H14B 7748   4.960   4.314   7.321 -0.3860  1.0479 -0.7659
   6123SM  H14C 7749   4.865   4.271   7.465  2.4093 -1.7262  1.1165
   6123SM   C13 7750   4.870   4.510   7.589 -0.3176  0.0415 -0.5145
   6123SM  H13A 7751   4.786   4.448   7.617  1.5196 -2.6913 -0.7841
   6123SM  H13B 7752   4.852   4.615   7.610 -0.1426  0.1508 -0.9111
   6123SM  H13C 7753   4.958   4.485   7.647  0.5352  0.8999 -1.4065
   6123SM   C12 7754   4.768   4.532   7.351 -0.2004  0.3154  0.2140
   6123SM  H12A 7755   4.802   4.542   7.249 -2.2673  0.0177 -0.5375
   6123SM  H12B 7756   4.733   4.630   7.380  1.7112  0.6744  1.4928
   6123SM   C11 7757   4.649   4.438   7.344 -0.0576  0.5988 -0.1732
   6123SM  H11A 7758   4.692   4.336   7.339 -0.6843  0.2853  0.6861
   6123SM  H11B 7759   4.593   4.456   7.250 -1.4465 -0.0095  0.5132
   6123SM     P 7760   4.520   4.347   7.545  0.1067  0.2851  0.2919
   6123SM   O13 7761   4.639   4.294   7.609  0.0050  0.5283 -0.3724
   6123SM   O14 7762   4.406   4.380   7.639 -0.2198 -0.4064  0.3788
   6123SM   O11 7763   4.460   4.246   7.435 -0.3211  0.2712  0.5490
   6123SM   O12 7764   4.563   4.463   7.458 -0.0710  0.3594 -0.1265
   6123SM   C1S 7765   4.338   4.276   7.361  0.7864 -0.2087 -0.1295
   6123SM   H1S 7766   4.306   4.382   7.363 -1.0456 -0.7117 -0.6089
   6123SM   H1T 7767   4.251   4.223   7.407  1.3088 -0.2057  0.8823
   6123SM    NF 7768   4.235   4.299   7.141  0.1562 -0.1574 -0.4800
   6123SM   HNF 7769   4.170   4.225   7.126  0.0495 -0.3908  0.9995
   6123SM   C2S 7770   4.355   4.251   7.210 -0.2673 -0.2560  0.0827
   6123SM   H2S 7771   4.431   4.323   7.172 -0.9786 -0.0002 -0.9022
   6123SM   C3S 7772   4.401   4.106   7.183 -0.3162 -0.8059  0.2684
   6123SM   H3S 7773   4.329   4.035   7.230 -1.1952  1.3530  2.3933
   6123SM    O3 7774   4.519   4.067   7.254 -0.3795  0.1882  0.4398
   6123SM   HO3 7775   4.530   4.127   7.328  2.3410  1.2348 -0.7152
   6123SM   C4S 7776   4.425   4.082   7.037 -0.3308  0.5237 -0.4049
   6123SM   H4S 7777   4.521   4.122   7.003  0.4679 -0.3439  0.7668
   6123SM   C5S 7778   4.356   4.010   6.946  0.8916  0.2733  0.1062
   6123SM   H5S 7779   4.262   3.962   6.978  1.4503 -0.8081  0.1493
   6123SM   C6S 7780   4.379   4.011   6.800 -0.8394  0.8100 -0.1206
   6123SM   H6S 7781   4.319   3.929   6.753 -1.6580  1.7035 -0.6875
   6123SM   H6T 7782   4.484   3.988   6.774 -0.3539  1.5140  1.1421
   6123SM   C7S 7783   4.348   4.147   6.731  0.3525 -0.0084  1.2151
   6123SM   H7S 7784   4.404   4.237   6.764 -1.9561  1.5303  1.1865
   6123SM   H7T 7785   4.244   4.170   6.763 -0.2765  2.3066 -2.0073
   6123SM   C8S 7786   4.354   4.131   6.579  0.1435 -0.0975  0.3533
   6123SM   H8S 7787   4.325   4.030   6.543  2.2378 -1.8199  3.1339
   6123SM   H8T 7788   4.460   4.144   6.547  1.1898 -1.6824  2.9014
   6123SM   C9S 7789   4.262   4.230   6.502 -0.0505 -0.6107  0.1185
   6123SM   H9S 7790   4.303   4.332   6.520 -1.6726  0.4177 -1.6720
   6123SM   H9T 7791   4.160   4.235   6.546  0.3948  1.4830  1.0347
   6123SM  C10S 7792   4.257   4.200   6.349 -0.2338 -0.1383  0.0566
   6123SM  H10S 7793   4.193   4.109   6.341  0.5091 -0.8747  1.8986
   6123SM  H10T 7794   4.356   4.180   6.300 -0.2298 -2.1420  0.8003
   6123SM  C11S 7795   4.185   4.312   6.279 -0.3488 -0.3219  0.4553
   6123SM  H11S 7796   4.235   4.411   6.278 -0.4191 -0.2811 -0.9734
   6123SM  H11T 7797   4.087   4.323   6.331 -0.2832  0.3523  0.4398
   6123SM  C12S 7798   4.149   4.284   6.132 -0.4835  0.2021 -0.3819
   6123SM  H12S 7799   4.115   4.179   6.122  2.1094 -0.6586 -0.9044
   6123SM  H12T 7800   4.246   4.280   6.079 -0.7908  0.2581 -0.9586
   6123SM  C13S 7801   4.055   4.390   6.078  0.1557  0.0961 -0.4074
   6123SM  H13S 7802   4.105   4.489   6.069 -0.5338  0.4058 -0.9070
   6123SM  H13T 7803   3.984   4.406   6.162  0.8099  0.9609 -0.0105
   6123SM  C14S 7804   3.991   4.333   5.952 -0.0554  0.5169 -0.4221
   6123SM  H14S 7805   3.908   4.263   5.975 -0.8961  1.9249  0.9552
   6123SM  H14T 7806   4.067   4.275   5.894  0.3042  0.3127  0.2406
   6123SM  C15S 7807   3.944   4.444   5.866  0.0057  0.1444 -0.0998
   6123SM  H15S 7808   4.022   4.522   5.853  1.1837 -0.9092  0.3508
   6123SM  H15T 7809   3.859   4.488   5.922  0.9130  0.5758  0.9947
   6123SM  C16S 7810   3.899   4.401   5.728 -0.5198 -0.2470 -0.3899
   6123SM  H16S 7811   3.830   4.314   5.729 -0.1994 -0.5649 -2.0836
   6123SM  H16T 7812   3.980   4.371   5.658  1.0894  0.1847  1.2398
   6123SM  C17S 7813   3.821   4.512   5.660  0.1398  0.6450 -0.3445
   6123SM  H17S 7814   3.871   4.611   5.664 -0.7482  1.1305 -0.8543
   6123SM  H17T 7815   3.722   4.526   5.709 -1.1109 -0.0373 -2.5564
   6123SM  C18S 7816   3.799   4.483   5.518 -0.2841  0.0547  0.5983
   6123SM  H18S 7817   3.765   4.377   5.511  1.6551 -0.5510 -0.3910
   6123SM  H18T 7818   3.892   4.489   5.458 -0.6724 -3.3978 -0.5940
   6123SM  H18U 7819   3.723   4.550   5.473  1.5655  0.5013 -2.0438
   6123SM   C1F 7820   4.217   4.430   7.107 -0.2889  0.0495 -0.4807
   6123SM    OF 7821   4.281   4.517   7.166  0.0189  0.1022 -0.0199
   6123SM   C2F 7822   4.126   4.472   6.999  0.4813  0.1696 -0.0536
   6123SM   H2F 7823   4.039   4.530   7.039 -0.8371 -1.9820  0.3476
   6123SM   H2G 7824   4.084   4.380   6.953  1.5521 -0.7165  0.6925
   6123SM   C3F 7825   4.180   4.571   6.891 -0.2287 -0.3124 -0.4722
   6123SM   H3F 7826   4.248   4.646   6.936 -0.7966  0.6258 -1.1444
   6123SM   H3G 7827   4.097   4.629   6.845  1.9278  2.3507 -1.2912
   6123SM   C4F 7828   4.244   4.494   6.772  0.0244  0.5034  0.2202
   6123SM   H4F 7829   4.165   4.423   6.740  0.8015  0.2453 -1.2206
   6123SM   H4G 7830   4.328   4.447   6.827  1.3915  2.5744  0.0363
   6123SM   C5F 7831   4.291   4.578   6.655  0.2872  0.4265  0.4102
   6123SM   H5F 7832   4.369   4.520   6.601 -2.6443 -1.4371 -2.1800
   6123SM   H5G 7833   4.338   4.674   6.682  0.7136  0.2809  0.1941
   6123SM   C6F 7834   4.174   4.594   6.557  0.0155  0.6454 -0.1387
   6123SM   H6F 7835   4.093   4.643   6.614 -2.4861 -1.2688 -1.8194
   6123SM   H6G 7836   4.138   4.499   6.512  0.1900  1.3638 -1.9070
   6123SM   C7F 7837   4.207   4.689   6.432 -0.1873  0.0147  0.2714
   6123SM   H7F 7838   4.275   4.635   6.363  0.4027  0.9344  0.1063
   6123SM   H7G 7839   4.255   4.780   6.474 -3.8392  1.4572  1.7093
   6123SM   C8F 7840   4.087   4.717   6.342  0.1064 -0.0138  0.5489
   6123SM   H8F 7841   4.012   4.773   6.402  0.2561 -0.1308  0.8468
   6123SM   H8G 7842   4.035   4.625   6.308  0.3306 -0.7479  2.0793
   6123SM   C9F 7843   4.119   4.797   6.213  0.0935  0.0980  0.5029
   6123SM   H9F 7844   4.208   4.750   6.165 -2.1557 -2.5787 -1.4349
   6123SM   H9G 7845   4.142   4.903   6.235 -0.8474  0.5103 -0.4164
   6123SM  C10F 7846   4.005   4.787   6.102 -0.8871 -0.0796 -0.2557
   6123SM  H10F 7847   3.911   4.816   6.153 -0.5674  1.0103 -0.2446
   6123SM  H10G 7848   4.005   4.683   6.063 -0.2048 -0.8401  1.6401
   6123SM  C11F 7849   4.022   4.874   5.975 -0.4265 -0.2463  0.4741
   6123SM  H11F 7850   3.943   4.951   5.985 -1.0964 -0.9468  0.7382
   6123SM  H11G 7851   3.992   4.817   5.884 -0.0806  2.7078 -1.6122
   6123SM  C12F 7852   4.156   4.929   5.950 -0.1253 -0.0756  0.3903
   6123SM  H12F 7853   4.220   4.840   5.929 -1.4006 -0.7678 -0.7856
   6123SM  H12G 7854   4.191   4.984   6.039  1.3576  0.3437 -0.4187
   6123SM  C13F 7855   4.141   5.022   5.827  0.4663 -0.1298 -0.3116
   6123SM  H13F 7856   4.051   5.087   5.835  0.1024 -0.5570 -0.8329
   6123SM  H13G 7857   4.107   4.953   5.746  1.5124 -1.2706  0.1823
   6123SM  C14F 7858   4.261   5.111   5.793 -0.3923  0.3266 -0.3315
   6123SM  H14F 7859   4.344   5.039   5.774 -2.3421 -1.4214 -2.8311
   6123SM  H14G 7860   4.274   5.165   5.889  0.0210 -0.2063 -0.0823
   6123SM  C15F 7861   4.240   5.209   5.671  0.7909 -0.5334 -0.7139
   6123SM  H15F 7862   4.142   5.261   5.680  0.4055 -0.6789 -3.4652
   6123SM  H15G 7863   4.236   5.139   5.585  0.5826 -0.6327 -0.6257
   6123SM  C16F 7864   4.345   5.316   5.663 -0.1590  0.4074 -0.3921
   6123SM  H16F 7865   4.443   5.271   5.638 -1.5811 -2.2467 -1.6510
   6123SM  H16G 7866   4.344   5.371   5.760  0.4217 -0.4794  0.1285
   6123SM  C17F 7867   4.316   5.420   5.554  0.4112  0.0730  0.7231
   6123SM  H17F 7868   4.387   5.504   5.573 -0.8404  1.2145  0.4800
   6123SM  H17G 7869   4.214   5.462   5.552 -1.0040 -3.0574 -0.9876
   6123SM  C18F 7870   4.339   5.370   5.402 -0.3039  0.7660 -0.3643
   6123SM  H18F 7871   4.265   5.301   5.356 -1.4203  0.6913  1.4344
   6123SM  H18G 7872   4.428   5.304   5.405 -0.8291  0.0525 -0.1873
   6123SM  C19F 7873   4.363   5.487   5.311 -0.1918  0.0391  1.1356
   6123SM  H19F 7874   4.446   5.548   5.355 -0.2864  0.6057  0.5441
   6123SM  H19G 7875   4.277   5.557   5.303  0.5437  0.7267 -2.2951
   6123SM  C20F 7876   4.409   5.457   5.167  0.2765 -0.0938 -0.4802
   6123SM  H20F 7877   4.330   5.390   5.126 -0.2708 -1.6788  2.7824
   6123SM  H20G 7878   4.493   5.384   5.172 -0.8340 -1.4598 -1.0849
   6123SM  C21F 7879   4.437   5.582   5.084  0.1364  0.5572  0.1925
   6123SM  H21F 7880   4.524   5.630   5.134  0.9562 -1.0161  0.3522
   6123SM  H21G 7881   4.342   5.638   5.095 -2.3136 -2.8598 -1.6043
   6123SM  C22F 7882   4.461   5.557   4.940 -0.4884 -0.4988 -0.6439
   6123SM  H22F 7883   4.561   5.508   4.943 -1.0209 -1.5556  0.9536
   6123SM  H22G 7884   4.464   5.662   4.903 -2.0877 -0.5219 -0.8712
   6123SM  C23F 7885   4.371   5.469   4.854 -0.5741  0.3993  0.5373
   6123SM  H23F 7886   4.393   5.363   4.880 -1.3896  0.1354  0.1858
   6123SM  H23G 7887   4.388   5.470   4.744  1.2671 -2.1457  0.6988
   6123SM  H23H 7888   4.265   5.499   4.870 -1.7515 -2.1878 -1.5414
   6223SM     N 7889   4.436   3.903   7.606  0.6592  0.3122  0.1194
   6223SM   C15 7890   4.351   3.816   7.690 -0.3213 -0.1933  0.3579
   6223SM  H15A 7891   4.283   3.873   7.752 -0.1013  0.3533  0.1045
   6223SM  H15B 7892   4.415   3.740   7.732 -1.1357 -1.8550 -1.2961
   6223SM  H15C 7893   4.290   3.751   7.629  3.2089 -3.2247 -0.2988
   6223SM   C14 7894   4.340   4.005   7.548  0.2195  0.1356 -0.2696
   6223SM  H14A 7895   4.408   4.068   7.493 -0.3119  0.2824 -0.7626
   6223SM  H14B 7896   4.301   4.058   7.634  4.2291  0.1582  1.7870
   6223SM  H14C 7897   4.262   3.975   7.480 -0.1236  2.3140 -0.9022
   6223SM   C13 7898   4.535   3.985   7.686 -0.2158  0.1508 -0.2939
   6223SM  H13A 7899   4.613   3.921   7.725  0.7488 -0.1464 -2.5468
   6223SM  H13B 7900   4.484   4.049   7.756  0.6026 -0.2267  0.6723
   6223SM  H13C 7901   4.599   4.042   7.621  2.8622 -2.9999 -0.3199
   6223SM   C12 7902   4.500   3.836   7.496 -0.1103 -0.6938  0.6941
   6223SM  H12A 7903   4.566   3.757   7.527  1.4488 -0.7981 -2.5338
   6223SM  H12B 7904   4.559   3.902   7.434  0.4696 -1.1685  0.7358
   6223SM   C11 7905   4.409   3.758   7.399 -0.2281  0.5514  0.0079
   6223SM  H11A 7906   4.484   3.706   7.335 -0.3828  0.3089  0.0243
   6223SM  H11B 7907   4.349   3.832   7.342 -2.6315  0.1549  1.8610
   6223SM     P 7908   4.182   3.609   7.448  0.2754 -0.2230  0.0020
   6223SM   O13 7909   4.165   3.478   7.521  0.0939 -0.1606  1.0277
   6223SM   O14 7910   4.100   3.725   7.482  0.5849  0.4512 -0.1537
   6223SM   O11 7911   4.163   3.580   7.289 -0.2609  0.0443  0.4143
   6223SM   O12 7912   4.334   3.651   7.462 -0.0067 -0.0834  0.1572
   6223SM   C1S 7913   4.261   3.501   7.225 -0.3525  0.7627  0.5803
   6223SM   H1S 7914   4.251   3.400   7.271 -0.2732  0.4164 -0.1435
   6223SM   H1T 7915   4.367   3.528   7.244 -0.3595  0.3301  1.2763
   6223SM    NF 7916   4.259   3.354   7.025  0.4027  0.6596 -0.0342
   6223SM   HNF 7917   4.337   3.341   6.964 -1.8642 -2.3300 -2.6089
   6223SM   C2S 7918   4.225   3.488   7.063  0.2080  0.4346 -0.1543
   6223SM   H2S 7919   4.115   3.497   7.058  0.2312  0.8274  0.0104
   6223SM   C3S 7920   4.298   3.598   6.991 -0.1063 -0.2767 -0.2974
   6223SM   H3S 7921   4.406   3.570   6.989  0.4252  1.6684 -0.7965
   6223SM    O3 7922   4.308   3.730   7.057  0.2322 -0.4082 -0.0871
   6223SM   HO3 7923   4.258   3.716   7.138  1.3640 -1.0489  0.5310
   6223SM   C4S 7924   4.256   3.620   6.851  0.0076 -0.2469  0.0623
   6223SM   H4S 7925   4.322   3.567   6.780  1.5972  0.0510  1.2753
   6223SM   C5S 7926   4.160   3.705   6.810 -0.4374  0.2394 -0.3160
   6223SM   H5S 7927   4.112   3.767   6.887 -0.0395 -0.6269  0.6572
   6223SM   C6S 7928   4.143   3.745   6.668 -0.4421 -0.1664  0.2860
   6223SM   H6S 7929   4.129   3.855   6.670 -0.0044 -0.1113  2.0915
   6223SM   H6T 7930   4.057   3.690   6.625 -0.9469 -0.1916  1.3073
   6223SM   C7S 7931   4.261   3.694   6.579  0.0389  0.2607 -0.1308
   6223SM   H7S 7932   4.266   3.584   6.591 -2.0413  0.2167  0.8751
   6223SM   H7T 7933   4.353   3.735   6.626  0.5325 -0.0323 -0.8256
   6223SM   C8S 7934   4.242   3.744   6.430  0.7453  0.0335 -0.0974
   6223SM   H8S 7935   4.201   3.847   6.427 -2.6363 -1.1529  0.8232
   6223SM   H8T 7936   4.161   3.685   6.382  2.4180  0.3471 -3.6107
   6223SM   C9S 7937   4.372   3.717   6.352  0.5737 -0.3195 -0.3108
   6223SM   H9S 7938   4.355   3.698   6.243  1.5286 -2.7909 -0.0976
   6223SM   H9T 7939   4.417   3.622   6.387 -3.2443 -2.1296  0.1810
   6223SM  C10S 7940   4.473   3.834   6.362 -0.1904 -0.5940 -0.2699
   6223SM  H10S 7941   4.479   3.876   6.465 -0.0292  0.0221 -0.5237
   6223SM  H10T 7942   4.431   3.915   6.299 -0.9004  0.4187  1.4213
   6223SM  C11S 7943   4.616   3.788   6.324  1.0909 -0.0136  1.0157
   6223SM  H11S 7944   4.655   3.698   6.376  3.9018  1.4707  1.6519
   6223SM  H11T 7945   4.687   3.872   6.329 -0.4618  1.5963 -1.6833
   6223SM  C12S 7946   4.620   3.754   6.179 -0.0850 -0.1307  0.5156
   6223SM  H12S 7947   4.613   3.847   6.118  1.2989 -0.7204 -0.6124
   6223SM  H12T 7948   4.534   3.698   6.137 -1.3188  2.4511 -0.6436
   6223SM  C13S 7949   4.748   3.687   6.138 -0.8824 -0.5343 -0.3890
   6223SM  H13S 7950   4.756   3.581   6.172  1.0040 -0.4043 -0.3557
   6223SM  H13T 7951   4.829   3.730   6.199 -0.9569 -1.6554  0.5348
   6223SM  C14S 7952   4.789   3.679   5.992 -0.0099 -0.0158 -0.1297
   6223SM  H14S 7953   4.898   3.663   5.980 -0.0021  0.5584 -0.8658
   6223SM  H14T 7954   4.751   3.773   5.948 -1.7323 -0.3472  0.5654
   6223SM  C15S 7955   4.712   3.565   5.923 -0.2946 -0.1014 -0.1034
   6223SM  H15S 7956   4.603   3.584   5.935 -0.4805  0.8371 -2.6034
   6223SM  H15T 7957   4.734   3.469   5.974  2.2322  1.7223  2.5729
   6223SM  C16S 7958   4.732   3.537   5.768 -0.5992 -0.1212 -0.3365
   6223SM  H16S 7959   4.837   3.507   5.751 -0.3981  0.6371 -0.4598
   6223SM  H16T 7960   4.727   3.636   5.718 -0.3805 -0.1587 -0.4332
   6223SM  C17S 7961   4.625   3.444   5.713  0.8841 -0.2093  0.0118
   6223SM  H17S 7962   4.596   3.481   5.613  2.9693 -0.4222 -0.7253
   6223SM  H17T 7963   4.536   3.451   5.780  0.0791  1.5480 -1.1779
   6223SM  C18S 7964   4.667   3.294   5.701  0.1963 -0.4643 -0.3945
   6223SM  H18S 7965   4.584   3.234   5.658 -1.5878  1.8128 -0.3164
   6223SM  H18T 7966   4.708   3.249   5.795 -0.1115  0.4496  0.1929
   6223SM  H18U 7967   4.751   3.292   5.629  1.0109  0.9498  0.4582
   6223SM   C1F 7968   4.173   3.257   7.059  0.0697 -0.1242 -0.3027
   6223SM    OF 7969   4.077   3.274   7.128 -0.0615 -0.2615  0.1723
   6223SM   C2F 7970   4.208   3.120   7.008  0.0676  0.4422 -0.2364
   6223SM   H2F 7971   4.147   3.055   7.075 -0.3611 -0.3777 -1.3955
   6223SM   H2G 7972   4.316   3.101   7.021  0.3821  0.8609 -2.0470
   6223SM   C3F 7973   4.172   3.100   6.857 -0.6205  0.3744  0.3883
   6223SM   H3F 7974   4.061   3.111   6.851 -0.8187 -1.1777  0.8105
   6223SM   H3G 7975   4.190   2.993   6.837  1.2132  0.8859 -0.9492
   6223SM   C4F 7976   4.237   3.192   6.748  0.3447  0.4020  0.2935
   6223SM   H4F 7977   4.342   3.156   6.744 -0.1342 -0.9820 -1.3042
   6223SM   H4G 7978   4.231   3.299   6.774 -0.8311  0.4378 -0.0639
   6223SM   C5F 7979   4.177   3.168   6.605 -0.4872 -0.0276  0.4373
   6223SM   H5F 7980   4.068   3.184   6.598 -0.5725 -0.4516  0.7723
   6223SM   H5G 7981   4.184   3.060   6.580 -1.1273  0.3246 -1.3700
   6223SM   C6F 7982   4.242   3.261   6.503 -0.2863 -0.7281 -0.7565
   6223SM   H6F 7983   4.350   3.239   6.487 -0.4688  0.0114 -3.3877
   6223SM   H6G 7984   4.231   3.363   6.545  2.5004  0.0549 -1.7237
   6223SM   C7F 7985   4.175   3.266   6.366  0.8982 -0.2885  0.3038
   6223SM   H7F 7986   4.073   3.309   6.370  1.5516  1.3322  0.2807
   6223SM   H7G 7987   4.176   3.161   6.328 -0.5779 -0.1753 -0.0987
   6223SM   C8F 7988   4.268   3.331   6.258  0.3691 -0.1210  0.7405
   6223SM   H8F 7989   4.375   3.305   6.272 -0.0344 -0.7774  2.9949
   6223SM   H8G 7990   4.271   3.442   6.267  0.5828  0.1168 -1.6785
   6223SM   C9F 7991   4.203   3.306   6.122 -0.5379  0.5228  0.5415
   6223SM   H9F 7992   4.101   3.349   6.118 -0.2528  1.0945 -1.4106
   6223SM   H9G 7993   4.190   3.196   6.121  1.7590  0.1500 -2.3535
   6223SM  C10F 7994   4.284   3.358   6.001  0.1879 -0.1629 -0.3841
   6223SM  H10F 7995   4.391   3.365   6.033 -0.2585 -0.7756  1.3283
   6223SM  H10G 7996   4.263   3.466   5.982 -0.7999 -0.2887 -0.0431
   6223SM  C11F 7997   4.286   3.272   5.877 -0.2994  0.2405  0.2829
   6223SM  H11F 7998   4.272   3.165   5.903  1.9490 -0.0936  0.3462
   6223SM  H11G 7999   4.387   3.292   5.834  0.8976 -2.0035  1.8300
   6223SM  C12F 8000   4.176   3.327   5.788 -0.1782  0.2819  0.0564
   6223SM  H12F 8001   4.186   3.437   5.775  0.2922  0.5552  2.3624
   6223SM  H12G 8002   4.080   3.291   5.832 -0.2675  3.7055  3.1479
   6223SM  C13F 8003   4.194   3.283   5.639 -0.3150 -0.0006 -0.4677
   6223SM  H13F 8004   4.210   3.173   5.644  1.0805  0.2085  0.3696
   6223SM  H13G 8005   4.294   3.321   5.609  0.4537  1.0975  2.9602
   6223SM  C14F 8006   4.082   3.323   5.548 -0.0640  0.0602  0.0124
   6223SM  H14F 8007   4.057   3.430   5.564 -3.2918 -0.6796  0.5599
   6223SM  H14G 8008   4.002   3.252   5.578  0.5992 -1.5710 -1.8005
   6223SM  C15F 8009   4.102   3.299   5.398  0.2017 -0.0873  0.0223
   6223SM  H15F 8010   4.140   3.195   5.390  0.7441  0.1118 -0.0468
   6223SM  H15G 8011   4.173   3.377   5.363  0.4726  0.8115  2.3544
   6223SM  C16F 8012   3.979   3.306   5.313  0.6564  0.5366 -0.5600
   6223SM  H16F 8013   3.898   3.248   5.362  1.2357  0.0459 -0.1616
   6223SM  H16G 8014   4.000   3.249   5.219 -1.4499 -1.0639 -0.1329
   6223SM  C17F 8015   3.940   3.447   5.291  0.0437 -0.3964  0.8891
   6223SM  H17F 8016   3.945   3.521   5.373 -1.6752  1.8178 -0.8918
   6223SM  H17G 8017   3.834   3.445   5.260  0.1775 -0.3218  0.4157
   6223SM  C18F 8018   4.014   3.497   5.160  0.2420 -0.7436 -0.3305
   6223SM  H18F 8019   4.015   3.412   5.089 -2.2349 -0.3896 -0.8939
   6223SM  H18G 8020   4.116   3.528   5.191  0.0225 -1.6910  1.4919
   6223SM  C19F 8021   3.947   3.621   5.098  0.1127  0.1929 -0.0316
   6223SM  H19F 8022   3.964   3.717   5.152  1.0402  1.7522 -2.8318
   6223SM  H19G 8023   3.838   3.601   5.090 -0.2414  2.0122 -0.3754
   6223SM  C20F 8024   3.995   3.653   4.957  0.3163  0.0378 -0.4716
   6223SM  H20F 8025   4.106   3.652   4.967  0.5309  1.3116 -2.1912
   6223SM  H20G 8026   3.972   3.758   4.928  1.1986  0.4653  0.3131
   6223SM  C21F 8027   3.966   3.552   4.846  0.2979  0.2822  0.1998
   6223SM  H21F 8028   3.856   3.551   4.833  0.3234  0.3427 -0.0241
   6223SM  H21G 8029   4.006   3.449   4.859  2.7505  1.2435  0.8961
   6223SM  C22F 8030   4.010   3.607   4.710  0.2921 -0.4156  0.6629
   6223SM  H22F 8031   4.120   3.625   4.702  0.1550 -0.1422 -1.2379
   6223SM  H22G 8032   3.966   3.707   4.691  0.0123 -0.7348 -0.4477
   6223SM  C23F 8033   3.978   3.510   4.593  0.4103 -0.3043  0.0023
   6223SM  H23F 8034   4.039   3.419   4.613 -0.8280 -0.7367  2.2000
   6223SM  H23G 8035   4.021   3.575   4.514  1.8104  1.4960  2.1432
   6223SM  H23H 8036   3.870   3.485   4.587  0.2665 -0.1488  1.5842
   6323SM     N 8037   5.974   6.654   7.064 -0.0410 -0.3045 -1.1236
   6323SM   C15 8038   5.979   6.790   7.141  0.7846 -0.1490  0.0109
   6323SM  H15A 8039   5.893   6.798   7.205  1.0612 -0.8970  0.4883
   6323SM  H15B 8040   5.992   6.867   7.066  1.4822 -1.8301 -1.6747
   6323SM  H15C 8041   6.066   6.799   7.204  0.4544 -1.4890  0.6917
   6323SM   C14 8042   6.108   6.642   7.004 -0.5794 -0.0900 -0.2032
   6323SM  H14A 8043   6.117   6.721   6.930  0.9771  0.4744  0.5438
   6323SM  H14B 8044   6.129   6.546   6.959 -0.0805 -0.0237 -0.1185
   6323SM  H14C 8045   6.189   6.669   7.070 -0.6903  1.1488 -0.5448
   6323SM   C13 8046   5.956   6.555   7.167  0.2832  0.1003 -0.0118
   6323SM  H13A 8047   6.024   6.566   7.250 -0.9597  1.6226  0.8500
   6323SM  H13B 8048   5.975   6.460   7.119  1.2313  0.6827 -0.8312
   6323SM  H13C 8049   5.858   6.559   7.212  0.2109 -1.6999  0.0649
   6323SM   C12 8050   5.862   6.653   6.968 -0.1715  0.0720 -0.1368
   6323SM  H12A 8051   5.856   6.750   6.922  1.6921 -0.1760 -0.9822
   6323SM  H12B 8052   5.773   6.638   7.028 -0.0622 -0.8777 -0.2010
   6323SM   C11 8053   5.853   6.538   6.858 -0.6136  0.2014  0.7025
   6323SM  H11A 8054   5.952   6.529   6.808  0.2385  2.8125  1.7229
   6323SM  H11B 8055   5.778   6.580   6.788  0.6780  3.2262  0.9631
   6323SM     P 8056   5.784   6.291   6.822  0.1959  0.3619  0.1850
   6323SM   O13 8057   5.832   6.163   6.880 -0.1084 -0.6677 -0.3957
   6323SM   O14 8058   5.640   6.302   6.790  0.0618  0.2844 -0.4790
   6323SM   O11 8059   5.856   6.313   6.687 -1.0278  0.2678 -0.1914
   6323SM   O12 8060   5.819   6.416   6.911  0.0189  0.0545  0.3664
   6323SM   C1S 8061   5.888   6.210   6.591 -0.2702 -0.1431  0.2594
   6323SM   H1S 8062   5.804   6.139   6.576  1.8137 -2.4221 -1.4351
   6323SM   H1T 8063   5.969   6.143   6.627 -1.8237 -2.6272 -0.6156
   6323SM    NF 8064   5.910   6.174   6.355 -0.0485  0.0729 -0.7465
   6323SM   HNF 8065   5.986   6.113   6.334 -1.2875 -1.5818 -0.6943
   6323SM   C2S 8066   5.934   6.275   6.455 -0.5949 -0.0609  0.7111
   6323SM   H2S 8067   5.870   6.362   6.429 -2.7123 -1.3454  1.4195
   6323SM   C3S 8068   6.087   6.320   6.469 -0.1497  0.1742 -0.1558
   6323SM   H3S 8069   6.146   6.227   6.481 -0.5570 -0.3452 -1.8589
   6323SM    O3 8070   6.100   6.409   6.588 -0.6551  0.2777 -0.2481
   6323SM   HO3 8071   6.016   6.401   6.634 -2.0035 -0.7928 -2.6497
   6323SM   C4S 8072   6.143   6.389   6.349  0.5107  0.3354 -0.1896
   6323SM   H4S 8073   6.097   6.488   6.335  0.2653  0.1739 -0.5690
   6323SM   C5S 8074   6.231   6.342   6.255  0.0673 -0.1238 -0.2011
   6323SM   H5S 8075   6.286   6.249   6.276 -0.5234 -0.7434 -1.3283
   6323SM   C6S 8076   6.276   6.415   6.135 -0.1373  0.1820 -0.5387
   6323SM   H6S 8077   6.369   6.365   6.099  0.8203  1.4953  0.0126
   6323SM   H6T 8078   6.312   6.519   6.156 -1.0420  0.8165 -1.9753
   6323SM   C7S 8079   6.171   6.406   6.013 -0.2080  0.0586 -0.8303
   6323SM   H7S 8080   6.087   6.471   6.044  2.4986  1.9819  3.4997
   6323SM   H7T 8081   6.135   6.301   6.025  0.6418  0.0796  3.7864
   6323SM   C8S 8082   6.227   6.446   5.876  0.2926 -0.6004  0.5167
   6323SM   H8S 8083   6.141   6.445   5.806  0.8861 -2.4691 -0.2205
   6323SM   H8T 8084   6.294   6.365   5.841  0.4928 -0.0413 -0.4208
   6323SM   C9S 8085   6.299   6.586   5.873 -0.0725  0.1331  0.3250
   6323SM   H9S 8086   6.399   6.593   5.921  0.3685  0.7536 -0.6547
   6323SM   H9T 8087   6.229   6.656   5.924  0.6737  0.3849  1.0343
   6323SM  C10S 8088   6.320   6.616   5.725 -0.1578 -0.8389 -0.3184
   6323SM  H10S 8089   6.223   6.593   5.676 -1.3429  1.6223  0.6739
   6323SM  H10T 8090   6.391   6.543   5.680  0.9593 -0.8235  1.3208
   6323SM  C11S 8091   6.366   6.762   5.708 -0.2255  0.0498 -0.0185
   6323SM  H11S 8092   6.448   6.773   5.781  0.3559  0.5355 -0.7271
   6323SM  H11T 8093   6.283   6.832   5.734  1.6344  2.1211  0.5869
   6323SM  C12S 8094   6.421   6.796   5.572 -0.4688 -0.9270  0.2403
   6323SM  H12S 8095   6.357   6.760   5.489 -1.7552  0.9832  0.3445
   6323SM  H12T 8096   6.506   6.725   5.578  0.7933  0.5310  0.3286
   6323SM  C13S 8097   6.470   6.942   5.547 -0.1754 -0.0512  0.1811
   6323SM  H13S 8098   6.545   6.969   5.470  1.0259  0.5705  1.5161
   6323SM  H13T 8099   6.495   6.986   5.646 -3.0685  1.1697  0.4717
   6323SM  C14S 8100   6.339   7.020   5.500  0.7010 -0.3621  0.8045
   6323SM  H14S 8101   6.261   7.038   5.577 -2.0831  0.8140 -2.0875
   6323SM  H14T 8102   6.293   6.961   5.418  3.6088 -0.6729 -0.7347
   6323SM  C15S 8103   6.366   7.160   5.441  0.0260 -0.4078  0.4699
   6323SM  H15S 8104   6.447   7.151   5.366  0.4530  1.3361  0.6821
   6323SM  H15T 8105   6.410   7.221   5.523  0.6976 -0.8552  0.4483
   6323SM  C16S 8106   6.233   7.218   5.399  0.1297  0.6872 -0.6961
   6323SM  H16S 8107   6.159   7.212   5.482  3.6990 -2.7505  2.7052
   6323SM  H16T 8108   6.195   7.164   5.310  1.6415  1.9021 -2.1490
   6323SM  C17S 8109   6.246   7.364   5.355  0.1181 -0.0048  0.1935
   6323SM  H17S 8110   6.317   7.372   5.269 -0.6922 -0.8854 -0.5773
   6323SM  H17T 8111   6.298   7.423   5.434  1.9636 -1.1557 -0.0922
   6323SM  C18S 8112   6.113   7.417   5.316 -0.0469 -0.5143 -0.2833
   6323SM  H18S 8113   6.125   7.516   5.266 -1.7546 -0.5653 -0.8578
   6323SM  H18T 8114   6.050   7.441   5.404  1.6764  0.4911  0.7437
   6323SM  H18U 8115   6.062   7.354   5.241  1.1977 -0.4963 -1.1880
   6323SM   C1F 8116   5.791   6.161   6.294  0.1310 -0.2122  0.8589
   6323SM    OF 8117   5.692   6.204   6.350 -0.3920  0.9085  0.0992
   6323SM   C2F 8118   5.778   6.088   6.165 -0.6913 -0.1662  0.6069
   6323SM   H2F 8119   5.771   5.980   6.192  1.2131 -0.6858 -0.7226
   6323SM   H2G 8120   5.871   6.100   6.105  0.1159 -0.2504  1.7867
   6323SM   C3F 8121   5.656   6.126   6.078  0.4006 -0.2555  0.2676
   6323SM   H3F 8122   5.661   6.237   6.070 -2.9748 -0.0863 -1.0979
   6323SM   H3G 8123   5.564   6.092   6.130 -2.0089  5.0605  0.2181
   6323SM   C4F 8124   5.674   6.069   5.940  0.1078 -0.3309  0.5467
   6323SM   H4F 8125   5.685   5.958   5.936 -0.2589 -0.4873  2.7962
   6323SM   H4G 8126   5.756   6.117   5.882 -0.9982  0.8410 -0.0968
   6323SM   C5F 8127   5.557   6.088   5.837  0.5389  0.1089  0.0655
   6323SM   H5F 8128   5.535   6.197   5.831  0.2195  0.0493  0.1427
   6323SM   H5G 8129   5.469   6.038   5.881  0.1333 -0.3687 -1.2548
   6323SM   C6F 8130   5.598   6.030   5.704 -0.8648 -0.7517  0.1077
   6323SM   H6F 8131   5.654   5.933   5.698  1.4769  0.5525 -0.6799
   6323SM   H6G 8132   5.670   6.104   5.663 -1.2727  0.2894  1.2305
   6323SM   C7F 8133   5.486   6.017   5.601 -0.7136 -0.3029  0.0133
   6323SM   H7F 8134   5.413   6.101   5.588  0.5636  0.5348 -2.2675
   6323SM   H7G 8135   5.425   5.932   5.638 -1.6210  0.5046  0.4253
   6323SM   C8F 8136   5.533   5.991   5.459 -0.1269 -0.1078  0.6290
   6323SM   H8F 8137   5.614   5.916   5.456 -0.5176 -0.5072 -0.9175
   6323SM   H8G 8138   5.579   6.084   5.420 -0.3557  0.2106  1.1013
   6323SM   C9F 8139   5.422   5.951   5.369  0.4506 -0.4618  0.0790
   6323SM   H9F 8140   5.457   5.959   5.264  0.5639 -1.1415  0.0622
   6323SM   H9G 8141   5.349   6.034   5.377  1.5557  0.7370 -1.6519
   6323SM  C10F 8142   5.365   5.812   5.410  0.2313 -0.9488  0.2229
   6323SM  H10F 8143   5.345   5.785   5.516 -1.8528  0.5726  0.2714
   6323SM  H10G 8144   5.455   5.748   5.410  0.9435  0.0308 -0.0594
   6323SM  C11F 8145   5.252   5.760   5.313 -0.3851  0.4835 -0.4111
   6323SM  H11F 8146   5.265   5.825   5.224  0.3285  2.4661  1.0459
   6323SM  H11G 8147   5.153   5.776   5.360 -0.7584 -1.0824 -0.6230
   6323SM  C12F 8148   5.273   5.614   5.282  0.1508  0.4616 -0.4746
   6323SM  H12F 8149   5.170   5.572   5.276  0.6304 -0.5237 -3.9056
   6323SM  H12G 8150   5.331   5.564   5.363 -2.1975  0.2608  1.1925
   6323SM  C13F 8151   5.340   5.593   5.148 -0.2322 -0.0382 -0.3394
   6323SM  H13F 8152   5.443   5.636   5.150  0.6922 -1.7468 -3.6198
   6323SM  H13G 8153   5.286   5.655   5.074  0.1220  1.3353  0.5212
   6323SM  C14F 8154   5.341   5.444   5.104  0.6866 -0.6552 -0.0750
   6323SM  H14F 8155   5.385   5.430   5.003 -1.8756  1.4440 -1.6260
   6323SM  H14G 8156   5.237   5.406   5.102 -0.1360  1.4201  0.7014
   6323SM  C15F 8157   5.427   5.343   5.194  0.2503 -0.0006 -0.6631
   6323SM  H15F 8158   5.392   5.239   5.177  1.8708 -0.5246 -0.9682
   6323SM  H15G 8159   5.415   5.366   5.302 -0.2953  0.2834 -0.7810
   6323SM  C16F 8160   5.570   5.342   5.152  0.0931 -0.1826 -1.0124
   6323SM  H16F 8161   5.643   5.356   5.235 -0.2703  2.7056 -1.0692
   6323SM  H16G 8162   5.596   5.431   5.090  0.4957 -0.4510 -1.2354
   6323SM  C17F 8163   5.614   5.216   5.078  0.0627 -0.2615 -0.3501
   6323SM  H17F 8164   5.717   5.238   5.041 -0.5513  2.2402 -0.7334
   6323SM  H17G 8165   5.549   5.184   4.994  0.4990 -0.5458 -0.5883
   6323SM  C18F 8166   5.636   5.098   5.166 -0.2511  0.4964 -0.1313
   6323SM  H18F 8167   5.570   5.106   5.255 -3.3095  1.9262 -2.3849
   6323SM  H18G 8168   5.741   5.097   5.202  0.1115 -0.4004 -1.1520
   6323SM  C19F 8169   5.631   4.964   5.101  0.2896 -0.1528  0.2041
   6323SM  H19F 8170   5.708   4.897   5.144  1.1144 -0.5245 -1.7538
   6323SM  H19G 8171   5.667   4.986   4.999  0.7891  0.1626  0.4431
   6323SM  C20F 8172   5.493   4.902   5.098  0.0286  0.5445  0.6295
   6323SM  H20F 8173   5.422   4.969   5.045 -1.9694 -1.0921  1.0973
   6323SM  H20G 8174   5.456   4.884   5.202 -0.5062  1.8211  0.6842
   6323SM  C21F 8175   5.483   4.771   5.016 -0.0990  0.2663  0.1553
   6323SM  H21F 8176   5.528   4.685   5.071  0.2048 -0.1746 -0.7669
   6323SM  H21G 8177   5.538   4.801   4.924 -1.5887  2.1139 -0.1698
   6323SM  C22F 8178   5.339   4.744   4.965 -0.1945  0.0690  0.2682
   6323SM  H22F 8179   5.339   4.663   4.890  0.4888 -1.5234  1.9054
   6323SM  H22G 8180   5.294   4.839   4.929 -1.0989  0.1161  1.4527
   6323SM  C23F 8181   5.254   4.685   5.082  0.3463 -0.3472 -0.6266
   6323SM  H23F 8182   5.159   4.659   5.031  2.0055 -2.1243 -3.1132
   6323SM  H23G 8183   5.250   4.754   5.169 -1.4709 -2.0006  0.6763
   6323SM  H23H 8184   5.294   4.584   5.104 -0.5836 -0.1908  2.0937
   6423SM     N 8185   6.158   4.130   7.415 -0.0048 -0.4011  0.2009
   6423SM   C15 8186   6.168   4.108   7.266  0.0368 -0.0545 -0.1220
   6423SM  H15A 8187   6.112   4.019   7.241 -1.5042 -0.0430  2.7871
   6423SM  H15B 8188   6.268   4.091   7.230 -1.1481 -2.0961 -2.7798
   6423SM  H15C 8189   6.123   4.191   7.214 -0.0655  0.8511  1.3498
   6423SM   C14 8190   6.267   4.235   7.446 -0.8758 -0.4474 -0.1426
   6423SM  H14A 8191   6.254   4.325   7.388 -0.3214  0.8918  1.7203
   6423SM  H14B 8192   6.369   4.201   7.440 -0.0856  1.3982  1.7965
   6423SM  H14C 8193   6.247   4.267   7.547  0.4685 -0.8020  0.2585
   6423SM   C13 8194   6.024   4.206   7.441 -0.8181  0.0964 -0.4293
   6423SM  H13A 8195   6.030   4.299   7.385  2.3855 -0.2612 -0.8671
   6423SM  H13B 8196   6.002   4.234   7.543 -0.8479  1.9627 -0.9059
   6423SM  H13C 8197   5.945   4.144   7.402 -1.6898 -0.1204  1.5700
   6423SM   C12 8198   6.189   4.001   7.498 -0.2606 -0.2073  0.5455
   6423SM  H12A 8199   6.190   4.038   7.599 -1.3692  0.0925  0.4640
   6423SM  H12B 8200   6.290   3.972   7.472 -0.3616 -0.6771  0.6640
   6423SM   C11 8201   6.095   3.882   7.487 -0.2394  0.7528  0.0053
   6423SM  H11A 8202   6.027   3.886   7.399  1.1531 -1.1142 -1.2158
   6423SM  H11B 8203   6.020   3.882   7.569  0.4408 -1.3093  0.6999
   6423SM     P 8204   6.200   3.690   7.348  0.0383 -0.2144  0.1302
   6423SM   O13 8205   6.336   3.630   7.361  0.1716  0.2416 -0.3459
   6423SM   O14 8206   6.089   3.599   7.307  0.1426 -0.0784  0.1199
   6423SM   O11 8207   6.209   3.808   7.241 -0.6520  0.4824  0.3819
   6423SM   O12 8208   6.168   3.757   7.488 -0.1077 -0.2718  0.1979
   6423SM   C1S 8209   6.280   3.801   7.117  0.4978  0.0611  0.2776
   6423SM   H1S 8210   6.380   3.753   7.128  0.6753  0.2205 -0.5718
   6423SM   H1T 8211   6.298   3.907   7.090  1.8554 -0.5657 -1.3973
   6423SM    NF 8212   6.266   3.721   6.885 -0.3811  0.2821  0.4803
   6423SM   HNF 8213   6.229   3.776   6.811  2.7847  2.2860  0.1666
   6423SM   C2S 8214   6.194   3.742   7.003  0.2197  0.2482 -0.2166
   6423SM   H2S 8215   6.150   3.643   7.027 -0.6721  0.5674 -0.4771
   6423SM   C3S 8216   6.068   3.818   6.976  0.4098 -0.6465  0.5776
   6423SM   H3S 8217   6.093   3.902   6.908 -0.5427  0.8113  1.9637
   6423SM    O3 8218   6.004   3.868   7.089  0.3490  0.3304 -0.7866
   6423SM   HO3 8219   6.062   3.831   7.156 -0.9783 -0.0034  0.2297
   6423SM   C4S 8220   5.974   3.735   6.899  0.1484  0.5935  0.2309
   6423SM   H4S 8221   5.977   3.630   6.933  0.5666  1.5278  3.4717
   6423SM   C5S 8222   5.903   3.773   6.789 -0.5512  0.0627 -0.1446
   6423SM   H5S 8223   5.910   3.875   6.749  0.8604  0.1744  0.3476
   6423SM   C6S 8224   5.829   3.676   6.697  0.0448 -0.0980 -0.4030
   6423SM   H6S 8225   5.721   3.676   6.721  0.2623  1.7530  0.8333
   6423SM   H6T 8226   5.862   3.572   6.716  2.9873  0.9577  0.8601
   6423SM   C7S 8227   5.835   3.707   6.551 -0.0244  0.2869  0.0462
   6423SM   H7S 8228   5.942   3.724   6.526 -0.3881  1.5490 -0.7267
   6423SM   H7T 8229   5.774   3.797   6.532  1.9777  1.4896 -1.0324
   6423SM   C8S 8230   5.791   3.590   6.463  0.4205  0.2274 -0.1140
   6423SM   H8S 8231   5.685   3.562   6.482  0.4457  1.6353  2.6751
   6423SM   H8T 8232   5.849   3.502   6.499  0.0834  0.0181 -0.0765
   6423SM   C9S 8233   5.823   3.615   6.318  0.0104  0.3103 -0.0710
   6423SM   H9S 8234   5.932   3.635   6.312 -0.1590  1.4423  0.3380
   6423SM   H9T 8235   5.774   3.708   6.283  0.7873  0.1868 -1.5316
   6423SM  C10S 8236   5.782   3.489   6.234 -0.0104  0.3501  0.0058
   6423SM  H10S 8237   5.765   3.520   6.129 -1.7032  1.4085  0.5648
   6423SM  H10T 8238   5.683   3.445   6.258 -0.5304  0.8679 -1.1794
   6423SM  C11S 8239   5.882   3.377   6.238 -0.6273  0.0811  0.0104
   6423SM  H11S 8240   5.874   3.306   6.323  1.6395 -1.7692 -1.2123
   6423SM  H11T 8241   5.985   3.416   6.253 -0.0675 -1.2441 -0.2654
   6423SM  C12S 8242   5.881   3.291   6.119  0.4629  0.4200 -0.3270
   6423SM  H12S 8243   5.784   3.236   6.121 -0.6814  2.2236 -1.8860
   6423SM  H12T 8244   5.966   3.221   6.135 -1.1178 -1.3590  0.7564
   6423SM  C13S 8245   5.893   3.350   5.975  0.3878 -0.8778 -0.9165
   6423SM  H13S 8246   5.977   3.422   5.968  0.1663 -0.0414  3.1025
   6423SM  H13T 8247   5.794   3.396   5.958 -0.7192 -2.5142  0.7237
   6423SM  C14S 8248   5.914   3.245   5.867  0.0041  0.3741 -0.0528
   6423SM  H14S 8249   5.824   3.181   5.852  1.1389 -1.0709 -0.8541
   6423SM  H14T 8250   6.006   3.189   5.895 -0.3890  0.9301  2.6546
   6423SM  C15S 8251   5.949   3.306   5.725 -0.5767  0.7042 -0.5161
   6423SM  H15S 8252   6.049   3.354   5.734 -0.4492  0.4853 -0.7915
   6423SM  H15T 8253   5.858   3.368   5.719 -2.4695 -1.8540  0.0754
   6423SM  C16S 8254   5.960   3.210   5.609  0.0079 -0.5088  0.1736
   6423SM  H16S 8255   5.869   3.152   5.635  0.5593 -2.1333 -1.3649
   6423SM  H16T 8256   6.045   3.142   5.634  1.4658  1.3045  0.4181
   6423SM  C17S 8257   5.947   3.266   5.466 -0.5056 -0.0636 -0.1043
   6423SM  H17S 8258   6.034   3.333   5.455  0.2660 -0.6576  2.0168
   6423SM  H17T 8259   5.855   3.327   5.449 -0.8628 -0.2305  1.1547
   6423SM  C18S 8260   5.962   3.150   5.361  0.4033  0.3436  0.3298
   6423SM  H18S 8261   5.932   3.183   5.260 -2.1527 -0.3886  0.7822
   6423SM  H18T 8262   5.891   3.067   5.383 -0.5836  1.2054  0.4518
   6423SM  H18U 8263   6.065   3.107   5.358  0.1876 -0.1027 -1.7333
   6423SM   C1F 8264   6.366   3.640   6.878 -0.1965 -0.2610  0.0694
   6423SM    OF 8265   6.383   3.567   6.978  0.2941  0.5046  0.1079
   6423SM   C2F 8266   6.447   3.629   6.756  0.3405  0.0156 -0.0722
   6423SM   H2F 8267   6.387   3.653   6.665  1.0009  1.5492 -0.1258
   6423SM   H2G 8268   6.474   3.522   6.743 -1.2776 -0.2439 -1.8924
   6423SM   C3F 8269   6.572   3.722   6.760 -0.1268 -0.0489 -0.3343
   6423SM   H3F 8270   6.633   3.694   6.849 -0.2703 -1.2699 -0.6006
   6423SM   H3G 8271   6.534   3.825   6.777  1.7407  0.8597 -1.3797
   6423SM   C4F 8272   6.640   3.714   6.625 -0.4900 -0.6868  0.1456
   6423SM   H4F 8273   6.559   3.704   6.549 -1.0210  2.7485  0.1218
   6423SM   H4G 8274   6.698   3.619   6.614 -0.1403 -0.4977  0.3369
   6423SM   C5F 8275   6.734   3.832   6.591  0.0246  0.3730 -0.3721
   6423SM   H5F 8276   6.820   3.835   6.662  1.0267 -2.0866 -1.3690
   6423SM   H5G 8277   6.668   3.919   6.611 -0.5045 -0.5337  2.2576
   6423SM   C6F 8278   6.794   3.844   6.450  0.1121  0.1929 -0.0404
   6423SM   H6F 8279   6.855   3.752   6.441 -0.0052 -0.1429  2.0737
   6423SM   H6G 8280   6.873   3.921   6.438  1.7434 -1.4094 -0.0077
   6423SM   C7F 8281   6.696   3.830   6.331 -0.8477 -0.7269  0.5516
   6423SM   H7F 8282   6.613   3.901   6.350  0.5881  1.3007 -0.2700
   6423SM   H7G 8283   6.662   3.726   6.345  3.1261 -2.1143  1.1777
   6423SM   C8F 8284   6.756   3.863   6.189 -0.0545 -0.6979 -0.0573
   6423SM   H8F 8285   6.855   3.816   6.169 -0.3053 -0.2304 -2.8565
   6423SM   H8G 8286   6.787   3.969   6.182  0.6399 -0.9206 -0.3739
   6423SM   C9F 8287   6.664   3.834   6.073 -0.9690 -0.8631  0.4731
   6423SM   H9F 8288   6.569   3.890   6.081  0.0545  1.2964 -1.1806
   6423SM   H9G 8289   6.652   3.724   6.063  3.0513 -1.4556  0.4549
   6423SM  C10F 8290   6.727   3.870   5.935  0.0928 -0.3317  0.3047
   6423SM  H10F 8291   6.835   3.845   5.926  0.8430  2.0800  1.6687
   6423SM  H10G 8292   6.716   3.980   5.920 -0.1089 -0.6479 -2.2788
   6423SM  C11F 8293   6.653   3.809   5.813  1.2516  0.1293 -0.6274
   6423SM  H11F 8294   6.546   3.828   5.835  1.5817  1.1625  0.2234
   6423SM  H11G 8295   6.673   3.701   5.800  0.7305 -0.1472  0.7122
   6423SM  C12F 8296   6.697   3.874   5.685  0.5795 -0.3800  0.1977
   6423SM  H12F 8297   6.805   3.850   5.674  1.4742  2.5612  1.5449
   6423SM  H12G 8298   6.681   3.984   5.684  1.4701 -0.2538 -0.3962
   6423SM  C13F 8299   6.592   3.839   5.569 -0.2491 -0.0675  0.2278
   6423SM  H13F 8300   6.624   3.891   5.476  0.1511 -1.3034 -0.3528
   6423SM  H13G 8301   6.495   3.887   5.593 -1.1643  0.5520 -3.9128
   6423SM  C14F 8302   6.570   3.690   5.539 -0.4230  0.0187  0.1182
   6423SM  H14F 8303   6.501   3.694   5.452 -0.0806  0.5947 -0.1298
   6423SM  H14G 8304   6.518   3.643   5.625  0.6126  0.6402  1.1138
   6423SM  C15F 8305   6.696   3.612   5.503  0.1407  0.3164 -0.1318
   6423SM  H15F 8306   6.666   3.509   5.476  2.0836 -0.9297  2.0574
   6423SM  H15G 8307   6.763   3.590   5.589  0.6470 -2.0909 -1.0451
   6423SM  C16F 8308   6.772   3.660   5.380 -0.3942  0.2853  0.2220
   6423SM  H16F 8309   6.876   3.623   5.392 -0.8617 -1.6097 -1.1590
   6423SM  H16G 8310   6.790   3.770   5.377  1.9058 -0.0618 -1.6446
   6423SM  C17F 8311   6.720   3.610   5.244 -0.6352 -0.2482 -0.2616
   6423SM  H17F 8312   6.624   3.662   5.227 -0.8171 -0.0665  1.1809
   6423SM  H17G 8313   6.699   3.501   5.235 -1.3240 -0.0971 -0.5392
   6423SM  C18F 8314   6.810   3.636   5.118  0.4657  0.6894 -0.0817
   6423SM  H18F 8315   6.895   3.566   5.125 -0.8581 -0.9341  0.6061
   6423SM  H18G 8316   6.837   3.744   5.122 -0.3471  0.8757  1.1784
   6423SM  C19F 8317   6.724   3.625   4.992  0.1249  0.4474 -0.3885
   6423SM  H19F 8318   6.772   3.672   4.904 -1.6618 -0.9392 -2.1908
   6423SM  H19G 8319   6.630   3.681   5.012  0.2983  0.2911  0.9730
   6423SM  C20F 8320   6.700   3.478   4.947  0.1801 -0.2338 -0.8521
   6423SM  H20F 8321   6.645   3.421   5.025  0.4976  0.7561  0.1295
   6423SM  H20G 8322   6.791   3.419   4.923  1.2625  0.7455  0.6998
   6423SM  C21F 8323   6.628   3.477   4.812 -0.0500  0.4839 -0.1574
   6423SM  H21F 8324   6.692   3.524   4.734  1.5499 -1.9187 -0.3894
   6423SM  H21G 8325   6.534   3.535   4.820  0.7226  1.6157  1.4099
   6423SM  C22F 8326   6.601   3.330   4.770  0.2944  0.3022 -0.3976
   6423SM  H22F 8327   6.529   3.285   4.842  0.1572  0.3253 -0.5200
   6423SM  H22G 8328   6.698   3.276   4.760  0.4754  0.5613 -0.0831
   6423SM  C23F 8329   6.532   3.339   4.634 -0.7538  0.1224 -0.3756
   6423SM  H23F 8330   6.595   3.376   4.550 -0.8413 -2.7667 -1.8470
   6423SM  H23G 8331   6.440   3.401   4.649 -0.5636  0.0389  1.3499
   6423SM  H23H 8332   6.502   3.238   4.600 -0.6852  0.3663 -1.1897
   6523SM     N 8333   5.950   5.031   7.478  0.2336  0.3639 -0.2725
   6523SM   C15 8334   6.075   5.105   7.446  0.7382  0.1668 -0.5900
   6523SM  H15A 8335   6.123   5.138   7.536 -1.4145  0.3332  0.5448
   6523SM  H15B 8336   6.040   5.184   7.382 -1.1181 -1.3196 -1.5399
   6523SM  H15C 8337   6.140   5.034   7.395 -0.6355 -0.9241 -0.9015
   6523SM   C14 8338   5.993   4.906   7.548  0.5212  0.8113 -0.0839
   6523SM  H14A 8339   5.907   4.843   7.563 -0.3743  2.0367  0.1007
   6523SM  H14B 8340   6.036   4.936   7.643 -0.6725  1.8301  0.1651
   6523SM  H14C 8341   6.070   4.855   7.492 -0.1233 -0.5272  0.1992
   6523SM   C13 8342   5.864   5.122   7.573 -0.3080  0.4577  0.5392
   6523SM  H13A 8343   5.770   5.072   7.589  0.0121 -0.0600  0.8532
   6523SM  H13B 8344   5.869   5.221   7.532  2.9895 -0.0165 -0.5539
   6523SM  H13C 8345   5.907   5.126   7.673 -0.5856 -0.0422  0.6860
   6523SM   C12 8346   5.871   5.006   7.349  0.2399 -0.3201  0.1885
   6523SM  H12A 8347   5.861   5.101   7.299  1.6823  1.5608  3.2390
   6523SM  H12B 8348   5.773   4.969   7.373 -0.0364 -1.3966 -2.2128
   6523SM   C11 8349   5.933   4.898   7.253 -0.1863 -0.1155  0.3467
   6523SM  H11A 8350   5.870   4.901   7.162 -0.6528 -4.3995  0.3305
   6523SM  H11B 8351   5.920   4.798   7.299  1.2636 -1.8833 -2.7532
   6523SM     P 8352   6.167   4.812   7.167  0.4269  0.2129  0.1343
   6523SM   O13 8353   6.295   4.872   7.136 -0.0310 -0.3276  0.6875
   6523SM   O14 8354   6.172   4.720   7.280 -0.1691  0.2607 -0.1011
   6523SM   O11 8355   6.108   4.740   7.041 -0.5103  0.5863  0.0311
   6523SM   O12 8356   6.069   4.926   7.210 -0.1790 -0.3325  0.8034
   6523SM   C1S 8357   6.077   4.816   6.922 -0.3731 -0.5774 -0.1501
   6523SM   H1S 8358   6.176   4.842   6.880  0.2231  1.1324  2.1332
   6523SM   H1T 8359   6.020   4.910   6.936 -1.8752 -1.5993  1.0019
   6523SM    NF 8360   5.978   4.819   6.696 -0.7805  0.3331 -0.2383
   6523SM   HNF 8361   5.883   4.828   6.665 -1.6423 -0.9050  1.8367
   6523SM   C2S 8362   5.993   4.736   6.818 -0.1519 -0.3666  0.5571
   6523SM   H2S 8363   6.056   4.646   6.800  2.1303  1.5669 -1.8523
   6523SM   C3S 8364   5.856   4.691   6.881  0.3268 -0.8780  0.4704
   6523SM   H3S 8365   5.812   4.784   6.924  0.1296  0.5688 -2.5176
   6523SM    O3 8366   5.862   4.597   6.983 -0.2557 -0.0615 -0.0915
   6523SM   HO3 8367   5.945   4.609   7.030 -0.9208 -1.5923  1.5636
   6523SM   C4S 8368   5.760   4.646   6.772  0.2950  0.4652  0.0430
   6523SM   H4S 8369   5.672   4.710   6.756 -0.7659 -0.8349  0.5124
   6523SM   C5S 8370   5.781   4.545   6.685 -0.5706  0.3269 -0.7316
   6523SM   H5S 8371   5.879   4.495   6.683 -1.1652 -0.8397 -1.5073
   6523SM   C6S 8372   5.691   4.500   6.571  0.1706 -0.6296  0.4494
   6523SM   H6S 8373   5.586   4.536   6.576  0.8129  1.4191  0.1551
   6523SM   H6T 8374   5.689   4.389   6.576 -0.0669 -0.6622 -0.2228
   6523SM   C7S 8375   5.743   4.521   6.425  0.6105 -0.6039 -0.3186
   6523SM   H7S 8376   5.741   4.632   6.418  0.3678 -0.4287  1.8053
   6523SM   H7T 8377   5.662   4.488   6.357 -0.3320 -3.2193  1.8894
   6523SM   C8S 8378   5.881   4.459   6.404 -0.1560  0.1915 -0.6504
   6523SM   H8S 8379   5.882   4.352   6.431  0.8919  0.6623  1.4166
   6523SM   H8T 8380   5.959   4.500   6.473  1.5974  0.8457 -2.8931
   6523SM   C9S 8381   5.952   4.479   6.266 -0.0599 -0.0074  0.0502
   6523SM   H9S 8382   6.059   4.449   6.257 -0.0165 -0.2726  1.2766
   6523SM   H9T 8383   5.946   4.585   6.235  2.3210 -0.4248 -2.1600
   6523SM  C10S 8384   5.879   4.419   6.151  0.2555  0.5378  0.8852
   6523SM  H10S 8385   5.771   4.446   6.158  0.0312 -0.3170  0.7726
   6523SM  H10T 8386   5.875   4.312   6.178  0.7669  0.6754  1.5258
   6523SM  C11S 8387   5.932   4.432   6.012  0.2675 -0.8984  0.9126
   6523SM  H11S 8388   5.906   4.333   5.969 -1.3219 -0.6300  1.2036
   6523SM  H11T 8389   6.042   4.441   6.002  0.1573 -1.0288 -0.6044
   6523SM  C12S 8390   5.860   4.550   5.932 -0.1931 -1.1154  0.1179
   6523SM  H12S 8391   5.750   4.537   5.932 -0.3836  0.2171  1.0793
   6523SM  H12T 8392   5.894   4.537   5.827 -0.0733  3.8056 -0.7003
   6523SM  C13S 8393   5.897   4.697   5.977  0.6690 -0.3203 -0.0561
   6523SM  H13S 8394   6.008   4.697   5.981  0.6712 -2.2467  1.5027
   6523SM  H13T 8395   5.857   4.741   6.070  0.9586 -1.4763  0.6444
   6523SM  C14S 8396   5.841   4.797   5.867  0.4857 -0.4159  0.3556
   6523SM  H14S 8397   5.748   4.765   5.817 -0.9561  0.8840  2.0946
   6523SM  H14T 8398   5.912   4.793   5.781  1.8301  0.0386  1.3991
   6523SM  C15S 8399   5.825   4.938   5.916 -0.0686 -0.1566  0.2782
   6523SM  H15S 8400   5.923   4.964   5.962  0.0535 -0.2842  0.0894
   6523SM  H15T 8401   5.751   4.947   5.999  0.9812 -0.3079  1.2538
   6523SM  C16S 8402   5.797   5.032   5.798 -0.0181 -0.3734  0.4434
   6523SM  H16S 8403   5.888   5.030   5.734 -1.3546  2.3377 -1.7492
   6523SM  H16T 8404   5.802   5.136   5.836  0.9910 -0.3866  0.3696
   6523SM  C17S 8405   5.679   5.002   5.700  0.4482 -0.1783  0.0235
   6523SM  H17S 8406   5.584   4.982   5.755  0.5183  1.3215  0.7284
   6523SM  H17T 8407   5.713   4.920   5.633  0.5958  0.3674 -0.5788
   6523SM  C18S 8408   5.653   5.123   5.596  0.0804  0.7387  0.1566
   6523SM  H18S 8409   5.743   5.148   5.536  0.0138  0.0380 -0.2448
   6523SM  H18T 8410   5.617   5.212   5.651 -0.4256  0.3507  0.4634
   6523SM  H18U 8411   5.569   5.099   5.528  0.0373  0.9986  0.1160
   6523SM   C1F 8412   6.082   4.844   6.622 -0.0389  0.0497 -0.4288
   6523SM    OF 8413   6.185   4.777   6.638 -0.0679  0.3396  0.6698
   6523SM   C2F 8414   6.048   4.936   6.507 -0.2050 -0.2598 -0.6366
   6523SM   H2F 8415   6.065   5.040   6.542  1.2367 -1.0513  1.2104
   6523SM   H2G 8416   5.942   4.928   6.476 -0.4028 -1.2403  0.2304
   6523SM   C3F 8417   6.146   4.926   6.385 -0.5901  0.5263  0.6069
   6523SM   H3F 8418   6.150   4.820   6.350 -0.2433  0.2191  1.5445
   6523SM   H3G 8419   6.247   4.965   6.408  0.2553  0.8819 -2.9976
   6523SM   C4F 8420   6.117   5.026   6.265 -0.5256 -0.5408 -0.1484
   6523SM   H4F 8421   6.081   5.119   6.312 -1.4273 -0.2319 -1.3842
   6523SM   H4G 8422   6.032   4.993   6.201 -1.3054  2.3322 -0.7031
   6523SM   C5F 8423   6.233   5.043   6.166 -0.8677 -1.4149  0.2700
   6523SM   H5F 8424   6.323   5.091   6.211 -1.6965  1.9198 -1.3233
   6523SM   H5G 8425   6.196   5.110   6.086 -1.1315  0.4564  1.8958
   6523SM   C6F 8426   6.268   4.917   6.095 -0.1215  0.3764 -0.2911
   6523SM   H6F 8427   6.173   4.870   6.062  0.8486 -0.9482 -1.2954
   6523SM   H6G 8428   6.318   4.845   6.163  0.1690  1.2256  0.4087
   6523SM   C7F 8429   6.365   4.920   5.971  0.8039  0.0928  0.0709
   6523SM   H7F 8430   6.460   4.958   6.014 -1.2657  2.1780  3.2890
   6523SM   H7G 8431   6.336   4.998   5.898  2.6597 -0.0952 -0.9132
   6523SM   C8F 8432   6.372   4.782   5.902 -0.1516 -0.3978 -0.1973
   6523SM   H8F 8433   6.374   4.700   5.978 -0.5605 -1.0400 -0.8670
   6523SM   H8G 8434   6.461   4.769   5.836  0.3810 -0.8891  0.5962
   6523SM   C9F 8435   6.246   4.755   5.826 -0.5933  0.0095  0.7200
   6523SM   H9F 8436   6.251   4.818   5.735 -0.1245 -1.5997 -0.4266
   6523SM   H9G 8437   6.156   4.799   5.873 -2.8654 -1.3283 -2.0232
   6523SM  C10F 8438   6.227   4.614   5.770  0.1536  0.4075 -0.3544
   6523SM  H10F 8439   6.185   4.536   5.838  1.5403  1.2507  1.5610
   6523SM  H10G 8440   6.321   4.568   5.733 -0.3739 -0.2666 -0.8791
   6523SM  C11F 8441   6.141   4.633   5.648 -0.1208  0.0178 -0.2021
   6523SM  H11F 8442   6.173   4.716   5.582  3.3414 -0.7639  0.2871
   6523SM  H11G 8443   6.040   4.658   5.687  1.0569  2.7469  1.4396
   6523SM  C12F 8444   6.116   4.501   5.569 -0.2569  0.8030 -0.2289
   6523SM  H12F 8445   6.063   4.427   5.633 -2.1527  2.6574  0.4839
   6523SM  H12G 8446   6.218   4.460   5.558 -0.1494  1.1896 -0.7473
   6523SM  C13F 8447   6.042   4.521   5.436  0.5327  0.6443 -0.6122
   6523SM  H13F 8448   6.057   4.432   5.371  4.5335  0.4122  0.4018
   6523SM  H13G 8449   6.085   4.605   5.378  2.1891 -0.1413 -0.5721
   6523SM  C14F 8450   5.887   4.535   5.461 -0.1741 -0.1645  0.8303
   6523SM  H14F 8451   5.876   4.627   5.522  0.7458  1.5009 -1.4142
   6523SM  H14G 8452   5.855   4.451   5.526  0.5017 -0.4876  0.7563
   6523SM  C15F 8453   5.809   4.539   5.325 -0.8150  0.7407 -0.2935
   6523SM  H15F 8454   5.837   4.446   5.269 -1.0886 -0.0296  0.8110
   6523SM  H15G 8455   5.813   4.630   5.262 -0.8747  1.7919  1.1700
   6523SM  C16F 8456   5.659   4.524   5.344  0.2016  0.2845  0.2358
   6523SM  H16F 8457   5.636   4.420   5.375  0.0188  0.6700  1.4665
   6523SM  H16G 8458   5.610   4.538   5.246  0.1377  0.6521  0.3174
   6523SM  C17F 8459   5.598   4.618   5.444  0.1200  0.0934 -0.1844
   6523SM  H17F 8460   5.623   4.724   5.420  1.0339 -0.3319 -1.1624
   6523SM  H17G 8461   5.626   4.588   5.547 -1.2896  2.0136  0.8305
   6523SM  C18F 8462   5.448   4.604   5.439  0.3471 -0.3211  0.1920
   6523SM  H18F 8463   5.442   4.495   5.461 -0.3847 -1.3916 -4.3209
   6523SM  H18G 8464   5.407   4.602   5.336  2.3476  1.1487 -0.6990
   6523SM  C19F 8465   5.373   4.692   5.536  0.6917 -0.1074 -0.6182
   6523SM  H19F 8466   5.279   4.639   5.563  1.0661 -0.3343  0.2835
   6523SM  H19G 8467   5.341   4.785   5.484 -0.2273 -0.0923 -0.0467
   6523SM  C20F 8468   5.440   4.718   5.676  0.4504  0.0552  0.5689
   6523SM  H20F 8469   5.527   4.786   5.662 -0.0477  0.5384 -0.2537
   6523SM  H20G 8470   5.474   4.619   5.714  0.7984  0.0041  0.1452
   6523SM  C21F 8471   5.337   4.777   5.776  0.5075 -0.3509  0.3330
   6523SM  H21F 8472   5.261   4.698   5.797 -1.7643  1.9379  1.1120
   6523SM  H21G 8473   5.281   4.860   5.728  1.4292  1.3248  2.0519
   6523SM  C22F 8474   5.394   4.832   5.904  0.1505  0.0461 -0.7953
   6523SM  H22F 8475   5.308   4.858   5.970  0.4634 -0.7564 -0.0487
   6523SM  H22G 8476   5.456   4.922   5.888  0.0102  0.5645  1.2926
   6523SM  C23F 8477   5.483   4.733   5.985 -0.1976 -0.4852  0.4337
   6523SM  H23F 8478   5.427   4.641   6.011  0.2628 -0.6138  0.9954
   6523SM  H23G 8479   5.537   4.778   6.071  0.5138 -1.2204  0.3897
   6523SM  H23H 8480   5.563   4.693   5.919 -0.8256 -0.9846 -0.0399
   6623SM     N 8481   5.046   1.842   7.320 -0.0347  0.3882 -0.0287
   6623SM   C15 8482   4.996   1.973   7.375 -0.3503 -0.3459 -0.5029
   6623SM  H15A 8483   4.889   1.986   7.368 -0.2167  0.6563 -0.8350
   6623SM  H15B 8484   5.041   2.046   7.309  1.6314 -0.5761  0.5127
   6623SM  H15C 8485   5.018   1.997   7.478  0.1889  0.0859 -0.7118
   6623SM   C14 8486   4.979   1.727   7.388  0.3781  0.1670  0.1464
   6623SM  H14A 8487   4.992   1.632   7.339 -0.9506 -1.6538  3.0268
   6623SM  H14B 8488   4.874   1.753   7.390 -0.0520 -1.2345 -1.3537
   6623SM  H14C 8489   5.028   1.721   7.484  2.8212  1.5119 -0.9381
   6623SM   C13 8490   5.026   1.845   7.170 -0.3383  0.2832  0.5674
   6623SM  H13A 8491   4.930   1.888   7.144 -0.0876  0.7744  0.4344
   6623SM  H13B 8492   5.033   1.747   7.124 -0.7630 -0.1262  1.3611
   6623SM  H13C 8493   5.101   1.909   7.126 -1.5724  0.7384 -0.9921
   6623SM   C12 8494   5.193   1.843   7.347  0.1831  0.3381  0.0623
   6623SM  H12A 8495   5.213   1.848   7.453  0.2339 -0.6139  0.1043
   6623SM  H12B 8496   5.232   1.929   7.295 -0.9152  0.2304 -1.0049
   6623SM   C11 8497   5.274   1.713   7.299  0.6902  0.1548 -0.1445
   6623SM  H11A 8498   5.214   1.623   7.324  1.9343 -0.8262 -0.5984
   6623SM  H11B 8499   5.368   1.699   7.356  1.0852  0.0616 -0.8154
   6623SM     P 8500   5.408   1.794   7.093 -0.1419 -0.0886  0.1716
   6623SM   O13 8501   5.369   1.931   7.130  0.6133  0.0389 -0.6801
   6623SM   O14 8502   5.541   1.752   7.140 -0.4436  0.2279 -0.4956
   6623SM   O11 8503   5.402   1.769   6.939  0.7561 -0.6003  0.7152
   6623SM   O12 8504   5.297   1.703   7.158  0.3597 -0.3323 -0.3602
   6623SM   C1S 8505   5.302   1.681   6.877 -0.7290  0.0201  0.0672
   6623SM   H1S 8506   5.204   1.734   6.876 -0.2681  0.8872 -0.8750
   6623SM   H1T 8507   5.287   1.589   6.937  1.2174 -0.6994 -0.4641
   6623SM    NF 8508   5.240   1.578   6.657 -0.4187 -0.0896 -0.3730
   6623SM   HNF 8509   5.239   1.481   6.635 -2.3648 -0.5523  1.4869
   6623SM   C2S 8510   5.345   1.636   6.733 -0.3688 -0.7575  0.4989
   6623SM   H2S 8511   5.373   1.737   6.697  2.7478 -1.0881  1.7125
   6623SM   C3S 8512   5.478   1.559   6.736  0.3502  0.2861  0.7422
   6623SM   H3S 8513   5.464   1.458   6.780 -1.1361 -0.2460 -0.8576
   6623SM    O3 8514   5.578   1.609   6.826  0.0667  0.4803  0.2239
   6623SM   HO3 8515   5.524   1.666   6.882 -1.7238 -0.7940 -0.1299
   6623SM   C4S 8516   5.532   1.531   6.601 -0.5802  0.4051  0.2127
   6623SM   H4S 8517   5.543   1.623   6.540  1.2633  0.5809  0.7722
   6623SM   C5S 8518   5.555   1.409   6.546  0.0137 -0.1938 -0.6554
   6623SM   H5S 8519   5.537   1.312   6.595  0.5786  0.3733  0.7353
   6623SM   C6S 8520   5.595   1.380   6.409  0.7520  0.0804  0.0694
   6623SM   H6S 8521   5.500   1.374   6.350  2.2484  1.4996 -2.7086
   6623SM   H6T 8522   5.646   1.282   6.394  0.3801 -0.4174  1.8547
   6623SM   C7S 8523   5.688   1.483   6.336 -0.8545 -0.5306 -0.1818
   6623SM   H7S 8524   5.783   1.498   6.391 -0.8950  1.1526 -0.5091
   6623SM   H7T 8525   5.638   1.583   6.345  1.0429  0.4417 -0.0549
   6623SM   C8S 8526   5.717   1.441   6.196  0.5492  0.4161 -0.0760
   6623SM   H8S 8527   5.614   1.409   6.169 -0.6754 -0.2139  4.4782
   6623SM   H8T 8528   5.794   1.361   6.203  1.0871  0.8094 -1.3190
   6623SM   C9S 8529   5.777   1.547   6.106 -0.7514 -0.3881 -0.2971
   6623SM   H9S 8530   5.878   1.576   6.142 -1.1279  1.9191 -0.9398
   6623SM   H9T 8531   5.729   1.645   6.123 -0.8895 -0.3541 -0.8536
   6623SM  C10S 8532   5.789   1.522   5.957  0.3313 -0.1847  0.3936
   6623SM  H10S 8533   5.685   1.497   5.927  0.1772  1.5816 -0.6731
   6623SM  H10T 8534   5.844   1.428   5.933 -1.7766 -1.5001  0.3706
   6623SM  C11S 8535   5.832   1.634   5.866  0.3413 -0.1656 -0.1744
   6623SM  H11S 8536   5.937   1.650   5.898  0.6257 -1.9884 -0.1205
   6623SM  H11T 8537   5.780   1.728   5.897  1.4954  0.0601  1.2036
   6623SM  C12S 8538   5.819   1.606   5.710  0.2528 -0.1300  0.5580
   6623SM  H12S 8539   5.718   1.561   5.697  0.6669 -1.2110  0.9128
   6623SM  H12T 8540   5.892   1.522   5.703  0.6585 -0.0593  3.0579
   6623SM  C13S 8541   5.850   1.716   5.608  0.5630  0.5089  0.5044
   6623SM  H13S 8542   5.943   1.764   5.646  1.6247 -0.3825 -0.8476
   6623SM  H13T 8543   5.753   1.769   5.602  0.4802  0.3797  0.6980
   6623SM  C14S 8544   5.874   1.666   5.464  0.5961  0.3456 -0.4085
   6623SM  H14S 8545   5.797   1.591   5.437  2.2886 -1.3835 -0.6236
   6623SM  H14T 8546   5.973   1.618   5.478  1.0194  1.7163  1.7820
   6623SM  C15S 8547   5.874   1.779   5.364  0.4221 -0.2590 -0.5074
   6623SM  H15S 8548   5.948   1.855   5.397 -0.5662 -0.9856  3.9070
   6623SM  H15T 8549   5.776   1.832   5.361  0.8389  0.5972  0.4451
   6623SM  C16S 8550   5.909   1.737   5.223  0.0459  0.0747  0.0328
   6623SM  H16S 8551   5.912   1.821   5.149  2.1403  0.0701  0.0458
   6623SM  H16T 8552   5.829   1.668   5.192  1.2749 -0.9994 -0.8796
   6623SM  C17S 8553   6.038   1.659   5.212  0.2593 -0.4161  0.6148
   6623SM  H17S 8554   6.046   1.570   5.278  2.3311 -0.8822 -0.1720
   6623SM  H17T 8555   6.120   1.724   5.249 -0.2195  1.0134 -0.7594
   6623SM  C18S 8556   6.072   1.617   5.070 -0.0802 -0.0440  0.2134
   6623SM  H18S 8557   6.181   1.596   5.065  0.1270  1.3148 -1.8029
   6623SM  H18T 8558   6.048   1.692   4.992  1.9437  2.8667  2.1856
   6623SM  H18U 8559   6.014   1.525   5.048 -2.0867  1.1718  0.1558
   6623SM   C1F 8560   5.131   1.640   6.635  0.4733  0.0413  0.3935
   6623SM    OF 8561   5.113   1.755   6.675  0.5520 -0.0552  0.4570
   6623SM   C2F 8562   5.024   1.557   6.574 -0.0290  0.3221  0.4080
   6623SM   H2F 8563   4.937   1.625   6.558  0.8846  1.3367 -0.4955
   6623SM   H2G 8564   4.998   1.475   6.644 -2.8260  1.1686  0.4793
   6623SM   C3F 8565   5.074   1.506   6.440  0.2734 -0.0799  0.6075
   6623SM   H3F 8566   5.132   1.413   6.456  0.6506  0.1774  0.7782
   6623SM   H3G 8567   5.148   1.572   6.389  1.3609 -1.0124  0.9198
   6623SM   C4F 8568   4.968   1.467   6.335 -0.2535 -0.1985 -0.5288
   6623SM   H4F 8569   4.924   1.563   6.300  1.8568  0.8272 -0.5191
   6623SM   H4G 8570   4.895   1.411   6.397  2.5780 -2.4550  1.0559
   6623SM   C5F 8571   5.017   1.382   6.216  0.1524  0.1041  0.0911
   6623SM   H5F 8572   4.932   1.383   6.144  1.3750  2.5963 -1.4773
   6623SM   H5G 8573   5.042   1.279   6.248  0.7827  0.1495 -0.2398
   6623SM   C6F 8574   5.130   1.442   6.141  0.9706 -0.3262 -0.7486
   6623SM   H6F 8575   5.217   1.436   6.210  0.3860 -0.5715 -0.0123
   6623SM   H6G 8576   5.117   1.551   6.127  2.5759  0.0627  0.4609
   6623SM   C7F 8577   5.153   1.372   6.015  0.3571 -0.2714 -0.1911
   6623SM   H7F 8578   5.183   1.269   6.044  2.0098  0.7484  2.0514
   6623SM   H7G 8579   5.248   1.420   5.983  1.2732 -0.5501  1.9599
   6623SM   C8F 8580   5.047   1.388   5.906  0.9056  0.6342 -0.2863
   6623SM   H8F 8581   5.053   1.491   5.865  0.4621  0.8609  0.2101
   6623SM   H8G 8582   4.942   1.377   5.942  1.2561 -0.7387  0.3558
   6623SM   C9F 8583   5.064   1.289   5.788  0.0334  0.2554 -0.0951
   6623SM   H9F 8584   5.044   1.185   5.822 -0.3458 -0.2231 -1.7070
   6623SM   H9G 8585   5.173   1.291   5.767  0.0287  1.8017 -0.0589
   6623SM  C10F 8586   4.993   1.317   5.657  0.3016  0.4399 -0.3916
   6623SM  H10F 8587   5.009   1.422   5.624 -0.8382  0.3293 -1.3490
   6623SM  H10G 8588   4.882   1.306   5.664  0.3576 -0.4069 -0.8190
   6623SM  C11F 8589   5.044   1.226   5.542 -0.1411  0.7897 -0.0572
   6623SM  H11F 8590   4.966   1.234   5.464 -2.1429 -0.3838  1.7333
   6623SM  H11G 8591   5.036   1.123   5.582 -0.4506  1.1036  0.7283
   6623SM  C12F 8592   5.184   1.249   5.486 -0.6112 -0.6000 -0.8001
   6623SM  H12F 8593   5.253   1.263   5.572 -2.1184 -0.9343  0.5189
   6623SM  H12G 8594   5.170   1.347   5.437 -3.3632 -0.9088 -0.7534
   6623SM  C13F 8595   5.232   1.142   5.381  0.2114 -0.3786  0.1528
   6623SM  H13F 8596   5.321   1.182   5.328 -0.2514  0.0718 -0.2921
   6623SM  H13G 8597   5.149   1.130   5.308 -0.4902 -1.3812  1.0815
   6623SM  C14F 8598   5.253   1.001   5.447  0.6066 -0.2231 -0.0418
   6623SM  H14F 8599   5.151   0.966   5.473  0.7853  0.2936  1.4473
   6623SM  H14G 8600   5.306   1.010   5.545 -2.2661 -0.1788  1.6167
   6623SM  C15F 8601   5.329   0.905   5.358  0.3133  0.3516  0.0489
   6623SM  H15F 8602   5.426   0.956   5.340  0.2987  0.6078  0.6819
   6623SM  H15G 8603   5.276   0.901   5.261 -0.3815 -0.5835  0.4502
   6623SM  C16F 8604   5.351   0.768   5.424  0.2576 -0.2354  0.2964
   6623SM  H16F 8605   5.418   0.773   5.513 -1.1276 -1.2325  1.4600
   6623SM  H16G 8606   5.391   0.702   5.345 -0.9239 -1.3923  0.6152
   6623SM  C17F 8607   5.215   0.701   5.460  0.1490  0.1796 -0.2148
   6623SM  H17F 8608   5.164   0.752   5.544  0.4000  0.5119 -0.2619
   6623SM  H17G 8609   5.239   0.605   5.511  1.8365 -0.8794 -2.7672
   6623SM  C18F 8610   5.106   0.682   5.349 -0.6518 -0.4966  0.2307
   6623SM  H18F 8611   5.142   0.614   5.269 -2.4121 -1.1104 -0.0748
   6623SM  H18G 8612   5.100   0.781   5.299 -0.1855  0.4724  2.0003
   6623SM  C19F 8613   4.970   0.630   5.406 -0.2364  0.0461  0.0049
   6623SM  H19F 8614   4.993   0.573   5.498  0.1668  2.1705  1.2921
   6623SM  H19G 8615   4.919   0.561   5.335 -1.7948 -0.6325  1.7312
   6623SM  C20F 8616   4.880   0.741   5.457  0.3796 -0.3609 -0.2041
   6623SM  H20F 8617   4.868   0.818   5.378 -0.6200 -0.6452 -0.3473
   6623SM  H20G 8618   4.922   0.782   5.552 -1.8746 -1.1856  1.2463
   6623SM  C21F 8619   4.737   0.708   5.485 -1.4217  0.6138  0.0632
   6623SM  H21F 8620   4.734   0.643   5.575 -0.3290  1.5514  0.7926
   6623SM  H21G 8621   4.694   0.660   5.394 -4.4832  2.5490  0.3386
   6623SM  C22F 8622   4.647   0.830   5.509 -0.4341 -0.3565 -0.6186
   6623SM  H22F 8623   4.548   0.782   5.529 -0.4804 -0.2848 -0.6753
   6623SM  H22G 8624   4.652   0.893   5.418  3.6159 -0.7767 -0.8465
   6623SM  C23F 8625   4.675   0.911   5.644  0.2372 -0.1140 -0.1131
   6623SM  H23F 8626   4.771   0.965   5.634  0.2846 -0.5127 -2.1398
   6623SM  H23G 8627   4.692   0.840   5.727 -1.3265 -0.5059 -0.0874
   6623SM  H23H 8628   4.586   0.973   5.672 -0.5982 -1.4214  0.1997
   6723SM     N 8629   3.794   6.056   7.150 -0.5386 -0.5547  0.1402
   6723SM   C15 8630   3.710   6.176   7.154  0.2058 -0.1975  0.2078
   6723SM  H15A 8631   3.679   6.211   7.251 -3.9868  1.0809 -1.3884
   6723SM  H15B 8632   3.623   6.158   7.093 -0.5632 -2.0843  1.7356
   6723SM  H15C 8633   3.758   6.262   7.109 -0.1329 -0.2776 -0.3128
   6723SM   C14 8634   3.852   6.041   7.012 -1.1750  0.2769 -0.3263
   6723SM  H14A 8635   3.776   6.003   6.946 -0.1892 -1.2315 -0.6258
   6723SM  H14B 8636   3.923   5.960   7.009 -1.0993  0.2820  0.8497
   6723SM  H14C 8637   3.911   6.123   6.974  1.0209  0.4181  2.9301
   6723SM   C13 8638   3.898   6.066   7.259  0.4862  0.0301  0.3718
   6723SM  H13A 8639   3.977   5.992   7.253  1.0628  0.7369 -1.9235
   6723SM  H13B 8640   3.840   6.050   7.349 -1.9961 -1.4063 -1.3543
   6723SM  H13C 8641   3.950   6.160   7.250  1.1857 -0.4906 -1.9029
   6723SM   C12 8642   3.706   5.944   7.188 -1.0537  0.0370 -0.5827
   6723SM  H12A 8643   3.656   5.959   7.282 -1.5060 -2.2417 -0.3937
   6723SM  H12B 8644   3.760   5.850   7.196 -1.7770 -0.7390 -3.4493
   6723SM   C11 8645   3.589   5.912   7.091 -0.4580 -0.0980 -0.1973
   6723SM  H11A 8646   3.546   5.813   7.119 -1.5859  0.4214 -0.0496
   6723SM  H11B 8647   3.629   5.891   6.989 -2.6987  0.0492 -1.1578
   6723SM     P 8648   3.357   5.992   7.004 -0.0497  0.3062  0.6778
   6723SM   O13 8649   3.293   5.874   7.063  0.5698 -0.3039  0.1625
   6723SM   O14 8650   3.272   6.112   6.989 -0.6050  0.4046 -0.0405
   6723SM   O11 8651   3.427   5.949   6.864 -0.0344 -0.1854  0.0243
   6723SM   O12 8652   3.484   6.018   7.094 -0.0643 -0.3053  0.2791
   6723SM   C1S 8653   3.397   5.819   6.811  0.0037 -0.0967 -0.0142
   6723SM   H1S 8654   3.289   5.803   6.792 -0.0721 -0.5544  0.7380
   6723SM   H1T 8655   3.432   5.740   6.881  2.0021  0.8750  0.1538
   6723SM    NF 8656   3.390   5.697   6.592  0.6032  0.6403 -0.2650
   6723SM   HNF 8657   3.435   5.611   6.572  0.4951  0.6763 -0.6727
   6723SM   C2S 8658   3.463   5.784   6.675  0.0860 -0.6564 -0.4659
   6723SM   H2S 8659   3.461   5.886   6.632  0.6032  0.2008  1.4561
   6723SM   C3S 8660   3.607   5.738   6.694  0.3430 -0.4735  0.8687
   6723SM   H3S 8661   3.612   5.635   6.734 -0.5031 -0.8716 -0.0192
   6723SM    O3 8662   3.692   5.827   6.769  0.1470 -0.0770 -0.3712
   6723SM   HO3 8663   3.627   5.892   6.796  0.6503  0.3000 -0.0570
   6723SM   C4S 8664   3.680   5.722   6.560 -0.4950  0.0774  0.4736
   6723SM   H4S 8665   3.703   5.813   6.503 -0.7400  0.4552  0.9735
   6723SM   C5S 8666   3.741   5.607   6.518  0.5297  0.4387  0.7531
   6723SM   H5S 8667   3.714   5.513   6.569 -0.6783  0.6294  0.4980
   6723SM   C6S 8668   3.826   5.583   6.393 -0.4553 -0.5058 -0.1467
   6723SM   H6S 8669   3.867   5.480   6.390 -0.8233 -0.6445 -2.5768
   6723SM   H6T 8670   3.917   5.644   6.407  0.3183 -2.0655  2.1263
   6723SM   C7S 8671   3.759   5.620   6.254  0.1050  0.0903  0.2070
   6723SM   H7S 8672   3.813   5.615   6.158 -3.0269  1.1117 -1.7678
   6723SM   H7T 8673   3.738   5.729   6.262  0.4546  0.1239  0.7506
   6723SM   C8S 8674   3.618   5.560   6.234  0.0911 -0.0027  0.0596
   6723SM   H8S 8675   3.546   5.607   6.305  0.3136  1.3132 -0.5539
   6723SM   H8T 8676   3.622   5.449   6.245 -2.0044  0.0169  1.5941
   6723SM   C9S 8677   3.568   5.584   6.095  0.3056  0.1881  0.0422
   6723SM   H9S 8678   3.639   5.534   6.027  0.5657 -0.5543  0.8452
   6723SM   H9T 8679   3.555   5.691   6.066 -1.7064  0.0499  0.2422
   6723SM  C10S 8680   3.414   5.552   6.070  0.3464 -0.2880 -0.1479
   6723SM  H10S 8681   3.350   5.615   6.135  0.0188 -0.8501  0.0813
   6723SM  H10T 8682   3.391   5.452   6.113 -2.3443  1.2370  2.2935
   6723SM  C11S 8683   3.373   5.567   5.926 -0.1235  0.3909 -0.1827
   6723SM  H11S 8684   3.437   5.501   5.864 -1.1044 -0.3939 -0.3698
   6723SM  H11T 8685   3.402   5.671   5.900 -1.4735  0.7640 -0.2575
   6723SM  C12S 8686   3.224   5.564   5.911  0.7543  0.1338  0.7737
   6723SM  H12S 8687   3.170   5.644   5.966 -1.7664 -0.0057 -1.2828
   6723SM  H12T 8688   3.177   5.471   5.949 -2.8338  1.4113 -0.1418
   6723SM  C13S 8689   3.171   5.580   5.761 -0.9222  0.1760  0.5193
   6723SM  H13S 8690   3.213   5.491   5.709 -1.7532  0.1562 -0.1367
   6723SM  H13T 8691   3.216   5.674   5.721  0.5543 -0.4844  0.5408
   6723SM  C14S 8692   3.016   5.591   5.755  0.0550 -0.1965  0.1163
   6723SM  H14S 8693   2.978   5.677   5.815 -0.3565  0.2204 -0.7318
   6723SM  H14T 8694   2.968   5.509   5.812  2.7115 -0.6135  1.9782
   6723SM  C15S 8695   2.961   5.591   5.611 -0.4111  0.0582  0.3555
   6723SM  H15S 8696   2.853   5.570   5.594 -0.6175  0.8103  0.6915
   6723SM  H15T 8697   3.017   5.504   5.569 -2.1946 -1.2337  0.5408
   6723SM  C16S 8698   3.003   5.708   5.521  0.2045 -0.2327  0.0250
   6723SM  H16S 8699   3.106   5.741   5.544 -0.5976  1.7243  1.0311
   6723SM  H16T 8700   2.932   5.792   5.537 -0.4378 -1.1245  2.3363
   6723SM  C17S 8701   2.995   5.673   5.368  0.4734  0.0072 -0.2086
   6723SM  H17S 8702   2.896   5.622   5.369  1.0057 -1.0768 -0.5274
   6723SM  H17T 8703   3.073   5.598   5.343 -1.0635 -3.4532  3.9636
   6723SM  C18S 8704   2.991   5.793   5.277 -0.0797 -0.2718  0.4342
   6723SM  H18S 8705   2.905   5.862   5.292  1.1015  1.8688 -1.9094
   6723SM  H18T 8706   2.999   5.752   5.174 -0.0975  0.4847  0.1260
   6723SM  H18U 8707   3.083   5.854   5.286 -0.4124 -0.0487  3.6397
   6723SM   C1F 8708   3.266   5.724   6.546  0.3628 -0.0886 -0.1742
   6723SM    OF 8709   3.209   5.835   6.571 -0.3428  0.0713 -0.3717
   6723SM   C2F 8710   3.197   5.625   6.453  0.1945 -0.0823 -0.6244
   6723SM   H2F 8711   3.162   5.538   6.513 -0.0352 -1.4727 -2.6559
   6723SM   H2G 8712   3.268   5.578   6.382 -2.5133 -0.5846 -3.2484
   6723SM   C3F 8713   3.073   5.691   6.382 -0.2241  0.1124  0.1614
   6723SM   H3F 8714   3.120   5.769   6.319  0.5825  0.1018  0.7329
   6723SM   H3G 8715   2.998   5.738   6.449  0.7828  1.1981  0.5651
   6723SM   C4F 8716   2.998   5.591   6.301  0.5197  0.2114  0.1673
   6723SM   H4F 8717   2.953   5.507   6.359 -1.5667  1.6396  0.7361
   6723SM   H4G 8718   3.075   5.550   6.232  1.3631  1.2811  0.4419
   6723SM   C5F 8719   2.896   5.668   6.217  0.8858  0.0497  0.5577
   6723SM   H5F 8720   2.942   5.741   6.146 -0.2622 -0.7620 -1.0947
   6723SM   H5G 8721   2.815   5.714   6.277  0.6737 -0.6428  0.8056
   6723SM   C6F 8722   2.819   5.558   6.124  0.0156 -0.6759  0.0347
   6723SM   H6F 8723   2.742   5.506   6.185  0.6670 -1.6119  0.0776
   6723SM   H6G 8724   2.893   5.484   6.086 -0.9597 -1.6663 -0.0043
   6723SM   C7F 8725   2.738   5.619   6.004 -0.7193  0.2321 -0.3535
   6723SM   H7F 8726   2.819   5.661   5.941  2.7609 -1.0500  2.9219
   6723SM   H7G 8727   2.672   5.704   6.031  1.0447  1.3703  0.4900
   6723SM   C8F 8728   2.664   5.510   5.927 -0.1174 -0.6673 -0.3711
   6723SM   H8F 8729   2.584   5.461   5.985 -2.3091 -1.1662 -3.5437
   6723SM   H8G 8730   2.732   5.430   5.890 -0.6374 -1.2589 -0.0588
   6723SM   C9F 8731   2.584   5.560   5.797 -0.3301  0.4708  0.1322
   6723SM   H9F 8732   2.663   5.606   5.735 -1.3980  1.8228 -0.2528
   6723SM   H9G 8733   2.501   5.627   5.827  1.3774  3.0028 -0.4944
   6723SM  C10F 8734   2.526   5.442   5.724 -0.2267 -0.2322  0.0141
   6723SM  H10F 8735   2.440   5.393   5.775 -0.9431 -2.2502 -2.8755
   6723SM  H10G 8736   2.611   5.371   5.726 -1.3409 -1.7287 -2.3151
   6723SM  C11F 8737   2.476   5.473   5.583  0.6928  0.0089 -1.0294
   6723SM  H11F 8738   2.407   5.559   5.602  0.4328 -0.4193  0.0289
   6723SM  H11G 8739   2.414   5.391   5.541 -0.4489  0.7852 -0.9064
   6723SM  C12F 8740   2.590   5.503   5.483  0.5675  0.0522  0.2825
   6723SM  H12F 8741   2.657   5.414   5.479  0.8434  0.2055  1.3097
   6723SM  H12G 8742   2.640   5.596   5.517 -1.9916  2.1210 -1.2720
   6723SM  C13F 8743   2.524   5.549   5.349 -0.0318  0.5996  0.3838
   6723SM  H13F 8744   2.457   5.635   5.369 -2.3198 -0.7141 -1.1135
   6723SM  H13G 8745   2.447   5.472   5.325  3.0304 -3.2919  1.9958
   6723SM  C14F 8746   2.628   5.572   5.234  0.5276 -0.5237  0.2014
   6723SM  H14F 8747   2.707   5.494   5.236  1.0291 -0.0118  0.4040
   6723SM  H14G 8748   2.684   5.667   5.243 -0.4621  0.0270  0.6889
   6723SM  C15F 8749   2.560   5.582   5.100  0.7099  0.0261  0.3936
   6723SM  H15F 8750   2.491   5.667   5.079 -1.1313 -1.4729  0.1011
   6723SM  H15G 8751   2.501   5.489   5.083 -1.2292  0.7301  2.7441
   6723SM  C16F 8752   2.663   5.591   4.991 -0.7935  0.2947  0.0871
   6723SM  H16F 8753   2.735   5.508   5.006 -2.3218 -0.9337  1.0147
   6723SM  H16G 8754   2.721   5.686   4.991  0.1272 -0.2553 -0.4732
   6723SM  C17F 8755   2.602   5.574   4.855 -0.0883  0.0999 -0.6917
   6723SM  H17F 8756   2.543   5.666   4.835  2.4623  1.5301 -2.1774
   6723SM  H17G 8757   2.546   5.478   4.853  1.3952 -0.7952 -0.5483
   6723SM  C18F 8758   2.707   5.559   4.748  0.2558  0.1542  0.7361
   6723SM  H18F 8759   2.757   5.459   4.752 -0.0515  0.0305  1.5507
   6723SM  H18G 8760   2.786   5.636   4.754 -0.6947  1.3280 -0.9988
   6723SM  C19F 8761   2.644   5.589   4.613  0.0850  0.7901  0.6050
   6723SM  H19F 8762   2.727   5.582   4.539  0.3928 -0.9823  1.0726
   6723SM  H19G 8763   2.596   5.689   4.606 -1.7153  0.0052  1.0567
   6723SM  C20F 8764   2.520   5.508   4.581 -0.2756  0.2278  0.0690
   6723SM  H20F 8765   2.428   5.533   4.637  1.6822  1.0877  3.1968
   6723SM  H20G 8766   2.545   5.407   4.620  0.5346  0.8376  1.2030
   6723SM  C21F 8767   2.491   5.526   4.433  0.1335 -0.5478 -0.1074
   6723SM  H21F 8768   2.525   5.627   4.404 -1.6751  0.4535  1.0472
   6723SM  H21G 8769   2.382   5.521   4.412  0.0627 -0.3638  0.2067
   6723SM  C22F 8770   2.558   5.421   4.356 -1.0297 -0.2821  0.4224
   6723SM  H22F 8771   2.528   5.323   4.399 -0.1922 -0.7713 -0.0978
   6723SM  H22G 8772   2.668   5.422   4.364 -1.0237 -0.9391  0.4444
   6723SM  C23F 8773   2.514   5.413   4.206 -0.2454  0.2689 -0.2222
   6723SM  H23F 8774   2.560   5.327   4.153  0.2241 -0.4483  1.2920
   6723SM  H23G 8775   2.555   5.505   4.159  1.8799  0.0615  1.0839
   6723SM  H23H 8776   2.404   5.415   4.190 -0.3642  2.1786  0.5674
   6823SM     N 8777   4.181   2.927   7.773  0.3441  0.2383 -0.3424
   6823SM   C15 8778   4.159   3.053   7.858  0.4528  0.7390 -0.2408
   6823SM  H15A 8779   4.225   3.126   7.814 -0.4881  0.8073 -1.5977
   6823SM  H15B 8780   4.192   3.031   7.959 -0.0984  2.5095  0.3590
   6823SM  H15C 8781   4.057   3.089   7.856  0.7478  1.6603  0.7313
   6823SM   C14 8782   4.330   2.901   7.774 -0.4542 -0.1696  0.0080
   6823SM  H14A 8783   4.382   2.964   7.703 -1.5138  1.5022  0.6429
   6823SM  H14B 8784   4.347   2.797   7.753 -1.4423 -0.5691  1.1050
   6823SM  H14C 8785   4.374   2.920   7.871  1.4045 -3.0410 -0.1483
   6823SM   C13 8786   4.106   2.812   7.832  0.4677  0.9224 -0.1434
   6823SM  H13A 8787   4.004   2.839   7.857  0.3681 -1.6160  2.6847
   6823SM  H13B 8788   4.155   2.788   7.925  1.2305  0.6474 -0.6112
   6823SM  H13C 8789   4.102   2.729   7.762  0.8698  0.9125 -0.1561
   6823SM   C12 8790   4.135   2.959   7.637 -0.6061  0.5722  0.1611
   6823SM  H12A 8791   4.183   3.048   7.599  1.0011 -0.5780 -0.6281
   6823SM  H12B 8792   4.029   2.980   7.634 -0.3177  2.0108 -1.2275
   6823SM   C11 8793   4.172   2.859   7.532 -0.2361  0.5045  0.4339
   6823SM  H11A 8794   4.283   2.853   7.526 -0.0716  2.6570  0.5067
   6823SM  H11B 8795   4.152   2.891   7.427  1.3605 -2.4376 -0.8950
   6823SM     P 8796   3.964   2.698   7.513  0.2395  0.3680  0.1630
   6823SM   O13 8797   3.915   2.572   7.573  0.2939  0.1531 -0.1120
   6823SM   O14 8798   3.879   2.814   7.554 -0.3719 -0.0379 -0.5901
   6823SM   O11 8799   3.957   2.686   7.355  0.0968  0.1314 -0.3854
   6823SM   O12 8800   4.117   2.727   7.548  0.3885  0.1808  0.2944
   6823SM   C1S 8801   4.060   2.619   7.285  0.8642  0.1430 -0.6028
   6823SM   H1S 8802   4.056   2.508   7.292 -2.2885  0.2725  1.9666
   6823SM   H1T 8803   4.159   2.663   7.310  0.2446  0.0967  2.2645
   6823SM    NF 8804   4.105   2.548   7.054  0.1840  0.2927 -0.3221
   6823SM   HNF 8805   4.186   2.590   7.017  1.1729 -0.4370  0.9220
   6823SM   C2S 8806   4.022   2.633   7.135  0.1010  0.1856  0.2856
   6823SM   H2S 8807   3.918   2.595   7.126  0.7384 -1.4917 -0.4734
   6823SM   C3S 8808   4.023   2.782   7.084 -0.2333 -0.0247 -0.3796
   6823SM   H3S 8809   4.130   2.813   7.086 -0.3791  0.4828  1.8117
   6823SM    O3 8810   3.972   2.878   7.177  0.3804  0.2126  0.1550
   6823SM   HO3 8811   3.961   2.826   7.256 -2.6874  0.2532 -0.1201
   6823SM   C4S 8812   3.966   2.802   6.947 -0.1626 -0.4852 -0.9327
   6823SM   H4S 8813   4.035   2.787   6.863 -1.0037  0.7747 -1.8929
   6823SM   C5S 8814   3.838   2.820   6.911 -0.0541 -0.1001  0.6313
   6823SM   H5S 8815   3.764   2.842   6.990 -0.2288 -3.3806  1.5336
   6823SM   C6S 8816   3.784   2.826   6.774 -0.5304 -0.1046 -0.1747
   6823SM   H6S 8817   3.711   2.910   6.780 -0.1828  0.1035  1.8858
   6823SM   H6T 8818   3.730   2.733   6.749 -1.0334  0.2529 -0.4360
   6823SM   C7S 8819   3.875   2.853   6.654  0.3747  0.1567 -0.3438
   6823SM   H7S 8820   3.946   2.771   6.627 -1.5553 -1.2829 -1.3278
   6823SM   H7T 8821   3.937   2.942   6.678  2.8406 -2.2026  3.1684
   6823SM   C8S 8822   3.796   2.884   6.527  0.5370 -0.1997  0.0290
   6823SM   H8S 8823   3.718   2.963   6.533 -1.1169 -1.0806 -4.9976
   6823SM   H8T 8824   3.747   2.789   6.497  3.6106 -1.9561  0.0539
   6823SM   C9S 8825   3.875   2.931   6.408  0.0686 -0.0782 -0.3396
   6823SM   H9S 8826   3.978   2.893   6.391 -0.0953 -0.7052  0.0146
   6823SM   H9T 8827   3.894   3.038   6.429 -1.6357  0.0460  0.7699
   6823SM  C10S 8828   3.802   2.935   6.275 -0.4052  0.0394 -0.2964
   6823SM  H10S 8829   3.716   3.004   6.291  0.4664  0.8084  1.2210
   6823SM  H10T 8830   3.755   2.839   6.244  1.2729 -0.5914 -0.9785
   6823SM  C11S 8831   3.882   2.992   6.156  0.4052 -0.0314 -0.0064
   6823SM  H11S 8832   3.979   2.938   6.153  0.6495  0.4313 -1.0619
   6823SM  H11T 8833   3.901   3.101   6.143 -3.0690  0.5608 -1.1116
   6823SM  C12S 8834   3.810   2.955   6.017  0.2927  0.0264  0.0324
   6823SM  H12S 8835   3.724   3.023   5.999  0.9192  1.3991  1.7946
   6823SM  H12T 8836   3.778   2.850   6.001  1.2631 -0.3907  0.7102
   6823SM  C13S 8837   3.911   2.982   5.907  0.1392 -0.1702 -0.2745
   6823SM  H13S 8838   4.001   2.916   5.913 -0.0967 -0.6287 -1.4677
   6823SM  H13T 8839   3.953   3.084   5.919  0.4435 -0.4385  1.0498
   6823SM  C14S 8840   3.867   2.966   5.755  0.0503  0.3042  0.6535
   6823SM  H14S 8841   3.834   2.863   5.729 -0.3109  1.1167 -2.6503
   6823SM  H14T 8842   3.960   2.987   5.697  0.8477  0.1050  1.8392
   6823SM  C15S 8843   3.767   3.075   5.719 -0.0832 -0.5693 -0.6246
   6823SM  H15S 8844   3.804   3.167   5.769 -1.2169 -1.0100  1.1219
   6823SM  H15T 8845   3.665   3.063   5.761  0.3507  0.5021  0.8554
   6823SM  C16S 8846   3.755   3.092   5.568  0.0677  0.0181  0.2903
   6823SM  H16S 8847   3.718   2.998   5.522  1.0352 -0.6719  0.8967
   6823SM  H16T 8848   3.849   3.119   5.516 -0.6306  2.2486  0.0851
   6823SM  C17S 8849   3.648   3.206   5.546 -0.7628  1.0295 -0.3478
   6823SM  H17S 8850   3.669   3.236   5.441  0.1128 -1.6354 -1.0141
   6823SM  H17T 8851   3.672   3.296   5.608 -2.2314  0.1022  1.6966
   6823SM  C18S 8852   3.506   3.159   5.550  0.0283 -0.2818 -0.6271
   6823SM  H18S 8853   3.452   3.256   5.553 -1.5937 -1.1268 -0.8723
   6823SM  H18T 8854   3.497   3.092   5.638  1.7722  0.4361  0.1414
   6823SM  H18U 8855   3.488   3.099   5.458  1.3535  0.4466 -1.3823
   6823SM   C1F 8856   4.085   2.417   7.043  0.3783 -0.1247  0.2500
   6823SM    OF 8857   3.989   2.363   7.099 -0.0989 -0.0778  0.4286
   6823SM   C2F 8858   4.186   2.345   6.947 -0.9486 -0.1412 -0.1457
   6823SM   H2F 8859   4.277   2.403   6.973 -1.1205  1.0814 -2.0910
   6823SM   H2G 8860   4.160   2.366   6.842  1.2401  1.0906 -0.5038
   6823SM   C3F 8861   4.184   2.201   6.979  0.1112 -0.3013 -0.2850
   6823SM   H3F 8862   4.079   2.168   6.965 -0.0583 -0.1534  0.5455
   6823SM   H3G 8863   4.207   2.174   7.085  0.6559 -1.6995 -0.7448
   6823SM   C4F 8864   4.276   2.110   6.897  0.6025 -0.6232  0.6021
   6823SM   H4F 8865   4.279   2.000   6.914  0.0070 -0.4735  1.7462
   6823SM   H4G 8866   4.381   2.141   6.919  0.5971  0.9591 -1.3046
   6823SM   C5F 8867   4.255   2.133   6.745 -0.1197 -0.7540 -0.7305
   6823SM   H5F 8868   4.306   2.228   6.720 -1.2901 -0.4510 -2.1348
   6823SM   H5G 8869   4.146   2.140   6.728 -0.2864 -1.0613  0.1909
   6823SM   C6F 8870   4.319   2.027   6.664  0.0289  0.5132  0.2587
   6823SM   H6F 8871   4.253   1.939   6.644 -0.4140  0.6683  1.0114
   6823SM   H6G 8872   4.409   1.987   6.714 -1.5385  0.2880  3.1132
   6823SM   C7F 8873   4.375   2.076   6.529  0.2275 -0.7252 -0.1225
   6823SM   H7F 8874   4.424   1.988   6.483  2.3047  0.9669 -1.3381
   6823SM   H7G 8875   4.443   2.164   6.539 -0.4069 -0.0797 -1.2079
   6823SM   C8F 8876   4.258   2.112   6.443 -0.2230  0.0442  0.4632
   6823SM   H8F 8877   4.201   2.191   6.497  0.9063  1.2081 -0.0163
   6823SM   H8G 8878   4.200   2.020   6.420 -1.6238  1.3922 -1.8027
   6823SM   C9F 8879   4.317   2.159   6.315 -0.1406  0.1485  0.7485
   6823SM   H9F 8880   4.404   2.097   6.284  1.1048  0.8513  2.6576
   6823SM   H9G 8881   4.368   2.256   6.331  1.4427 -0.6694  0.9197
   6823SM  C10F 8882   4.212   2.183   6.195 -0.5031  0.5347 -0.8149
   6823SM  H10F 8883   4.148   2.271   6.213  0.9878  1.2569  1.4060
   6823SM  H10G 8884   4.144   2.096   6.182  1.2976 -1.5662  2.4441
   6823SM  C11F 8885   4.282   2.200   6.057  0.4031 -0.5474 -0.7555
   6823SM  H11F 8886   4.357   2.282   6.063 -2.2324  1.9253  1.6523
   6823SM  H11G 8887   4.210   2.254   5.992  2.5227  2.9527 -0.4593
   6823SM  C12F 8888   4.334   2.078   5.983 -0.4111  0.2565 -0.0213
   6823SM  H12F 8889   4.284   1.984   6.014 -1.4151  0.6959 -0.2590
   6823SM  H12G 8890   4.439   2.062   6.014 -0.3411 -0.3406 -0.5710
   6823SM  C13F 8891   4.339   2.089   5.831  0.0354 -0.1457  0.4226
   6823SM  H13F 8892   4.371   2.191   5.799  1.6622 -0.7086  0.1359
   6823SM  H13G 8893   4.241   2.076   5.781  1.5488 -0.7646 -2.6248
   6823SM  C14F 8894   4.429   1.991   5.751  0.1144 -0.7660  0.3573
   6823SM  H14F 8895   4.398   1.886   5.767  1.8759 -1.2463  0.7345
   6823SM  H14G 8896   4.533   1.996   5.789 -0.1896 -1.5824  1.3358
   6823SM  C15F 8897   4.435   2.029   5.600 -0.6516  0.1376 -0.4320
   6823SM  H15F 8898   4.505   1.959   5.550 -0.5202 -1.4428  1.8142
   6823SM  H15G 8899   4.455   2.138   5.595 -0.4854  0.2668  1.7924
   6823SM  C16F 8900   4.309   1.986   5.527 -0.5348 -1.1705  0.0781
   6823SM  H16F 8901   4.215   2.003   5.584  0.0942 -0.7112  1.0041
   6823SM  H16G 8902   4.306   1.877   5.508  0.6785 -0.9085 -1.8546
   6823SM  C17F 8903   4.281   2.058   5.389 -0.0336 -0.1911 -0.1670
   6823SM  H17F 8904   4.255   2.166   5.394  0.8472  0.0010  0.5855
   6823SM  H17G 8905   4.191   2.007   5.349 -0.7880  0.3490  0.7840
   6823SM  C18F 8906   4.395   2.047   5.285  0.0909 -0.5826 -0.5366
   6823SM  H18F 8907   4.417   1.942   5.256  3.0025 -0.0408 -0.6255
   6823SM  H18G 8908   4.489   2.083   5.333  0.0850 -1.1943 -0.0510
   6823SM  C19F 8909   4.355   2.114   5.150 -0.1999  0.6348 -0.1380
   6823SM  H19F 8910   4.338   2.223   5.165 -1.0827  0.3795  0.8876
   6823SM  H19G 8911   4.263   2.058   5.123  0.5300 -0.2492 -0.8662
   6823SM  C20F 8912   4.462   2.077   5.049  0.0021  0.0509  0.2398
   6823SM  H20F 8913   4.422   2.106   4.949  0.0523  0.5506  0.3631
   6823SM  H20G 8914   4.481   1.968   5.042  0.8960  0.2806 -1.3865
   6823SM  C21F 8915   4.596   2.140   5.082  0.3590 -0.2601 -0.0738
   6823SM  H21F 8916   4.651   2.113   5.175 -1.6496  0.4993  1.3921
   6823SM  H21G 8917   4.571   2.248   5.090  0.2569 -0.3193  0.3944
   6823SM  C22F 8918   4.704   2.130   4.969  0.3949  0.3735 -0.0867
   6823SM  H22F 8919   4.660   2.167   4.874 -2.4019  0.6170  1.1986
   6823SM  H22G 8920   4.720   2.020   4.958  1.7680  0.5752 -0.1826
   6823SM  C23F 8921   4.831   2.193   5.012 -0.3069 -0.0707  0.0815
   6823SM  H23F 8922   4.809   2.300   5.031 -0.8182  0.0065 -0.8816
   6823SM  H23G 8923   4.910   2.186   4.935  0.4667 -0.5194  0.8980
   6823SM  H23H 8924   4.865   2.157   5.111 -1.9694 -0.9037  0.3893
   6923SM     N 8925   7.073   2.314   7.213 -0.3556 -0.4292 -0.8448
   6923SM   C15 8926   7.101   2.379   7.352  0.5694  0.1501  0.1532
   6923SM  H15A 8927   7.103   2.485   7.334 -1.8026  0.0498 -1.0737
   6923SM  H15B 8928   7.189   2.349   7.408  2.0853  2.9405 -0.5819
   6923SM  H15C 8929   7.015   2.365   7.417  0.6347  1.7066  0.6032
   6923SM   C14 8930   7.194   2.339   7.136 -0.3982  0.5393 -0.0453
   6923SM  H14A 8931   7.284   2.306   7.186 -0.9980  0.4720  1.0318
   6923SM  H14B 8932   7.212   2.444   7.120  0.5847  0.4899  0.6709
   6923SM  H14C 8933   7.190   2.305   7.033  1.1084  0.9804 -0.2688
   6923SM   C13 8934   7.048   2.169   7.226 -0.0325  0.1679 -0.0350
   6923SM  H13A 8935   6.963   2.145   7.288 -0.1857 -0.5286 -0.5062
   6923SM  H13B 8936   7.133   2.118   7.268  0.3973  0.2385 -0.7950
   6923SM  H13C 8937   7.031   2.141   7.123 -1.0555  1.6675 -0.3060
   6923SM   C12 8938   6.956   2.405   7.175  0.1145  0.2698 -0.5132
   6923SM  H12A 8939   6.994   2.506   7.165 -1.1313  1.1320  2.3574
   6923SM  H12B 8940   6.881   2.400   7.253  0.1780  0.4783 -0.4403
   6923SM   C11 8941   6.881   2.356   7.042 -0.5909  0.3511  0.0441
   6923SM  H11A 8942   6.849   2.251   7.059 -1.6892  0.4175 -1.4039
   6923SM  H11B 8943   6.962   2.345   6.966  1.5304  0.3996  2.1941
   6923SM     P 8944   6.794   2.577   6.931 -0.4073  0.2343 -0.2151
   6923SM   O13 8945   6.722   2.676   7.015 -0.0173  0.0649 -0.2001
   6923SM   O14 8946   6.939   2.608   6.928  0.1765  0.4147 -0.1836
   6923SM   O11 8947   6.736   2.555   6.788 -0.1961  0.4425 -0.3523
   6923SM   O12 8948   6.775   2.439   7.012 -0.1897  0.1707  0.3956
   6923SM   C1S 8949   6.609   2.603   6.748  0.4265 -0.2085  0.0834
   6923SM   H1S 8950   6.615   2.714   6.746  0.3864 -0.1867  1.0104
   6923SM   H1T 8951   6.525   2.574   6.813  0.7704 -1.7874 -0.1469
   6923SM    NF 8952   6.476   2.626   6.533 -0.3164  0.0824 -0.4534
   6923SM   HNF 8953   6.396   2.572   6.508 -0.3971  1.5272 -3.8490
   6923SM   C2S 8954   6.582   2.551   6.602 -0.3237 -0.1178 -0.0851
   6923SM   H2S 8955   6.674   2.568   6.541  0.8614 -1.4800  1.2454
   6923SM   C3S 8956   6.558   2.393   6.607 -0.2687 -0.3290 -0.5059
   6923SM   H3S 8957   6.462   2.373   6.659  1.1391 -1.0283  2.0191
   6923SM    O3 8958   6.654   2.318   6.686 -0.5145  0.0021 -0.3062
   6923SM   HO3 8959   6.705   2.383   6.735 -1.3622 -1.4296  2.7196
   6923SM   C4S 8960   6.565   2.350   6.473  0.6857 -0.1123 -0.3097
   6923SM   H4S 8961   6.662   2.376   6.428  1.3222  0.5410  1.3463
   6923SM   C5S 8962   6.462   2.313   6.399 -0.4043  0.4551 -0.5436
   6923SM   H5S 8963   6.360   2.302   6.438  0.3592  1.2106  1.8231
   6923SM   C6S 8964   6.468   2.295   6.252  0.1266 -0.3194  0.2392
   6923SM   H6S 8965   6.451   2.191   6.215  0.3104 -0.0771 -0.5445
   6923SM   H6T 8966   6.564   2.327   6.206  1.1397 -0.9594  1.8087
   6923SM   C7S 8967   6.357   2.389   6.186 -0.2190  0.5268  0.2704
   6923SM   H7S 8968   6.356   2.493   6.226 -1.2358  1.0285 -0.9714
   6923SM   H7T 8969   6.255   2.351   6.210 -1.6883  2.8222 -1.8541
   6923SM   C8S 8970   6.391   2.393   6.035  0.9171 -0.2499 -0.0274
   6923SM   H8S 8971   6.413   2.292   5.993  0.1171 -0.0631 -0.9245
   6923SM   H8T 8972   6.481   2.457   6.021 -0.6360  2.1975  0.5489
   6923SM   C9S 8973   6.285   2.451   5.936  0.6627  0.1478 -0.4973
   6923SM   H9S 8974   6.255   2.547   5.983 -1.7010 -0.9341  0.3501
   6923SM   H9T 8975   6.201   2.379   5.932  1.2507 -0.5116 -1.5125
   6923SM  C10S 8976   6.331   2.485   5.791 -0.3279  0.1674 -0.0820
   6923SM  H10S 8977   6.433   2.529   5.795  0.3637 -1.3675 -0.0665
   6923SM  H10T 8978   6.254   2.552   5.746 -2.0743 -2.3496 -1.0431
   6923SM  C11S 8979   6.345   2.368   5.686 -0.0727  0.0155 -0.1081
   6923SM  H11S 8980   6.420   2.302   5.733  1.4284  2.5762  1.3081
   6923SM  H11T 8981   6.387   2.407   5.591  1.0495 -1.5722 -0.2778
   6923SM  C12S 8982   6.218   2.290   5.658  0.3564 -0.2032  0.4301
   6923SM  H12S 8983   6.168   2.247   5.748 -4.1628 -0.1517 -1.7570
   6923SM  H12T 8984   6.250   2.209   5.589  0.4276 -1.6031  2.0486
   6923SM  C13S 8985   6.110   2.364   5.580 -0.4533  0.0075  0.5456
   6923SM  H13S 8986   6.159   2.418   5.495 -0.8984 -0.1725  0.1734
   6923SM  H13T 8987   6.074   2.448   5.643 -0.4815  1.2246 -1.0228
   6923SM  C14S 8988   5.989   2.271   5.543 -0.1871 -0.5909 -1.1879
   6923SM  H14S 8989   5.938   2.236   5.635 -0.2678  0.9144 -0.6228
   6923SM  H14T 8990   6.023   2.172   5.507  2.6644  0.4543 -1.6909
   6923SM  C15S 8991   5.900   2.333   5.440  0.2681 -0.2961 -0.0881
   6923SM  H15S 8992   5.946   2.297   5.345  4.0611  3.9943 -0.2164
   6923SM  H15T 8993   5.904   2.444   5.439 -1.1455 -0.0713  3.6858
   6923SM  C16S 8994   5.752   2.298   5.445 -0.2639 -0.1126  0.3352
   6923SM  H16S 8995   5.698   2.376   5.386  0.9086  2.4118  2.3632
   6923SM  H16T 8996   5.721   2.314   5.551 -0.5513 -0.5823  0.3222
   6923SM  C17S 8997   5.719   2.157   5.412 -0.0245  0.9357  0.2902
   6923SM  H17S 8998   5.615   2.131   5.441  1.0557 -2.8526  1.4758
   6923SM  H17T 8999   5.778   2.091   5.480 -0.1685 -0.2152 -0.6576
   6923SM  C18S 9000   5.749   2.127   5.259  0.7899  0.1859  0.3557
   6923SM  H18S 9001   5.859   2.134   5.244  0.8264  1.8156  1.1069
   6923SM  H18T 9002   5.697   2.206   5.201 -0.4871 -1.2870 -0.5626
   6923SM  H18U 9003   5.713   2.030   5.218  0.6396  0.5962 -0.4956
   6923SM   C1F 9004   6.482   2.752   6.510 -0.6087  0.2488 -0.3112
   6923SM    OF 9005   6.572   2.817   6.554 -0.2383 -0.1303  0.3361
   6923SM   C2F 9006   6.362   2.806   6.433 -0.2545 -0.1812 -0.2766
   6923SM   H2F 9007   6.283   2.816   6.510 -0.3257  0.3550 -0.4140
   6923SM   H2G 9008   6.338   2.725   6.362  1.7194 -0.6450 -0.4924
   6923SM   C3F 9009   6.390   2.947   6.373 -0.4241  0.3750 -0.1703
   6923SM   H3F 9010   6.430   3.014   6.453  0.7721 -1.1729  0.5672
   6923SM   H3G 9011   6.299   2.993   6.327  1.0153  1.3780 -2.1492
   6923SM   C4F 9012   6.496   2.946   6.258 -0.0153 -0.6173  0.2558
   6923SM   H4F 9013   6.598   2.951   6.302  1.3839 -1.0214 -2.7279
   6923SM   H4G 9014   6.481   3.043   6.205  2.6002 -1.0430 -1.4080
   6923SM   C5F 9015   6.483   2.842   6.149 -0.2129 -0.5346 -0.4805
   6923SM   H5F 9016   6.375   2.855   6.125 -0.5393  1.4746  1.7095
   6923SM   H5G 9017   6.506   2.743   6.195  1.0237  0.8867  2.1920
   6923SM   C6F 9018   6.559   2.889   6.024 -0.1171  0.2894 -0.0075
   6923SM   H6F 9019   6.667   2.891   6.050 -0.4689 -0.7242  1.6933
   6923SM   H6G 9020   6.527   2.990   5.989  0.6349  0.4854 -0.1566
   6923SM   C7F 9021   6.527   2.787   5.912  0.9446 -0.0459 -0.1257
   6923SM   H7F 9022   6.419   2.782   5.885  0.9495 -1.1075 -0.0119
   6923SM   H7G 9023   6.561   2.684   5.937  1.1461 -0.1022 -0.6294
   6923SM   C8F 9024   6.593   2.831   5.774 -0.1151 -0.4708  0.5362
   6923SM   H8F 9025   6.704   2.837   5.775 -0.1833  1.6541  2.4033
   6923SM   H8G 9026   6.563   2.933   5.742  0.3825 -0.6340 -0.5119
   6923SM   C9F 9027   6.553   2.741   5.658  0.2979  0.0169  0.8460
   6923SM   H9F 9028   6.448   2.704   5.663  0.3369  0.0053  1.8091
   6923SM   H9G 9029   6.611   2.647   5.654 -2.6814 -1.9435 -0.0526
   6923SM  C10F 9030   6.564   2.805   5.520 -0.0610  0.1564  0.0018
   6923SM  H10F 9031   6.671   2.815   5.493 -0.2038  0.4516 -0.4550
   6923SM  H10G 9032   6.510   2.901   5.507  1.5618  1.0706 -0.2239
   6923SM  C11F 9033   6.501   2.719   5.406 -0.4743 -0.0843  0.0847
   6923SM  H11F 9034   6.513   2.779   5.314 -3.1787  1.2983  0.5206
   6923SM  H11G 9035   6.391   2.707   5.419 -0.2104  0.2371  3.8148
   6923SM  C12F 9036   6.554   2.571   5.395 -0.5128  0.7082  0.6071
   6923SM  H12F 9037   6.501   2.513   5.474  1.6656 -1.5302  0.5343
   6923SM  H12G 9038   6.662   2.570   5.422 -0.1817 -0.7018 -0.6902
   6923SM  C13F 9039   6.522   2.502   5.258  0.9053  0.3159  0.0308
   6923SM  H13F 9040   6.559   2.398   5.255 -0.4010 -0.2218  1.3678
   6923SM  H13G 9041   6.576   2.563   5.182 -1.0140  0.7521 -1.0394
   6923SM  C14F 9042   6.375   2.514   5.214 -0.6474  0.2793  0.2314
   6923SM  H14F 9043   6.345   2.619   5.192  0.3306  0.6511  0.5985
   6923SM  H14G 9044   6.318   2.477   5.302 -1.9994  0.9546 -0.3260
   6923SM  C15F 9045   6.335   2.435   5.090 -0.2366  0.4285 -0.8547
   6923SM  H15F 9046   6.354   2.328   5.110 -2.9327 -0.2694 -1.5978
   6923SM  H15G 9047   6.399   2.466   5.004  0.9389 -0.8930 -0.4825
   6923SM  C16F 9048   6.186   2.451   5.066 -0.4609  0.2915  0.1782
   6923SM  H16F 9049   6.166   2.553   5.026  1.0138  0.2164 -0.8437
   6923SM  H16G 9050   6.136   2.430   5.162  2.0797 -0.2292  1.4699
   6923SM  C17F 9051   6.139   2.353   4.956  0.1607 -0.1249  0.2596
   6923SM  H17F 9052   6.029   2.340   4.967 -0.1761  1.7691 -0.3882
   6923SM  H17G 9053   6.184   2.257   4.988  2.3173  0.3467 -1.1358
   6923SM  C18F 9054   6.177   2.396   4.811 -0.2075 -0.0574  0.0106
   6923SM  H18F 9055   6.147   2.312   4.744 -0.0849  1.9784 -2.7483
   6923SM  H18G 9056   6.288   2.396   4.807 -0.0404 -3.3096  1.4771
   6923SM  C19F 9057   6.098   2.516   4.753  0.1618 -0.1351 -0.2658
   6923SM  H19F 9058   6.129   2.609   4.805  0.9521 -1.4148  1.6866
   6923SM  H19G 9059   5.994   2.505   4.790  0.0785 -0.9887 -0.7324
   6923SM  C20F 9060   6.097   2.520   4.595  0.6788 -0.5247 -0.1872
   6923SM  H20F 9061   6.064   2.419   4.563  1.0568 -1.1917  1.4524
   6923SM  H20G 9062   6.200   2.539   4.559  0.4302 -0.5668 -0.9526
   6923SM  C21F 9063   5.998   2.612   4.519 -0.5471 -0.0701 -0.2856
   6923SM  H21F 9064   5.921   2.651   4.588  0.5057  0.3461  0.6876
   6923SM  H21G 9065   5.940   2.559   4.440 -1.7977  0.2599  0.3873
   6923SM  C22F 9066   6.069   2.737   4.464  0.2419 -0.2615 -0.4572
   6923SM  H22F 9067   5.989   2.794   4.412  1.4235  1.6921 -0.2040
   6923SM  H22G 9068   6.150   2.717   4.391  1.6389  2.0466  0.3770
   6923SM  C23F 9069   6.143   2.820   4.566 -0.0022 -0.0829 -0.4424
   6923SM  H23F 9070   6.066   2.846   4.641  0.0620 -0.4516 -0.2457
   6923SM  H23G 9071   6.198   2.908   4.525  0.0651  1.2416  2.3288
   6923SM  H23H 9072   6.220   2.760   4.619 -0.9334 -0.1792  0.8232
   7023SM     N 9073   5.046   0.523   7.344  0.2145 -0.6682  0.0697
   7023SM   C15 9074   4.911   0.527   7.411  0.4766  0.3584  0.0707
   7023SM  H15A 9075   4.882   0.627   7.440 -2.4600 -1.0420  2.5838
   7023SM  H15B 9076   4.907   0.468   7.502 -0.8149 -0.7995 -0.6924
   7023SM  H15C 9077   4.832   0.492   7.346  1.2085  2.9153 -2.3645
   7023SM   C14 9078   5.148   0.571   7.440  0.4301 -0.2110  0.8512
   7023SM  H14A 9079   5.240   0.566   7.384 -0.5817  0.2742 -0.9537
   7023SM  H14B 9080   5.159   0.502   7.522 -0.2841 -0.5837  0.6389
   7023SM  H14C 9081   5.137   0.672   7.478  1.1637  1.1688 -2.2558
   7023SM   C13 9082   5.078   0.387   7.305 -0.3730  0.0671  0.0172
   7023SM  H13A 9083   4.995   0.357   7.242 -0.6456  1.1696 -0.1635
   7023SM  H13B 9084   5.078   0.321   7.391 -1.8311 -1.6576 -1.2232
   7023SM  H13C 9085   5.172   0.375   7.254 -0.3570 -1.1864  0.3062
   7023SM   C12 9086   5.039   0.624   7.225  0.1285  0.1730  0.6171
   7023SM  H12A 9087   5.022   0.719   7.275  0.5025  0.2636  0.5781
   7023SM  H12B 9088   4.954   0.602   7.164  0.8756  2.1599 -1.2816
   7023SM   C11 9089   5.155   0.640   7.136  0.0128  0.5610  0.3467
   7023SM  H11A 9090   5.123   0.688   7.040  0.7123  0.8796  0.2675
   7023SM  H11B 9091   5.192   0.541   7.103 -0.3917  0.7403 -0.6887
   7023SM     P 9092   5.270   0.877   7.191  0.3607 -0.0895  0.1196
   7023SM   O13 9093   5.134   0.943   7.184 -0.1361 -0.0526 -0.3716
   7023SM   O14 9094   5.363   0.918   7.299 -0.0189 -0.0241 -0.4646
   7023SM   O11 9095   5.348   0.899   7.045 -0.3421  0.0340 -0.0854
   7023SM   O12 9096   5.261   0.715   7.196 -0.2917 -0.2398  0.1840
   7023SM   C1S 9097   5.425   0.793   6.980 -0.5276  0.1981  0.6524
   7023SM   H1S 9098   5.435   0.692   7.025  0.7786  0.0415  0.0604
   7023SM   H1T 9099   5.533   0.820   6.971 -0.5650 -0.3396 -2.5603
   7023SM    NF 9100   5.420   0.667   6.765 -0.3044  0.6873  0.4695
   7023SM   HNF 9101   5.486   0.686   6.693  0.6640 -0.3903  1.0452
   7023SM   C2S 9102   5.360   0.778   6.835  0.3955 -0.6710  0.4378
   7023SM   H2S 9103   5.253   0.756   6.855 -0.5516  2.7251 -0.2705
   7023SM   C3S 9104   5.365   0.907   6.749  0.5869 -0.7401 -0.1485
   7023SM   H3S 9105   5.462   0.962   6.751  0.1163  0.2756 -2.5971
   7023SM    O3 9106   5.280   0.999   6.811 -1.0149 -0.4940 -0.0466
   7023SM   HO3 9107   5.273   0.980   6.904 -2.3815  1.2242  0.2572
   7023SM   C4S 9108   5.313   0.886   6.616 -0.0098  0.1625  0.1937
   7023SM   H4S 9109   5.203   0.881   6.615  0.0442 -1.7200  0.5496
   7023SM   C5S 9110   5.384   0.857   6.504  0.6282 -0.2706 -0.0198
   7023SM   H5S 9111   5.494   0.847   6.502  1.0101  2.9149 -1.7658
   7023SM   C6S 9112   5.319   0.823   6.371  0.5735 -0.0659 -1.0621
   7023SM   H6S 9113   5.218   0.778   6.385  0.3524  0.0164 -2.2529
   7023SM   H6T 9114   5.381   0.764   6.299  2.9805  1.3761 -0.2688
   7023SM   C7S 9115   5.291   0.950   6.287  0.2305 -0.2603 -0.7734
   7023SM   H7S 9116   5.216   1.007   6.346  0.2025 -0.5440 -0.5316
   7023SM   H7T 9117   5.254   0.908   6.192  2.4627 -0.7692 -1.4820
   7023SM   C8S 9118   5.413   1.037   6.254 -0.0927  0.6314 -0.1182
   7023SM   H8S 9119   5.460   1.064   6.351 -2.1769 -1.5484  1.6338
   7023SM   H8T 9120   5.382   1.136   6.214 -0.1427  1.1188  1.0921
   7023SM   C9S 9121   5.511   0.981   6.150  0.1101  0.3297  0.1520
   7023SM   H9S 9122   5.463   0.931   6.063 -0.3783 -0.4022  0.8332
   7023SM   H9T 9123   5.561   0.897   6.203 -3.5793 -1.7070  0.6972
   7023SM  C10S 9124   5.621   1.087   6.122  0.2840  0.4399 -0.3985
   7023SM  H10S 9125   5.715   1.043   6.084 -0.5100  0.6491 -2.7427
   7023SM  H10T 9126   5.650   1.137   6.217  1.6252  0.5665 -0.8666
   7023SM  C11S 9127   5.578   1.185   6.016  0.1687 -0.2398  0.0287
   7023SM  H11S 9128   5.668   1.248   5.995  0.6117 -1.0396 -0.5328
   7023SM  H11T 9129   5.503   1.254   6.059  0.5591 -0.9900  2.0209
   7023SM  C12S 9130   5.519   1.129   5.874 -0.3446  0.1970  0.4956
   7023SM  H12S 9131   5.422   1.086   5.907  0.0517 -1.0112  0.1232
   7023SM  H12T 9132   5.593   1.052   5.844  0.0168  0.2237  1.3033
   7023SM  C13S 9133   5.474   1.234   5.774 -0.1353 -0.2579  0.2208
   7023SM  H13S 9134   5.435   1.325   5.825  0.6034  0.2482 -0.1071
   7023SM  H13T 9135   5.395   1.190   5.709  1.4476 -1.1279 -1.1756
   7023SM  C14S 9136   5.588   1.276   5.682 -0.2324  0.0695 -0.5538
   7023SM  H14S 9137   5.683   1.298   5.736 -1.1107 -1.0229  1.5714
   7023SM  H14T 9138   5.559   1.369   5.630 -3.1583  0.3225  1.3125
   7023SM  C15S 9139   5.624   1.176   5.571  0.6852  0.6123  1.2857
   7023SM  H15S 9140   5.525   1.153   5.526  1.5399  1.7069 -1.2879
   7023SM  H15T 9141   5.664   1.085   5.621 -0.4970 -0.1206  0.9579
   7023SM  C16S 9142   5.711   1.228   5.456 -0.4534 -0.3015  0.1949
   7023SM  H16S 9143   5.724   1.143   5.387  1.9091 -0.1491  0.3626
   7023SM  H16T 9144   5.810   1.241   5.504  0.9498  0.5532 -2.6967
   7023SM  C17S 9145   5.647   1.338   5.371  0.2726 -0.0307 -0.8283
   7023SM  H17S 9146   5.629   1.426   5.435  0.8803 -0.9498  0.6658
   7023SM  H17T 9147   5.540   1.312   5.355  0.2820  0.7233 -2.2137
   7023SM  C18S 9148   5.714   1.375   5.238  0.6722 -0.0600  0.4349
   7023SM  H18S 9149   5.740   1.290   5.171 -1.4117 -1.1959  0.9621
   7023SM  H18T 9150   5.811   1.422   5.263  0.4427  1.3544 -1.1862
   7023SM  H18U 9151   5.653   1.448   5.181  1.8032  2.1916  1.9438
   7023SM   C1F 9152   5.396   0.537   6.801  0.1364  0.7241 -0.0066
   7023SM    OF 9153   5.310   0.503   6.884 -0.0062 -0.3926 -0.2389
   7023SM   C2F 9154   5.493   0.437   6.735 -0.2706  0.0138 -0.7339
   7023SM   H2F 9155   5.482   0.339   6.787  2.6367 -0.2470 -0.4196
   7023SM   H2G 9156   5.600   0.462   6.754 -0.4755 -0.3922  1.2185
   7023SM   C3F 9157   5.470   0.409   6.584 -0.0288 -0.4887 -0.3388
   7023SM   H3F 9158   5.519   0.492   6.528 -0.8067 -0.2095 -0.6123
   7023SM   H3G 9159   5.360   0.419   6.574 -0.0867  2.8194  2.0432
   7023SM   C4F 9160   5.515   0.279   6.523  0.4132 -0.4612  0.0846
   7023SM   H4F 9161   5.437   0.205   6.552  0.2085 -0.3544 -0.1976
   7023SM   H4G 9162   5.608   0.236   6.567  0.8462 -0.7135 -1.0620
   7023SM   C5F 9163   5.531   0.279   6.373 -0.3621 -0.0653 -0.3934
   7023SM   H5F 9164   5.606   0.351   6.333  3.0480 -0.8873  3.6832
   7023SM   H5G 9165   5.431   0.318   6.345 -0.7236 -1.1212 -0.6012
   7023SM   C6F 9166   5.564   0.143   6.314  0.4347  0.0535  0.3721
   7023SM   H6F 9167   5.484   0.075   6.349  0.2028  0.5884  0.9128
   7023SM   H6G 9168   5.660   0.102   6.353  0.2966 -1.1457 -0.5047
   7023SM   C7F 9169   5.565   0.152   6.163 -0.7815  0.6581  0.7648
   7023SM   H7F 9170   5.651   0.220   6.140  0.7224 -1.4288 -0.0544
   7023SM   H7G 9171   5.477   0.207   6.123 -0.7207  0.2845  0.1118
   7023SM   C8F 9172   5.573   0.008   6.102 -0.7034  0.2831 -0.2722
   7023SM   H8F 9173   5.662  -0.043   6.145 -1.0915  0.0590  0.2700
   7023SM   H8G 9174   5.581   0.003   5.991 -2.0474 -1.0869 -0.3358
   7023SM   C9F 9175   5.450  -0.080   6.124 -0.7003 -0.3473  0.7524
   7023SM   H9F 9176   5.443  -0.080   6.235 -2.4019  0.7097  0.6926
   7023SM   H9G 9177   5.472  -0.183   6.089 -2.4397 -0.3374 -0.5327
   7023SM  C10F 9178   5.310  -0.042   6.067  1.4409  0.6144  0.3511
   7023SM  H10F 9179   5.265   0.055   6.095 -1.5353 -0.1748 -1.2678
   7023SM  H10G 9180   5.226  -0.111   6.090  0.9474  1.1882  0.2838
   7023SM  C11F 9181   5.316  -0.047   5.909 -0.3106 -0.3929  0.3867
   7023SM  H11F 9182   5.339  -0.148   5.868  2.0490  0.4741 -0.6183
   7023SM  H11G 9183   5.404   0.005   5.867 -0.9868 -0.5787 -1.3590
   7023SM  C12F 9184   5.194  -0.009   5.832 -0.3805 -0.7452  0.5829
   7023SM  H12F 9185   5.157   0.090   5.864  0.0056 -0.6456  0.7179
   7023SM  H12G 9186   5.113  -0.077   5.868  0.5932 -1.3457  1.6687
   7023SM  C13F 9187   5.197  -0.007   5.675 -0.8430 -0.3996 -0.2222
   7023SM  H13F 9188   5.095   0.006   5.633 -0.6868  0.5813 -0.3134
   7023SM  H13G 9189   5.219  -0.115   5.662 -1.8067 -0.5364 -0.8546
   7023SM  C14F 9190   5.295   0.089   5.595 -0.0556  0.4241  0.2252
   7023SM  H14F 9191   5.315   0.048   5.493 -1.3632  0.9759 -0.2780
   7023SM  H14G 9192   5.387   0.096   5.656 -2.3581  2.5343  3.7660
   7023SM  C15F 9193   5.249   0.236   5.586  0.3069 -0.1387 -0.7831
   7023SM  H15F 9194   5.337   0.290   5.543 -0.1801  1.5425  0.2103
   7023SM  H15G 9195   5.243   0.272   5.691  1.0165 -0.4162 -0.6472
   7023SM  C16F 9196   5.124   0.272   5.507  0.3005 -0.9642  0.0245
   7023SM  H16F 9197   5.117   0.383   5.497  1.1414 -0.8898  0.2044
   7023SM  H16G 9198   5.027   0.237   5.548 -0.1854 -0.0135 -0.2696
   7023SM  C17F 9199   5.146   0.209   5.362  0.0918 -0.4942 -0.2463
   7023SM  H17F 9200   5.121   0.101   5.366  1.1211 -0.7263  0.3783
   7023SM  H17G 9201   5.252   0.216   5.330  0.6280  0.8427  1.6369
   7023SM  C18F 9202   5.069   0.280   5.249  0.0489 -1.2253  0.0814
   7023SM  H18F 9203   5.107   0.380   5.221 -2.2892 -0.4130 -0.4375
   7023SM  H18G 9204   4.970   0.310   5.289  1.7646  2.9409  1.6936
   7023SM  C19F 9205   5.035   0.194   5.126 -0.2680 -0.1663  0.9625
   7023SM  H19F 9206   4.980   0.100   5.148 -2.5192  1.1000  1.0860
   7023SM  H19G 9207   5.130   0.164   5.078  1.1023  1.1194  2.7414
   7023SM  C20F 9208   4.952   0.262   5.027  0.3642 -0.8822 -0.0410
   7023SM  H20F 9209   4.870   0.321   5.072 -0.7408 -1.1570 -1.6012
   7023SM  H20G 9210   4.902   0.194   4.955 -3.1981  2.0594 -0.6027
   7023SM  C21F 9211   5.033   0.363   4.936  0.4896  0.2182  0.0797
   7023SM  H21F 9212   5.112   0.310   4.878  0.2771 -0.0177  0.0030
   7023SM  H21G 9213   5.087   0.437   5.000 -0.0254  2.9953 -2.4676
   7023SM  C22F 9214   4.944   0.446   4.834  0.6830  0.1888  0.2790
   7023SM  H22F 9215   4.904   0.369   4.765  1.7886 -0.2146  0.0657
   7023SM  H22G 9216   5.003   0.519   4.775 -1.4593  0.6682 -1.4007
   7023SM  C23F 9217   4.828   0.522   4.899 -0.0409 -0.5528 -0.1461
   7023SM  H23F 9218   4.856   0.556   5.001 -0.8136 -0.4989  0.0610
   7023SM  H23G 9219   4.738   0.460   4.919  0.2305 -0.4516  1.5503
   7023SM  H23H 9220   4.796   0.616   4.849 -1.3009 -0.4830  0.7247
   7123SM     N 9221   5.233   6.759   7.444 -0.6254 -0.4647  0.0626
   7123SM   C15 9222   5.136   6.649   7.458 -0.0061  0.3907 -0.8497
   7123SM  H15A 9223   5.041   6.677   7.415 -0.9346 -1.3684 -0.0330
   7123SM  H15B 9224   5.118   6.628   7.563  0.3895  3.5215 -0.0539
   7123SM  H15C 9225   5.169   6.565   7.399  0.3864 -0.0677 -0.0035
   7123SM   C14 9226   5.185   6.880   7.524  0.2550 -0.0048 -0.0694
   7123SM  H14A 9227   5.077   6.876   7.525  0.2876 -1.0951  0.0661
   7123SM  H14B 9228   5.205   6.977   7.482  0.5507 -1.0280 -2.4360
   7123SM  H14C 9229   5.214   6.879   7.628 -1.2767 -0.8299  0.3686
   7123SM   C13 9230   5.369   6.720   7.494  0.4467 -0.1613 -0.0150
   7123SM  H13A 9231   5.352   6.688   7.596 -0.3330  1.7956  0.5172
   7123SM  H13B 9232   5.442   6.799   7.498  1.2164 -0.8949  1.3837
   7123SM  H13C 9233   5.411   6.640   7.434  2.3499  1.1384 -0.4857
   7123SM   C12 9234   5.245   6.796   7.299 -0.0485  0.5064  0.8335
   7123SM  H12A 9235   5.325   6.869   7.290 -0.1515  0.3442 -3.0684
   7123SM  H12B 9236   5.154   6.846   7.268 -0.2635  0.6988  1.7419
   7123SM   C11 9237   5.273   6.689   7.200 -0.5825 -0.4904 -0.2216
   7123SM  H11A 9238   5.247   6.728   7.100  0.2534  2.4145  0.5947
   7123SM  H11B 9239   5.190   6.617   7.220 -0.6278  0.2132  2.6100
   7123SM     P 9240   5.528   6.681   7.150 -0.4188 -0.2913 -0.0005
   7123SM   O13 9241   5.527   6.826   7.155  0.0721  0.1502  0.9232
   7123SM   O14 9242   5.637   6.616   7.225 -1.1182 -0.0926 -0.2235
   7123SM   O11 9243   5.527   6.635   7.005  0.3897  0.2655  0.2483
   7123SM   O12 9244   5.399   6.623   7.211 -0.3999  0.0546  0.4069
   7123SM   C1S 9245   5.440   6.545   6.935 -0.2496  0.8949 -0.3676
   7123SM   H1S 9246   5.359   6.511   7.003 -1.0770  1.8597 -0.8336
   7123SM   H1T 9247   5.500   6.462   6.892  0.0599  1.0918 -0.3201
   7123SM    NF 9248   5.279   6.543   6.743  0.1511  1.2444 -0.2890
   7123SM   HNF 9249   5.308   6.489   6.665 -0.3276  1.2844 -0.4957
   7123SM   C2S 9250   5.379   6.623   6.811  0.0042 -0.2340 -0.2479
   7123SM   H2S 9251   5.321   6.705   6.858  1.1637  1.4118 -1.5557
   7123SM   C3S 9252   5.490   6.682   6.718  0.2012 -0.1032  0.7864
   7123SM   H3S 9253   5.553   6.597   6.685  1.3118 -0.0882  2.7235
   7123SM    O3 9254   5.584   6.771   6.776  0.2215 -0.7380  0.3449
   7123SM   HO3 9255   5.561   6.759   6.868  1.8030  0.0069  0.8766
   7123SM   C4S 9256   5.420   6.757   6.602 -0.2524  0.3487 -0.6791
   7123SM   H4S 9257   5.371   6.849   6.636  0.0794 -0.4358  2.1002
   7123SM   C5S 9258   5.397   6.709   6.477 -0.1042  0.6247  0.2705
   7123SM   H5S 9259   5.446   6.614   6.452  0.2428  0.8097  0.2452
   7123SM   C6S 9260   5.313   6.765   6.363  0.2270  0.3025  0.3116
   7123SM   H6S 9261   5.288   6.873   6.377 -1.0536  0.1453 -0.5671
   7123SM   H6T 9262   5.214   6.715   6.355  1.1831 -1.4863 -1.2462
   7123SM   C7S 9263   5.382   6.752   6.224 -0.3656  0.0684 -0.0329
   7123SM   H7S 9264   5.404   6.644   6.208 -1.3826  0.0136 -1.1135
   7123SM   H7T 9265   5.480   6.805   6.219  0.8876 -2.1928 -1.3233
   7123SM   C8S 9266   5.300   6.791   6.107  0.2769 -0.2042 -0.1006
   7123SM   H8S 9267   5.273   6.897   6.124  0.5852 -0.1781  0.2407
   7123SM   H8T 9268   5.206   6.736   6.087  0.4905 -0.2852 -0.9122
   7123SM   C9S 9269   5.367   6.775   5.972 -1.2183 -0.2887  0.6817
   7123SM   H9S 9270   5.388   6.666   5.959  0.2639  0.2457 -2.4718
   7123SM   H9T 9271   5.468   6.821   5.974 -0.3610 -2.0569  0.3969
   7123SM  C10S 9272   5.277   6.826   5.849  0.1692  0.0256 -0.3591
   7123SM  H10S 9273   5.271   6.937   5.851 -0.0750  0.0144  0.9927
   7123SM  H10T 9274   5.177   6.781   5.868  1.2963 -2.8824 -0.6865
   7123SM  C11S 9275   5.332   6.792   5.718  0.0600 -0.6095 -0.7428
   7123SM  H11S 9276   5.357   6.684   5.711 -3.2516 -1.5394 -0.1608
   7123SM  H11T 9277   5.418   6.857   5.692 -0.4136 -0.2187 -1.3768
   7123SM  C12S 9278   5.228   6.815   5.606  0.1686  0.6373  0.2761
   7123SM  H12S 9279   5.191   6.920   5.608 -1.6219  0.1024 -1.3091
   7123SM  H12T 9280   5.146   6.746   5.635  2.0451 -1.7976  0.1188
   7123SM  C13S 9281   5.291   6.784   5.467  0.1742  0.6286 -0.2125
   7123SM  H13S 9282   5.339   6.683   5.470 -2.0337 -0.4762 -0.3664
   7123SM  H13T 9283   5.369   6.862   5.453  1.7525 -0.4489  1.9634
   7123SM  C14S 9284   5.196   6.788   5.352  0.4626 -0.2047 -0.5253
   7123SM  H14S 9285   5.172   6.895   5.332  0.8514 -0.1196 -0.5417
   7123SM  H14T 9286   5.104   6.734   5.384  1.2803 -1.1956  0.1945
   7123SM  C15S 9287   5.237   6.714   5.222  0.6325  0.3629  0.0914
   7123SM  H15S 9288   5.152   6.733   5.152 -0.5067 -1.9457  0.7417
   7123SM  H15T 9289   5.252   6.604   5.223  1.1567  0.4098 -1.0684
   7123SM  C16S 9290   5.372   6.751   5.169 -0.8337 -0.0586  0.1781
   7123SM  H16S 9291   5.457   6.716   5.232  0.7930 -2.0081 -2.8025
   7123SM  H16T 9292   5.392   6.860   5.170 -1.0043 -0.0208 -0.2501
   7123SM  C17S 9293   5.403   6.693   5.035 -0.7484 -0.0493 -0.1162
   7123SM  H17S 9294   5.397   6.583   5.044  1.5309 -0.2087  0.0100
   7123SM  H17T 9295   5.512   6.708   5.019 -0.9910  0.3262 -1.6003
   7123SM  C18S 9296   5.308   6.733   4.919 -0.2533 -0.9160 -0.3779
   7123SM  H18S 9297   5.357   6.702   4.824  1.6856  3.0668 -0.8950
   7123SM  H18T 9298   5.305   6.844   4.919  0.1967 -0.8989 -0.1045
   7123SM  H18U 9299   5.204   6.695   4.927 -0.5620  0.1427  0.9532
   7123SM   C1F 9300   5.154   6.509   6.797 -0.1475 -0.4235 -0.3050
   7123SM    OF 9301   5.115   6.543   6.910  0.6315 -0.3223 -0.7205
   7123SM   C2F 9302   5.058   6.445   6.700 -0.8405 -0.1279 -0.4827
   7123SM   H2F 9303   5.093   6.346   6.666  1.0151  0.0518  0.7471
   7123SM   H2G 9304   5.049   6.519   6.618 -0.5021  1.0256  0.4876
   7123SM   C3F 9305   4.919   6.422   6.765  0.4590 -0.0834 -0.0843
   7123SM   H3F 9306   4.873   6.519   6.795  0.4146  0.1434 -0.8788
   7123SM   H3G 9307   4.923   6.356   6.855 -0.6443 -1.4720 -1.0180
   7123SM   C4F 9308   4.814   6.356   6.676  0.6485 -0.3742  0.2589
   7123SM   H4F 9309   4.721   6.342   6.736  0.2741 -1.9682 -0.6191
   7123SM   H4G 9310   4.851   6.254   6.652  0.4876 -0.2390 -0.5854
   7123SM   C5F 9311   4.797   6.436   6.546  0.2676  0.0212  0.4422
   7123SM   H5F 9312   4.892   6.424   6.489 -0.3112 -2.6526 -0.1026
   7123SM   H5G 9313   4.778   6.542   6.573 -0.6283  0.2333 -0.9585
   7123SM   C6F 9314   4.675   6.391   6.467  0.3203  0.6256  0.1767
   7123SM   H6F 9315   4.583   6.383   6.529  0.6075 -0.9547  0.4400
   7123SM   H6G 9316   4.705   6.297   6.415  4.6015  2.1310 -0.5126
   7123SM   C7F 9317   4.651   6.490   6.348  0.2002 -0.4185  0.2082
   7123SM   H7F 9318   4.748   6.486   6.293  0.9043  2.8162  0.9573
   7123SM   H7G 9319   4.633   6.593   6.387 -1.1477 -1.6616  3.1622
   7123SM   C8F 9320   4.535   6.445   6.260  0.1092  0.2124  0.0996
   7123SM   H8F 9321   4.442   6.452   6.321  0.2633 -2.5202  0.7721
   7123SM   H8G 9322   4.552   6.337   6.240  3.1526  0.5859  0.3266
   7123SM   C9F 9323   4.530   6.509   6.120  0.3174 -0.8480  0.3055
   7123SM   H9F 9324   4.631   6.498   6.074  0.8396  0.4381  1.0765
   7123SM   H9G 9325   4.502   6.616   6.119  0.7389 -0.7288  0.6526
   7123SM  C10F 9326   4.426   6.450   6.027  0.0838  0.2508  0.2478
   7123SM  H10F 9327   4.323   6.459   6.066 -1.1902 -3.1282 -1.8360
   7123SM  H10G 9328   4.452   6.342   6.022  0.5223  0.2874  1.4028
   7123SM  C11F 9329   4.439   6.527   5.894  0.3455 -0.2180 -0.4978
   7123SM  H11F 9330   4.543   6.534   5.856 -0.0761  0.2114 -1.6114
   7123SM  H11G 9331   4.399   6.627   5.921  2.3223  0.4645  0.0902
   7123SM  C12F 9332   4.353   6.455   5.790 -0.4173 -0.0978  0.5701
   7123SM  H12F 9333   4.353   6.345   5.808 -2.3481 -0.4521 -1.2066
   7123SM  H12G 9334   4.391   6.465   5.686  0.4017 -0.0632  0.8668
   7123SM  C13F 9335   4.211   6.510   5.787 -0.0802 -0.0249 -0.6872
   7123SM  H13F 9336   4.196   6.606   5.732 -1.4847  0.2537  0.1545
   7123SM  H13G 9337   4.169   6.518   5.889 -2.6130 -0.4760 -1.6301
   7123SM  C14F 9338   4.121   6.408   5.707  0.6132  0.1501 -0.0552
   7123SM  H14F 9339   4.098   6.314   5.762 -1.1924  0.5192 -0.1179
   7123SM  H14G 9340   4.190   6.383   5.624  0.2827  2.7649 -1.2220
   7123SM  C15F 9341   3.993   6.463   5.643  0.1675 -0.2090  0.0408
   7123SM  H15F 9342   3.955   6.388   5.570  0.7554  0.0967 -0.5900
   7123SM  H15G 9343   4.022   6.559   5.595 -1.8451 -0.7996 -2.5169
   7123SM  C16F 9344   3.882   6.496   5.748 -0.0093  0.1564  0.3927
   7123SM  H16F 9345   3.849   6.402   5.797  0.5911 -0.7688 -0.9115
   7123SM  H16G 9346   3.793   6.529   5.691  0.6408 -0.4795 -1.0652
   7123SM  C17F 9347   3.918   6.601   5.859 -0.3726 -0.1675  0.1622
   7123SM  H17F 9348   3.929   6.702   5.815 -2.1072  0.3220  0.7491
   7123SM  H17G 9349   4.003   6.565   5.920 -0.7236 -1.1655  0.0739
   7123SM  C18F 9350   3.795   6.598   5.959 -0.1072 -0.4015 -0.4689
   7123SM  H18F 9351   3.752   6.496   5.971 -1.4860  0.3609  1.7006
   7123SM  H18G 9352   3.717   6.651   5.899  1.4592 -2.0718 -4.3164
   7123SM  C19F 9353   3.816   6.664   6.098  0.9101  0.2466 -0.1890
   7123SM  H19F 9354   3.719   6.716   6.111  1.1296  0.8840 -1.0399
   7123SM  H19G 9355   3.892   6.745   6.095  2.0777 -0.7367  1.2215
   7123SM  C20F 9356   3.839   6.582   6.224 -0.3039  0.2310  0.5438
   7123SM  H20F 9357   3.937   6.532   6.210 -0.0221  1.3100 -1.9673
   7123SM  H20G 9358   3.772   6.493   6.224  1.6837 -1.3382  0.9814
   7123SM  C21F 9359   3.818   6.661   6.357  0.4720  0.4205  0.1356
   7123SM  H21F 9360   3.716   6.703   6.368  0.5559  1.2461 -1.7394
   7123SM  H21G 9361   3.893   6.743   6.366  0.1459  0.9126 -1.3901
   7123SM  C22F 9362   3.840   6.577   6.482  0.4937  0.3381  0.5931
   7123SM  H22F 9363   3.946   6.542   6.484 -0.4541 -2.9530 -0.5060
   7123SM  H22G 9364   3.791   6.479   6.468  2.2663 -0.3747 -1.1338
   7123SM  C23F 9365   3.814   6.661   6.611  0.8462  0.7799 -0.3021
   7123SM  H23F 9366   3.706   6.686   6.618  0.5953  0.4923 -2.3656
   7123SM  H23G 9367   3.869   6.757   6.607  2.8171 -0.3158 -1.8811
   7123SM  H23H 9368   3.837   6.599   6.700  0.7629  0.3351 -0.5823
   7223SM     N 9369   7.311   3.948   7.086 -0.4417  0.2786  0.4631
   7223SM   C15 9370   7.333   3.958   6.937  0.2224 -0.1592  0.0808
   7223SM  H15A 9371   7.261   3.897   6.886 -0.4919 -1.0418  2.0270
   7223SM  H15B 9372   7.427   3.919   6.900  0.0379 -0.9220  0.3951
   7223SM  H15C 9373   7.318   4.060   6.904  2.6708  0.1461 -0.2966
   7223SM   C14 9374   7.321   3.803   7.125  0.0241  0.4233 -0.0832
   7223SM  H14A 9375   7.233   3.753   7.087  1.0055  0.2712 -2.3124
   7223SM  H14B 9376   7.325   3.799   7.233  0.2525  2.1035 -0.0046
   7223SM  H14C 9377   7.404   3.749   7.081 -2.5374 -2.5550 -1.6053
   7223SM   C13 9378   7.406   4.029   7.163  0.0996  0.2520  0.1577
   7223SM  H13A 9379   7.386   4.007   7.267  2.4113 -0.9367  0.4358
   7223SM  H13B 9380   7.406   4.136   7.146 -0.3443  0.1654 -0.4207
   7223SM  H13C 9381   7.509   4.001   7.143 -0.0673 -0.4923  0.2953
   7223SM   C12 9382   7.164   3.994   7.131 -0.0253  0.5731 -0.2895
   7223SM  H12A 9383   7.168   4.102   7.133  2.5626  0.5387 -1.0043
   7223SM  H12B 9384   7.156   3.955   7.231  0.5855 -0.3799 -0.6082
   7223SM   C11 9385   7.041   3.939   7.051  0.6369 -0.6415 -0.2195
   7223SM  H11A 9386   7.032   3.996   6.956  0.1868 -1.2877 -0.5712
   7223SM  H11B 9387   6.944   3.959   7.101 -1.0877 -0.0062 -3.5454
   7223SM     P 9388   6.933   3.736   6.955 -0.1973  0.2700  0.2541
   7223SM   O13 9389   6.912   3.604   7.008 -0.2064 -0.1445  0.1174
   7223SM   O14 9390   6.816   3.827   6.944  0.9902  0.0669 -0.0173
   7223SM   O11 9391   6.982   3.719   6.812  0.1585 -0.1459 -0.1106
   7223SM   O12 9392   7.050   3.801   7.042 -0.0603  0.1105  1.0116
   7223SM   C1S 9393   7.096   3.634   6.793  0.0187 -0.0652 -0.2565
   7223SM   H1S 9394   7.065   3.528   6.805  0.4854 -0.1839 -0.0813
   7223SM   H1T 9395   7.177   3.664   6.862 -2.1577  2.0800  1.5755
   7223SM    NF 9396   7.255   3.551   6.633 -0.5496 -0.0216  0.1994
   7223SM   HNF 9397   7.348   3.587   6.636 -0.5622 -0.0074  0.4270
   7223SM   C2S 9398   7.153   3.649   6.646  0.4954  0.0349  0.2231
   7223SM   H2S 9399   7.069   3.632   6.575 -0.3699  0.2291  1.1821
   7223SM   C3S 9400   7.198   3.797   6.621 -0.0947 -0.5539 -0.2221
   7223SM   H3S 9401   7.274   3.810   6.701 -1.2020  0.6484  0.6697
   7223SM    O3 9402   7.119   3.904   6.663  0.2252 -0.0571  0.1891
   7223SM   HO3 9403   7.060   3.854   6.720  0.0661  0.3117  0.3517
   7223SM   C4S 9404   7.258   3.818   6.487  0.0225 -0.5758  0.9355
   7223SM   H4S 9405   7.367   3.825   6.475  0.2401 -2.8838  1.2904
   7223SM   C5S 9406   7.189   3.848   6.371 -0.5557 -0.3556  0.1077
   7223SM   H5S 9407   7.079   3.854   6.374 -0.5108  0.5838  0.2963
   7223SM   C6S 9408   7.260   3.889   6.243  0.0200  0.0311 -0.5374
   7223SM   H6S 9409   7.370   3.887   6.257  0.0270  1.9123  0.0646
   7223SM   H6T 9410   7.255   4.000   6.233  1.8316  0.2619  0.6575
   7223SM   C7S 9411   7.214   3.806   6.117 -0.4039 -0.6286 -0.2645
   7223SM   H7S 9412   7.104   3.800   6.127 -0.2437 -1.2480  1.5899
   7223SM   H7T 9413   7.253   3.704   6.137  0.2084 -0.4304 -0.4109
   7223SM   C8S 9414   7.256   3.860   5.983 -0.3122  0.1945  0.2553
   7223SM   H8S 9415   7.363   3.844   5.955 -0.3958  1.1165 -0.6664
   7223SM   H8T 9416   7.235   3.969   5.981  2.2320  0.7634 -0.5218
   7223SM   C9S 9417   7.170   3.800   5.873 -1.1851 -1.1083 -1.8777
   7223SM   H9S 9418   7.061   3.807   5.894 -0.6580 -0.3238  0.9218
   7223SM   H9T 9419   7.176   3.689   5.869 -4.4522 -1.6082  1.5177
   7223SM  C10S 9420   7.217   3.849   5.739  1.0863 -0.6594  0.0543
   7223SM  H10S 9421   7.326   3.849   5.719  1.0891 -0.3135  0.0796
   7223SM  H10T 9422   7.188   3.956   5.731 -1.5371 -1.2813  0.2350
   7223SM  C11S 9423   7.148   3.775   5.617 -0.5589  0.8513  0.1195
   7223SM  H11S 9424   7.040   3.800   5.610 -0.6056  0.6010 -0.0404
   7223SM  H11T 9425   7.142   3.667   5.640  1.6509  0.4985 -0.7520
   7223SM  C12S 9426   7.225   3.792   5.489 -0.2520  0.6214  0.2210
   7223SM  H12S 9427   7.331   3.765   5.507  0.0215  0.1544 -1.8927
   7223SM  H12T 9428   7.216   3.900   5.464 -1.3934  0.5410  0.2429
   7223SM  C13S 9429   7.181   3.700   5.379  0.2450 -0.5501 -0.0153
   7223SM  H13S 9430   7.080   3.734   5.350  1.1647  2.5875  0.1762
   7223SM  H13T 9431   7.167   3.598   5.422 -1.5662 -0.5558 -0.5666
   7223SM  C14S 9432   7.265   3.702   5.253  0.1050  0.1738  0.1702
   7223SM  H14S 9433   7.278   3.810   5.232 -0.9664  0.3194  0.2354
   7223SM  H14T 9434   7.212   3.651   5.170 -1.8705 -1.0340  2.0923
   7223SM  C15S 9435   7.396   3.633   5.251 -0.1011  0.3712 -0.3511
   7223SM  H15S 9436   7.372   3.537   5.303 -1.2605  0.5130 -0.6048
   7223SM  H15T 9437   7.476   3.682   5.310 -1.4385 -0.0134  1.8955
   7223SM  C16S 9438   7.449   3.597   5.111 -0.2721 -0.0322  0.1151
   7223SM  H16S 9439   7.546   3.544   5.122 -0.5256 -1.1247 -2.2390
   7223SM  H16T 9440   7.452   3.681   5.038 -0.7171  0.6113  0.8238
   7223SM  C17S 9441   7.354   3.497   5.041  0.5254  0.0397  0.1056
   7223SM  H17S 9442   7.251   3.535   5.025  0.1135  0.1482  2.6928
   7223SM  H17T 9443   7.337   3.399   5.091  0.3515 -1.3633 -2.4854
   7223SM  C18S 9444   7.402   3.458   4.893  0.2743 -0.5556 -0.2312
   7223SM  H18S 9445   7.331   3.391   4.840 -0.5578 -1.4935  1.9409
   7223SM  H18T 9446   7.492   3.395   4.913  2.1824  1.0981 -2.9493
   7223SM  H18U 9447   7.424   3.549   4.833  1.2372  1.5233  3.0545
   7223SM   C1F 9448   7.225   3.420   6.630  0.0765  0.0208 -0.1814
   7223SM    OF 9449   7.129   3.381   6.566  0.1886 -0.1463  0.9297
   7223SM   C2F 9450   7.319   3.316   6.696 -0.7760  0.0035 -0.1494
   7223SM   H2F 9451   7.292   3.300   6.802  0.2033 -0.2395  0.0707
   7223SM   H2G 9452   7.424   3.353   6.704 -0.4613 -0.9116  0.0349
   7223SM   C3F 9453   7.325   3.189   6.610 -0.8381 -0.2081  0.1639
   7223SM   H3F 9454   7.224   3.144   6.600 -0.5733 -0.7876  0.0092
   7223SM   H3G 9455   7.394   3.110   6.648  1.0576  1.5124  0.4338
   7223SM   C4F 9456   7.398   3.210   6.471  0.4278  0.2491 -0.0703
   7223SM   H4F 9457   7.506   3.229   6.488  0.0741  0.2433  2.5894
   7223SM   H4G 9458   7.349   3.289   6.410 -0.8138 -1.5208 -1.4755
   7223SM   C5F 9459   7.375   3.093   6.381  0.0678 -0.5495 -0.1409
   7223SM   H5F 9460   7.266   3.078   6.364  0.0954 -2.0229  0.8334
   7223SM   H5G 9461   7.401   2.997   6.429 -0.2809  0.0762  1.3823
   7223SM   C6F 9462   7.463   3.087   6.243 -0.1911 -0.7773 -0.0665
   7223SM   H6F 9463   7.566   3.117   6.269 -0.5016  0.0749  0.2180
   7223SM   H6G 9464   7.423   3.156   6.166  1.4172 -1.4461 -1.5661
   7223SM   C7F 9465   7.474   2.951   6.177  0.5828 -0.2146  0.8608
   7223SM   H7F 9466   7.375   2.906   6.151 -0.9148  2.3747  1.6987
   7223SM   H7G 9467   7.519   2.882   6.252 -0.3264  0.1448  1.7761
   7223SM   C8F 9468   7.565   2.951   6.055  0.3551  0.1725  0.2172
   7223SM   H8F 9469   7.611   2.851   6.043  0.6714  0.2693  0.5962
   7223SM   H8G 9470   7.648   3.023   6.075  1.0129 -1.1066  2.5619
   7223SM   C9F 9471   7.500   2.982   5.916  0.3174  0.1087 -0.0292
   7223SM   H9F 9472   7.458   3.084   5.904 -0.2118  0.1742  2.0321
   7223SM   H9G 9473   7.407   2.921   5.913 -1.2047  2.3276 -1.0853
   7223SM  C10F 9474   7.596   2.974   5.801  0.1094 -0.5094  1.0284
   7223SM  H10F 9475   7.656   2.880   5.807  2.2552  0.6035 -1.0629
   7223SM  H10G 9476   7.678   3.049   5.798 -1.3256  1.1322  1.3414
   7223SM  C11F 9477   7.520   2.992   5.673  0.2686 -0.2192  0.6381
   7223SM  H11F 9478   7.594   3.005   5.592 -0.4650 -2.4451 -0.4881
   7223SM  H11G 9479   7.456   3.083   5.677  0.8954  0.2331  0.4783
   7223SM  C12F 9480   7.416   2.876   5.637  0.8656  0.3545 -0.4057
   7223SM  H12F 9481   7.331   2.875   5.710  1.3188 -0.7366  0.1282
   7223SM  H12G 9482   7.483   2.790   5.654  1.5502  0.9060 -0.2757
   7223SM  C13F 9483   7.370   2.891   5.489 -0.1750 -1.0012 -0.2064
   7223SM  H13F 9484   7.462   2.873   5.430 -0.2932  0.4939 -0.8926
   7223SM  H13G 9485   7.324   2.986   5.454  0.0230 -1.0830 -0.7068
   7223SM  C14F 9486   7.275   2.788   5.440  0.4982  0.7220 -0.8095
   7223SM  H14F 9487   7.179   2.796   5.495 -0.0720  0.5001 -1.7383
   7223SM  H14G 9488   7.326   2.690   5.445  3.5990  2.2935  1.4670
   7223SM  C15F 9489   7.248   2.806   5.288 -0.5957  0.1242 -0.3875
   7223SM  H15F 9490   7.340   2.823   5.229 -2.0666  0.0316 -2.8268
   7223SM  H15G 9491   7.196   2.904   5.280 -0.2018  0.2964 -0.8798
   7223SM  C16F 9492   7.168   2.699   5.212  0.1709  0.2498 -0.3788
   7223SM  H16F 9493   7.060   2.723   5.225  0.5107  1.6399  0.0787
   7223SM  H16G 9494   7.187   2.596   5.249 -0.5510  0.6875  1.3112
   7223SM  C17F 9495   7.196   2.689   5.056 -0.1224 -0.4836  0.2381
   7223SM  H17F 9496   7.303   2.670   5.033 -0.3547 -4.4789  1.5942
   7223SM  H17G 9497   7.175   2.791   5.018  0.4929 -0.1784  0.6923
   7223SM  C18F 9498   7.118   2.568   5.001 -0.1450 -0.7055 -0.0702
   7223SM  H18F 9499   7.009   2.589   4.996 -0.0731 -0.4565 -3.9355
   7223SM  H18G 9500   7.146   2.483   5.066 -0.4020 -0.5193  0.2894
   7223SM  C19F 9501   7.169   2.523   4.858 -0.0547  0.3336  0.0275
   7223SM  H19F 9502   7.262   2.462   4.856  0.4758  1.1256 -0.2038
   7223SM  H19G 9503   7.198   2.603   4.786 -0.8253 -0.8646 -1.6692
   7223SM  C20F 9504   7.059   2.424   4.791 -0.6783  0.9241  0.3892
   7223SM  H20F 9505   6.960   2.429   4.840 -0.8219  0.7824  0.1178
   7223SM  H20G 9506   7.107   2.325   4.809 -0.6163  0.5411 -1.6440
   7223SM  C21F 9507   7.074   2.434   4.633 -0.7781 -0.2653  0.8375
   7223SM  H21F 9508   7.011   2.348   4.599  1.1517 -1.3891 -0.0630
   7223SM  H21G 9509   7.179   2.444   4.597 -1.3526  0.2212 -0.7760
   7223SM  C22F 9510   7.004   2.567   4.589  0.2888 -0.6871  0.1821
   7223SM  H22F 9511   7.068   2.647   4.631 -1.0539  0.0132  0.9255
   7223SM  H22G 9512   6.903   2.581   4.633 -0.1199 -0.1737 -0.8940
   7223SM  C23F 9513   6.993   2.576   4.437 -0.5268  0.2515 -0.1558
   7223SM  H23F 9514   7.097   2.571   4.398 -0.5094 -0.6999 -0.0050
   7223SM  H23G 9515   6.950   2.675   4.410 -2.0165  0.1495  1.6300
   7223SM  H23H 9516   6.943   2.494   4.382  0.8594 -0.7695  0.0646
   7323SM     N 9517   5.848   0.432   7.371  0.3444 -1.2966 -1.0512
   7323SM   C15 9518   5.996   0.380   7.383  0.9394 -0.0845 -0.1308
   7323SM  H15A 9519   6.000   0.272   7.382 -1.6372 -0.2399 -0.5876
   7323SM  H15B 9520   6.042   0.417   7.473  0.5172  0.6287 -0.2000
   7323SM  H15C 9521   6.056   0.407   7.297  0.3225 -1.3424 -0.9898
   7323SM   C14 9522   5.774   0.396   7.498 -0.6629  0.1529  0.0656
   7323SM  H14A 9523   5.763   0.288   7.505 -0.4770  0.2030  1.3773
   7323SM  H14B 9524   5.673   0.433   7.497 -1.6209 -2.1585  1.5151
   7323SM  H14C 9525   5.828   0.436   7.582  0.9087 -2.6648  0.5190
   7323SM   C13 9526   5.850   0.582   7.366 -0.1268 -0.0033 -0.9602
   7323SM  H13A 9527   5.876   0.612   7.266  4.7989 -0.8303 -0.1906
   7323SM  H13B 9528   5.904   0.629   7.447 -1.6263  0.5547 -0.2300
   7323SM  H13C 9529   5.752   0.618   7.394  0.0531  0.1948 -0.5920
   7323SM   C12 9530   5.785   0.370   7.250  0.2560 -0.1032  0.3953
   7323SM  H12A 9531   5.687   0.409   7.229 -0.0632 -1.1580 -0.1773
   7323SM  H12B 9532   5.762   0.264   7.252 -2.1137  0.3652  0.5394
   7323SM   C11 9533   5.859   0.397   7.112 -0.8812 -0.0827  0.1954
   7323SM  H11A 9534   5.804   0.345   7.030 -1.5736  0.9625 -0.0310
   7323SM  H11B 9535   5.959   0.350   7.119 -0.2051  1.5440  2.6745
   7323SM     P 9536   5.750   0.612   7.025 -0.3236  0.2926  0.3617
   7323SM   O13 9537   5.636   0.519   7.042  0.1684  0.0858  0.0709
   7323SM   O14 9538   5.742   0.748   7.088 -0.1971 -0.6388  0.5290
   7323SM   O11 9539   5.791   0.630   6.867 -0.6518  0.0071 -0.2093
   7323SM   O12 9540   5.881   0.537   7.083  0.2899 -0.2040  0.2138
   7323SM   C1S 9541   5.909   0.693   6.837 -0.3341 -0.1039  0.1337
   7323SM   H1S 9542   5.992   0.634   6.881  1.6796  2.3971 -0.0103
   7323SM   H1T 9543   5.920   0.794   6.884 -0.8233  0.2179 -0.4238
   7323SM    NF 9544   6.062   0.772   6.662 -0.4968 -0.8608 -0.4426
   7323SM   HNF 9545   6.059   0.871   6.668 -0.1514 -0.8968  0.6409
   7323SM   C2S 9546   5.935   0.703   6.680 -0.4280 -0.1951  0.5136
   7323SM   H2S 9547   5.946   0.598   6.646 -0.7616 -0.7696  2.1094
   7323SM   C3S 9548   5.811   0.762   6.606  0.5682 -0.8010  0.5939
   7323SM   H3S 9549   5.820   0.869   6.635  0.9842 -0.0056 -2.2380
   7323SM    O3 9550   5.683   0.716   6.649 -0.1362  0.2577 -0.1679
   7323SM   HO3 9551   5.707   0.661   6.724 -1.2910 -0.8171 -0.5522
   7323SM   C4S 9552   5.834   0.755   6.452 -0.5758 -0.4949 -0.5079
   7323SM   H4S 9553   5.882   0.846   6.411  0.3357 -0.8512 -0.2531
   7323SM   C5S 9554   5.780   0.665   6.364  0.0703 -0.0292 -0.0540
   7323SM   H5S 9555   5.720   0.588   6.414  1.4501  0.4122  2.4452
   7323SM   C6S 9556   5.794   0.675   6.210 -0.4527 -0.1422  0.3787
   7323SM   H6S 9557   5.693   0.701   6.171 -0.8849 -0.7719  1.0400
   7323SM   H6T 9558   5.796   0.572   6.168  2.0981  0.7852 -2.0591
   7323SM   C7S 9559   5.926   0.731   6.143  0.3689  0.3158  0.0218
   7323SM   H7S 9560   6.014   0.671   6.176 -0.2372  0.4630  2.0918
   7323SM   H7T 9561   5.937   0.833   6.186 -0.4154  0.7632 -0.8067
   7323SM   C8S 9562   5.923   0.734   5.999 -0.3176 -0.6615  0.0851
   7323SM   H8S 9563   5.873   0.645   5.956  1.5136 -0.9086 -1.6568
   7323SM   H8T 9564   6.028   0.746   5.966  0.2558 -1.7276  1.4103
   7323SM   C9S 9565   5.861   0.863   5.948  0.5976 -0.3860  0.5643
   7323SM   H9S 9566   5.910   0.948   6.000  1.6367 -0.5849 -0.0565
   7323SM   H9T 9567   5.754   0.870   5.975 -0.0944  0.9077 -2.1404
   7323SM  C10S 9568   5.897   0.882   5.797  0.4546  0.3140  0.1434
   7323SM  H10S 9569   6.006   0.876   5.777  0.4685  2.5206 -0.6681
   7323SM  H10T 9570   5.870   0.985   5.765  2.8676 -0.2484 -4.6029
   7323SM  C11S 9571   5.818   0.793   5.701  0.0532  0.0006 -0.0045
   7323SM  H11S 9572   5.709   0.796   5.724 -0.0886  2.1182 -0.7631
   7323SM  H11T 9573   5.849   0.690   5.731  0.6925  0.0782 -0.3828
   7323SM  C12S 9574   5.849   0.818   5.548 -0.4303  0.0849 -0.0475
   7323SM  H12S 9575   5.958   0.794   5.547  0.1263  1.9622  2.4147
   7323SM  H12T 9576   5.853   0.924   5.515 -0.6382  0.1087  0.0007
   7323SM  C13S 9577   5.772   0.719   5.458 -0.1088 -0.5757 -0.8678
   7323SM  H13S 9578   5.663   0.738   5.459 -0.0087  0.0667  0.9450
   7323SM  H13T 9579   5.777   0.618   5.505 -0.6974  0.8446  2.5572
   7323SM  C14S 9580   5.832   0.717   5.318  0.4820 -0.1409  0.2947
   7323SM  H14S 9581   5.850   0.822   5.287  1.2606  0.3617  2.2428
   7323SM  H14T 9582   5.752   0.673   5.255 -1.0195  1.3792  1.0344
   7323SM  C15S 9583   5.948   0.621   5.307 -0.0216  0.3790  0.4724
   7323SM  H15S 9584   5.938   0.511   5.321  2.9902 -0.2368 -1.2815
   7323SM  H15T 9585   6.042   0.640   5.363  0.5861 -0.7492 -0.1115
   7323SM  C16S 9586   6.010   0.631   5.164  0.1031 -0.4658 -0.4315
   7323SM  H16S 9587   6.101   0.568   5.170  2.4995  2.8132  1.1184
   7323SM  H16T 9588   6.049   0.736   5.162  1.4406 -0.8781  1.3359
   7323SM  C17S 9589   5.925   0.583   5.050 -0.4530 -0.1049  0.7836
   7323SM  H17S 9590   5.843   0.658   5.042 -1.3963 -1.2786 -3.4473
   7323SM  H17T 9591   5.876   0.486   5.072  1.6039 -1.4317 -0.1464
   7323SM  C18S 9592   6.001   0.570   4.917 -0.0904 -0.0069 -0.4152
   7323SM  H18S 9593   6.083   0.496   4.930 -0.2881 -0.1719 -0.0957
   7323SM  H18T 9594   6.046   0.669   4.894 -0.4764  0.0466 -0.9565
   7323SM  H18U 9595   5.926   0.538   4.842 -0.8469  3.4624 -1.3070
   7323SM   C1F 9596   6.184   0.727   6.680  0.4104  0.2124  0.4869
   7323SM    OF 9597   6.205   0.606   6.674 -0.4166 -0.6315  0.1664
   7323SM   C2F 9598   6.282   0.829   6.724 -0.5187 -0.4673 -0.3269
   7323SM   H2F 9599   6.270   0.845   6.834 -2.2720  1.1861 -0.6918
   7323SM   H2G 9600   6.261   0.924   6.670  1.8018 -0.1028 -0.6961
   7323SM   C3F 9601   6.429   0.786   6.704  0.8879 -0.6201  0.1274
   7323SM   H3F 9602   6.439   0.687   6.754 -1.4828 -1.2694 -0.5440
   7323SM   H3G 9603   6.498   0.852   6.761 -0.8931  0.7349  0.7872
   7323SM   C4F 9604   6.479   0.763   6.561  0.3801 -0.6323  0.0131
   7323SM   H4F 9605   6.484   0.862   6.511 -0.1764 -0.1722  0.8386
   7323SM   H4G 9606   6.397   0.707   6.512  0.5056  0.0490 -0.9809
   7323SM   C5F 9607   6.615   0.697   6.563 -0.4871  0.2881  0.3034
   7323SM   H5F 9608   6.623   0.613   6.636 -2.4424 -1.0104 -0.8704
   7323SM   H5G 9609   6.689   0.774   6.593  1.8097 -1.3245 -0.9541
   7323SM   C6F 9610   6.660   0.644   6.425  0.2236 -0.0523  0.4569
   7323SM   H6F 9611   6.654   0.730   6.355  1.6709 -1.0373 -0.9285
   7323SM   H6G 9612   6.591   0.567   6.385 -0.4212  1.0206 -0.5728
   7323SM   C7F 9613   6.806   0.594   6.434 -0.2350 -0.2281  0.1180
   7323SM   H7F 9614   6.804   0.494   6.483  2.0991  0.3709  1.6052
   7323SM   H7G 9615   6.873   0.665   6.487 -0.3976  0.0315 -0.0223
   7323SM   C8F 9616   6.874   0.559   6.300  0.2539 -0.2620  0.2976
   7323SM   H8F 9617   6.884   0.658   6.250  0.4581 -0.2262  0.4109
   7323SM   H8G 9618   6.812   0.490   6.238 -0.2386  0.4157  0.0154
   7323SM   C9F 9619   7.004   0.481   6.319  0.5546  0.5880  0.3173
   7323SM   H9F 9620   6.994   0.379   6.362  1.1998 -0.2288 -1.3699
   7323SM   H9G 9621   7.085   0.544   6.361 -0.5159  3.3797 -1.5215
   7323SM  C10F 9622   7.070   0.448   6.176 -0.4065  0.4500  0.0452
   7323SM  H10F 9623   7.051   0.542   6.120  1.3057  2.3553  2.4234
   7323SM  H10G 9624   7.023   0.364   6.120  0.0083 -0.2371  0.6998
   7323SM  C11F 9625   7.217   0.410   6.187 -0.4573 -0.1524  0.1453
   7323SM  H11F 9626   7.243   0.315   6.240 -0.5586  1.0035  2.3885
   7323SM  H11G 9627   7.262   0.503   6.229 -0.4771  0.2872 -0.7855
   7323SM  C12F 9628   7.277   0.405   6.044 -0.3662  0.2256 -0.2253
   7323SM  H12F 9629   7.284   0.512   6.015 -0.8480  0.0409 -1.0739
   7323SM  H12G 9630   7.208   0.357   5.971 -0.0108  0.0925 -0.4749
   7323SM  C13F 9631   7.416   0.338   6.037  0.8103 -0.1169 -0.0747
   7323SM  H13F 9632   7.405   0.230   6.015  0.8493 -0.8989  3.2684
   7323SM  H13G 9633   7.473   0.346   6.131 -0.2970  1.5678  0.4999
   7323SM  C14F 9634   7.503   0.406   5.933  0.8318 -0.0634 -0.1638
   7323SM  H14F 9635   7.531   0.510   5.963  0.1194  0.0837 -0.0014
   7323SM  H14G 9636   7.443   0.425   5.842 -1.4055 -0.7927  1.0926
   7323SM  C15F 9637   7.632   0.327   5.901 -0.1337 -0.0562 -0.6428
   7323SM  H15F 9638   7.608   0.233   5.847  2.1727 -1.5981  0.8332
   7323SM  H15G 9639   7.687   0.289   5.990 -0.4665 -0.5488 -0.6436
   7323SM  C16F 9640   7.722   0.401   5.798  0.1710 -0.0393  0.2332
   7323SM  H16F 9641   7.806   0.331   5.777 -0.5360 -0.9016  0.2454
   7323SM  H16G 9642   7.777   0.487   5.842  0.7640  0.4996 -1.4685
   7323SM  C17F 9643   7.651   0.440   5.672  0.0925  0.6916 -0.2853
   7323SM  H17F 9644   7.573   0.516   5.697  1.8248  1.9990  1.4294
   7323SM  H17G 9645   7.604   0.347   5.634  0.8988  0.0904  0.1637
   7323SM  C18F 9646   7.742   0.487   5.561  0.1897 -0.3038  0.0780
   7323SM  H18F 9647   7.789   0.396   5.519  1.8377  0.8288 -0.6680
   7323SM  H18G 9648   7.822   0.552   5.602  0.4507  0.3029 -1.3154
   7323SM  C19F 9649   7.657   0.556   5.456  0.2082 -0.0316  0.1105
   7323SM  H19F 9650   7.588   0.625   5.510  0.0839  1.2123 -1.5476
   7323SM  H19G 9651   7.598   0.479   5.402  0.5862 -2.1830  2.5848
   7323SM  C20F 9652   7.725   0.649   5.350 -0.2792  0.5261 -0.6917
   7323SM  H20F 9653   7.646   0.698   5.289  0.5977 -1.0442 -3.2804
   7323SM  H20G 9654   7.791   0.585   5.287  0.6069  0.0973  0.6254
   7323SM  C21F 9655   7.820   0.749   5.420 -0.3138  0.1334 -0.0426
   7323SM  H21F 9656   7.873   0.809   5.343  0.3707  1.9633  1.7544
   7323SM  H21G 9657   7.900   0.698   5.477  0.2196  0.9055 -0.0762
   7323SM  C22F 9658   7.755   0.852   5.511  0.5056 -0.4137 -0.3921
   7323SM  H22F 9659   7.833   0.923   5.544  1.6928 -2.6821  2.0543
   7323SM  H22G 9660   7.712   0.799   5.599  3.9369 -3.6251 -0.4185
   7323SM  C23F 9661   7.640   0.923   5.435 -0.0177 -0.5848  0.0232
   7323SM  H23F 9662   7.671   0.975   5.342  0.1093  0.7009  0.7602
   7323SM  H23G 9663   7.591   1.002   5.496  0.0665 -0.5071 -0.0098
   7323SM  H23H 9664   7.559   0.852   5.409  0.5810 -1.6751  1.0293
   7423SM     N 9665   1.753   5.385   6.770  0.3089  0.6652 -0.0049
   7423SM   C15 9666   1.886   5.354   6.710 -0.4298  0.4371  0.0525
   7423SM  H15A 9667   1.895   5.250   6.679 -0.6713  0.5462 -0.3952
   7423SM  H15B 9668   1.970   5.357   6.778 -3.2341 -0.4555  3.8555
   7423SM  H15C 9669   1.906   5.407   6.618  1.3807  0.6951  0.5430
   7423SM   C14 9670   1.708   5.260   6.850  0.2615  0.0449 -0.2754
   7423SM  H14A 9671   1.780   5.235   6.926  0.5877  1.3393 -0.1262
   7423SM  H14B 9672   1.688   5.173   6.790  0.9644  1.4386 -2.6589
   7423SM  H14C 9673   1.613   5.278   6.900  0.7738  2.1462  0.0521
   7423SM   C13 9674   1.772   5.502   6.858  0.2404 -0.5103 -0.0310
   7423SM  H13A 9675   1.814   5.587   6.807 -0.5667 -0.2470 -0.2716
   7423SM  H13B 9676   1.833   5.466   6.939 -0.3365  0.2854  0.7822
   7423SM  H13C 9677   1.677   5.536   6.899  0.7086  0.5228  0.2297
   7423SM   C12 9678   1.651   5.421   6.666  1.0460  0.5688  0.3169
   7423SM  H12A 9679   1.639   5.340   6.597  2.9687  0.9722 -0.5560
   7423SM  H12B 9680   1.694   5.507   6.615 -2.7790  1.1647 -2.2810
   7423SM   C11 9681   1.507   5.454   6.712  0.1642 -0.2093 -0.1614
   7423SM  H11A 9682   1.445   5.499   6.631 -1.8859  1.1918  2.0523
   7423SM  H11B 9683   1.525   5.537   6.784 -0.1903 -0.6211  0.4083
   7423SM     P 9684   1.312   5.268   6.724  0.1749 -0.0351 -0.0716
   7423SM   O13 9685   1.334   5.128   6.764 -0.1836  0.5017 -0.4554
   7423SM   O14 9686   1.186   5.323   6.779 -0.1438 -0.2802 -0.2496
   7423SM   O11 9687   1.318   5.268   6.562  0.1519 -0.4438  0.2355
   7423SM   O12 9688   1.441   5.342   6.778 -1.0891 -0.0168  0.6693
   7423SM   C1S 9689   1.242   5.175   6.488 -0.0396  0.9260  0.0119
   7423SM   H1S 9690   1.149   5.144   6.539 -0.1085  0.8184 -0.1767
   7423SM   H1T 9691   1.303   5.082   6.484  1.5181  1.6820  3.2115
   7423SM    NF 9692   1.140   5.146   6.267  0.0880  0.0202  0.2084
   7423SM   HNF 9693   1.192   5.106   6.192  0.4893  1.0679 -0.0758
   7423SM   C2S 9694   1.225   5.231   6.344 -0.0193 -0.3732 -0.8010
   7423SM   H2S 9695   1.162   5.322   6.352 -0.5897 -0.7956 -0.4411
   7423SM   C3S 9696   1.363   5.271   6.284  0.1400  0.1337 -0.0993
   7423SM   H3S 9697   1.445   5.200   6.304  0.6017  0.7063  0.0720
   7423SM    O3 9698   1.417   5.385   6.355  0.5811 -0.2496 -0.9877
   7423SM   HO3 9699   1.377   5.376   6.442  0.9678  0.4759 -0.7282
   7423SM   C4S 9700   1.347   5.303   6.141  0.1153 -0.4727 -0.5546
   7423SM   H4S 9701   1.276   5.386   6.130 -2.6441 -2.5719 -0.0628
   7423SM   C5S 9702   1.393   5.239   6.027 -0.2342 -0.1091 -0.4274
   7423SM   H5S 9703   1.462   5.153   6.023  2.5530  1.8560  1.3423
   7423SM   C6S 9704   1.379   5.302   5.891 -0.2863  0.4952  0.2719
   7423SM   H6S 9705   1.477   5.313   5.841 -0.2242  0.6089  0.4169
   7423SM   H6T 9706   1.334   5.403   5.883 -1.6254 -0.1050 -0.1559
   7423SM   C7S 9707   1.289   5.204   5.804 -0.0240  0.4227 -0.5252
   7423SM   H7S 9708   1.326   5.099   5.798 -0.5558  0.2006 -0.0416
   7423SM   H7T 9709   1.310   5.243   5.702  1.4466  1.9199  0.2998
   7423SM   C8S 9710   1.145   5.205   5.859 -0.0413  0.0842  0.0273
   7423SM   H8S 9711   1.104   5.306   5.882  1.1892  0.0959  2.4381
   7423SM   H8T 9712   1.149   5.143   5.951 -0.7892 -0.8673 -0.5644
   7423SM   C9S 9713   1.051   5.156   5.746  0.3216 -0.0149  0.7777
   7423SM   H9S 9714   1.098   5.059   5.718 -1.3389 -0.7374  0.4146
   7423SM   H9T 9715   1.046   5.216   5.652  1.2022 -0.2619  0.5609
   7423SM  C10S 9716   0.902   5.134   5.791  0.6473 -0.2486  0.5233
   7423SM  H10S 9717   0.850   5.231   5.808  0.2434 -0.4853  0.6392
   7423SM  H10T 9718   0.904   5.091   5.893  0.0621  0.7778  0.9745
   7423SM  C11S 9719   0.812   5.048   5.699 -0.6648  0.7921  0.2528
   7423SM  H11S 9720   0.854   4.948   5.677 -1.7734  0.2817  0.3549
   7423SM  H11T 9721   0.786   5.099   5.604  0.0965  0.6843 -0.0160
   7423SM  C12S 9722   0.674   5.024   5.760  0.7931 -0.5715 -0.3175
   7423SM  H12S 9723   0.617   5.110   5.802 -2.9409 -3.2142  0.4881
   7423SM  H12T 9724   0.677   4.975   5.860  0.3487  0.0079 -0.0101
   7423SM  C13S 9725   0.583   4.941   5.673 -0.3397 -0.0132  0.0247
   7423SM  H13S 9726   0.631   4.842   5.663  2.1719  1.2537 -1.3387
   7423SM  H13T 9727   0.575   4.990   5.574 -2.4391 -1.1180 -0.4227
   7423SM  C14S 9728   0.440   4.939   5.726 -0.9232 -0.2015 -0.1942
   7423SM  H14S 9729   0.370   4.882   5.661 -1.2769 -0.1642  0.1482
   7423SM  H14T 9730   0.405   5.044   5.734  1.2410  0.6087 -0.6650
   7423SM  C15S 9731   0.435   4.874   5.872 -0.7506 -0.4965 -0.4779
   7423SM  H15S 9732   0.500   4.938   5.935  0.3178 -3.3986  1.6136
   7423SM  H15T 9733   0.491   4.778   5.880 -1.2775 -0.7719 -0.0280
   7423SM  C16S 9734   0.297   4.870   5.937 -0.3881  0.5658  0.3262
   7423SM  H16S 9735   0.275   4.978   5.923 -4.7593 -0.4790 -3.0253
   7423SM  H16T 9736   0.302   4.848   6.045  1.8344 -0.2567  0.1015
   7423SM  C17S 9737   0.184   4.804   5.864 -0.4163  0.6228 -0.0908
   7423SM  H17S 9738   0.201   4.694   5.859 -1.1409  0.5464 -2.5032
   7423SM  H17T 9739   0.185   4.835   5.757  0.5490 -0.9292 -0.5666
   7423SM  C18S 9740   0.044   4.832   5.915 -0.8451  0.4126 -0.1549
   7423SM  H18S 9741  -0.024   4.759   5.866  0.5043 -0.7263 -0.4049
   7423SM  H18T 9742  -0.004   4.930   5.896 -0.6805  0.2421 -1.5030
   7423SM  H18U 9743   0.054   4.804   6.022 -0.0069 -0.7906 -0.5287
   7423SM   C1F 9744   1.014   5.114   6.293  0.1108  0.0578  0.2259
   7423SM    OF 9745   0.947   5.159   6.386  0.4083  0.2867  0.3485
   7423SM   C2F 9746   0.952   5.008   6.209  0.0179  0.4036 -0.0199
   7423SM   H2F 9747   0.986   4.916   6.261  1.5532  0.8354 -0.2125
   7423SM   H2G 9748   0.989   5.014   6.104  0.7675  0.8724  0.2620
   7423SM   C3F 9749   0.802   5.016   6.199 -0.3653 -0.0327  0.4171
   7423SM   H3F 9750   0.774   5.118   6.167 -0.2358  0.1219  0.7937
   7423SM   H3G 9751   0.767   5.009   6.304 -1.6156 -1.3387 -0.0627
   7423SM   C4F 9752   0.739   4.912   6.106 -0.8488  0.8088  0.6887
   7423SM   H4F 9753   0.795   4.927   6.011  1.3951 -0.1343  1.7772
   7423SM   H4G 9754   0.631   4.930   6.091 -0.6154  1.7109  0.0279
   7423SM   C5F 9755   0.753   4.774   6.162 -0.4782  1.0011  0.3510
   7423SM   H5F 9756   0.705   4.775   6.262 -0.5351  0.7685  0.3264
   7423SM   H5G 9757   0.863   4.759   6.173 -0.4709 -1.1062 -1.7726
   7423SM   C6F 9758   0.686   4.668   6.078 -0.1863  0.5958  0.2297
   7423SM   H6F 9759   0.578   4.698   6.077 -0.1323  0.9189  1.7755
   7423SM   H6G 9760   0.703   4.574   6.133 -0.3902  1.5526  1.9928
   7423SM   C7F 9761   0.741   4.659   5.934  0.5334 -0.7508  0.2421
   7423SM   H7F 9762   0.848   4.631   5.945 -0.0053 -2.6363  1.1960
   7423SM   H7G 9763   0.735   4.754   5.877  0.3543 -0.1988  1.1503
   7423SM   C8F 9764   0.674   4.547   5.838  0.7473  0.0113  0.5289
   7423SM   H8F 9765   0.587   4.584   5.780  0.3834 -0.5509  0.7177
   7423SM   H8G 9766   0.634   4.467   5.903 -0.9337 -0.5421 -1.0979
   7423SM   C9F 9767   0.762   4.469   5.749 -0.1174  0.4510 -0.3515
   7423SM   H9F 9768   0.696   4.401   5.690  0.0195  1.5952 -1.8954
   7423SM   H9G 9769   0.834   4.406   5.804  0.5382 -0.0172 -1.6843
   7423SM  C10F 9770   0.833   4.566   5.655 -0.6018  0.0889 -0.6958
   7423SM  H10F 9771   0.909   4.619   5.716 -0.2319 -0.9676 -0.2215
   7423SM  H10G 9772   0.755   4.636   5.617 -2.2596 -0.2966  1.7363
   7423SM  C11F 9773   0.921   4.500   5.544  0.2536 -0.4096 -0.3704
   7423SM  H11F 9774   0.992   4.579   5.513  1.1191 -0.5010  1.3093
   7423SM  H11G 9775   0.863   4.475   5.452  1.3784 -1.3383 -0.8563
   7423SM  C12F 9776   1.001   4.371   5.584 -0.5898  0.3049 -0.5306
   7423SM  H12F 9777   0.937   4.287   5.619 -0.4449  0.1666 -0.5953
   7423SM  H12G 9778   1.062   4.396   5.673 -0.6935  0.7987 -0.5965
   7423SM  C13F 9779   1.087   4.317   5.477 -0.8180  0.1167  0.5248
   7423SM  H13F 9780   1.160   4.400   5.465 -2.4576  1.5637  0.1604
   7423SM  H13G 9781   1.027   4.320   5.384 -0.0433 -0.5477 -0.0179
   7423SM  C14F 9782   1.157   4.179   5.488  0.2388  0.1365  0.0751
   7423SM  H14F 9783   1.072   4.110   5.507 -0.9722  1.0074 -1.9244
   7423SM  H14G 9784   1.232   4.173   5.570  1.8004  0.3890 -1.2855
   7423SM  C15F 9785   1.225   4.140   5.355  0.2960 -0.5298  0.3761
   7423SM  H15F 9786   1.298   4.216   5.320 -1.8050  1.0176 -0.8529
   7423SM  H15G 9787   1.148   4.139   5.274 -1.3941  1.9399  1.8372
   7423SM  C16F 9788   1.305   4.011   5.364 -0.1523  0.2318  0.6284
   7423SM  H16F 9789   1.240   3.936   5.415  0.2572 -1.3901 -1.1099
   7423SM  H16G 9790   1.396   4.027   5.425 -1.6920  0.0035  3.1230
   7423SM  C17F 9791   1.350   3.958   5.226 -0.0611  0.1085  0.0189
   7423SM  H17F 9792   1.391   4.044   5.169 -1.0893  0.2624 -0.5126
   7423SM  H17G 9793   1.259   3.914   5.178 -0.1836  1.3392 -0.9123
   7423SM  C18F 9794   1.460   3.848   5.237  0.2986  0.0262 -1.3912
   7423SM  H18F 9795   1.542   3.882   5.304 -0.4805 -1.2841  0.3220
   7423SM  H18G 9796   1.499   3.832   5.134  0.1732  0.9390 -1.5814
   7423SM  C19F 9797   1.407   3.702   5.269  0.3321 -0.4662  0.2699
   7423SM  H19F 9798   1.343   3.709   5.360 -1.2113  0.6541 -0.8500
   7423SM  H19G 9799   1.495   3.639   5.295 -0.8035 -1.9388  0.6752
   7423SM  C20F 9800   1.339   3.627   5.155 -0.1318 -0.8257 -0.4415
   7423SM  H20F 9801   1.394   3.638   5.059  2.5797 -1.1620  0.9710
   7423SM  H20G 9802   1.238   3.674   5.146 -0.1147 -0.7059 -0.0570
   7423SM  C21F 9803   1.320   3.481   5.187 -0.1559  0.6781  0.6377
   7423SM  H21F 9804   1.421   3.450   5.223  1.2367  1.2111 -2.4498
   7423SM  H21G 9805   1.299   3.431   5.091  0.8265 -1.1295  1.3187
   7423SM  C22F 9806   1.215   3.452   5.290  0.0428  0.1413  0.4297
   7423SM  H22F 9807   1.213   3.543   5.354  3.0596  0.0519  0.7672
   7423SM  H22G 9808   1.243   3.360   5.345 -1.7982 -0.6506  0.1289
   7423SM  C23F 9809   1.074   3.436   5.224 -0.0264 -0.6322 -0.2493
   7423SM  H23F 9810   1.067   3.335   5.179  1.7370 -1.6681  1.6103
   7423SM  H23G 9811   1.046   3.521   5.159  0.4578 -1.0943 -1.0740
   7423SM  H23H 9812   1.000   3.444   5.306  0.6021  0.6424  0.2281
   7523SM     N 9813   0.547   5.003   7.114  0.1797  0.5150  0.4406
   7523SM   C15 9814   0.513   5.075   7.242 -0.4326  0.3960 -0.0701
   7523SM  H15A 9815   0.446   5.023   7.309 -0.4278  1.3421  0.6877
   7523SM  H15B 9816   0.478   5.174   7.222  0.0432  0.3824 -1.0434
   7523SM  H15C 9817   0.602   5.091   7.303  1.2931 -1.2652 -1.9997
   7523SM   C14 9818   0.674   5.050   7.059 -0.1606 -0.6958  0.7354
   7523SM  H14A 9819   0.765   5.033   7.115  0.3113 -0.0966  0.1594
   7523SM  H14B 9820   0.670   5.156   7.039  1.3817 -0.1956  2.7336
   7523SM  H14C 9821   0.689   5.004   6.963 -2.5489 -0.3798  0.1498
   7523SM   C13 9822   0.566   4.860   7.139 -0.3129  0.6761 -0.0220
   7523SM  H13A 9823   0.472   4.812   7.163  0.0412 -0.0614 -0.0864
   7523SM  H13B 9824   0.636   4.835   7.218  0.7229  0.1591 -1.0637
   7523SM  H13C 9825   0.604   4.814   7.048  2.4456  0.1058  1.3161
   7523SM   C12 9826   0.444   5.027   7.007 -0.0027 -1.0768  0.6098
   7523SM  H12A 9827   0.348   4.988   7.038 -0.3143 -0.0268  0.9965
   7523SM  H12B 9828   0.471   4.961   6.926 -0.6746  0.7502 -1.1564
   7523SM   C11 9829   0.425   5.169   6.945 -0.3175 -0.0264 -0.4245
   7523SM  H11A 9830   0.347   5.169   6.866 -1.2224  1.1894  0.4313
   7523SM  H11B 9831   0.519   5.183   6.887  0.5016 -0.1079  0.8469
   7523SM     P 9832   0.477   5.410   7.022 -0.1173 -0.3621  0.1652
   7523SM   O13 9833   0.400   5.519   7.085  0.7842  0.2294 -0.2272
   7523SM   O14 9834   0.620   5.407   7.065  0.0965 -0.3517  0.3311
   7523SM   O11 9835   0.484   5.413   6.866 -0.1199 -0.1761 -0.1315
   7523SM   O12 9836   0.401   5.270   7.048  0.1669 -0.0968 -0.0634
   7523SM   C1S 9837   0.385   5.465   6.784  0.9683 -0.6735  0.5179
   7523SM   H1S 9838   0.361   5.570   6.810 -0.2750 -0.8080 -0.0517
   7523SM   H1T 9839   0.294   5.402   6.788 -0.9390  1.8759 -0.5933
   7523SM    NF 9840   0.324   5.516   6.543  0.0867 -0.4857 -0.2128
   7523SM   HNF 9841   0.259   5.456   6.496 -0.4044  1.1556 -1.7197
   7523SM   C2S 9842   0.427   5.467   6.632  0.1942 -0.7420 -0.3414
   7523SM   H2S 9843   0.514   5.535   6.621  1.8110 -2.3464  1.6603
   7523SM   C3S 9844   0.483   5.322   6.594 -1.0057 -0.7563 -0.5208
   7523SM   H3S 9845   0.400   5.253   6.617  0.5011 -2.5025 -0.0896
   7523SM    O3 9846   0.596   5.282   6.673  0.0609 -0.2147 -1.0975
   7523SM   HO3 9847   0.611   5.359   6.729 -0.3325 -0.0232 -1.2520
   7523SM   C4S 9848   0.528   5.291   6.450 -0.0591  0.2916  0.5362
   7523SM   H4S 9849   0.636   5.292   6.429 -0.3194 -1.1597 -1.1413
   7523SM   C5S 9850   0.440   5.244   6.359 -0.2965  0.1386 -0.0687
   7523SM   H5S 9851   0.332   5.230   6.376 -0.6960 -1.3313 -3.0901
   7523SM   C6S 9852   0.481   5.203   6.217  0.4169  0.1393  0.0514
   7523SM   H6S 9853   0.466   5.093   6.205 -0.3875  0.2813 -0.3269
   7523SM   H6T 9854   0.587   5.232   6.203  0.9265 -2.2807 -1.8379
   7523SM   C7S 9855   0.396   5.273   6.101 -0.1468 -0.2457  0.6321
   7523SM   H7S 9856   0.426   5.245   5.997 -1.3086  0.9649 -0.0646
   7523SM   H7T 9857   0.417   5.382   6.108  1.3424 -0.6160  2.6454
   7523SM   C8S 9858   0.243   5.259   6.098  0.1409 -0.2529 -0.0989
   7523SM   H8S 9859   0.198   5.307   6.187  1.0115  0.9807 -0.2913
   7523SM   H8T 9860   0.207   5.154   6.097 -0.7749  0.0508  0.4456
   7523SM   C9S 9861   0.174   5.330   5.974 -0.1644  0.2167  0.1362
   7523SM   H9S 9862   0.227   5.428   5.977  1.8628 -0.8137 -0.5801
   7523SM   H9T 9863   0.068   5.352   5.998 -0.8357  0.5882 -2.8165
   7523SM  C10S 9864   0.188   5.260   5.837  0.3150  0.2884 -0.5606
   7523SM  H10S 9865   0.119   5.173   5.838 -1.9406  1.9884 -0.6149
   7523SM  H10T 9866   0.293   5.225   5.828  1.3092  1.4893  3.7266
   7523SM  C11S 9867   0.167   5.348   5.724 -0.2345 -0.1474  0.5318
   7523SM  H11S 9868   0.196   5.452   5.747 -1.1347 -0.1769  1.9526
   7523SM  H11T 9869   0.058   5.349   5.703 -0.5620 -0.3985  2.1107
   7523SM  C12S 9870   0.227   5.298   5.594  0.3975  1.1274  0.8451
   7523SM  H12S 9871   0.337   5.306   5.610  0.1609  1.3684  2.5480
   7523SM  H12T 9872   0.195   5.367   5.513 -1.2413 -0.2592  0.2538
   7523SM  C13S 9873   0.165   5.161   5.552 -0.1397  0.3642 -0.5365
   7523SM  H13S 9874   0.056   5.165   5.532 -0.0853  1.7824 -0.5880
   7523SM  H13T 9875   0.190   5.093   5.637  1.8182  1.3932 -0.2192
   7523SM  C14S 9876   0.233   5.103   5.424 -0.1710  0.1538 -0.3049
   7523SM  H14S 9877   0.340   5.084   5.450  0.2781  1.4716 -1.0666
   7523SM  H14T 9878   0.226   5.188   5.353  0.1185 -0.5472 -1.1934
   7523SM  C15S 9879   0.163   4.974   5.386  0.4298 -0.7843 -0.5596
   7523SM  H15S 9880   0.063   5.002   5.346 -0.8983 -2.7579  1.2273
   7523SM  H15T 9881   0.127   4.910   5.469  1.6791 -0.7974 -0.0029
   7523SM  C16S 9882   0.236   4.887   5.281  0.3578  0.4652  0.0439
   7523SM  H16S 9883   0.255   4.946   5.188  2.1294  0.9468  0.6687
   7523SM  H16T 9884   0.181   4.793   5.260  0.8990  0.0424  0.5165
   7523SM  C17S 9885   0.370   4.841   5.334  0.1578 -0.2846  0.0584
   7523SM  H17S 9886   0.363   4.821   5.443  0.1381  0.8347  0.2721
   7523SM  H17T 9887   0.443   4.924   5.332 -0.4107  0.2215 -1.0061
   7523SM  C18S 9888   0.418   4.718   5.257 -0.0461  0.0288 -0.1189
   7523SM  H18S 9889   0.525   4.696   5.280  0.4137  1.0350 -1.2057
   7523SM  H18T 9890   0.423   4.747   5.150  1.4098 -2.2607 -0.7467
   7523SM  H18U 9891   0.356   4.626   5.264 -1.0883  0.7139 -0.1785
   7523SM   C1F 9892   0.288   5.645   6.542  0.3964  0.1771  0.4431
   7523SM    OF 9893   0.360   5.734   6.582  0.1597  0.1852 -0.2242
   7523SM   C2F 9894   0.155   5.670   6.480  0.8965  0.0341 -0.1711
   7523SM   H2F 9895   0.075   5.646   6.553 -0.4988 -1.1564 -2.0310
   7523SM   H2G 9896   0.146   5.597   6.398 -0.1562 -0.5571  0.4477
   7523SM   C3F 9897   0.123   5.819   6.449  0.3226  0.0945 -0.2666
   7523SM   H3F 9898   0.184   5.855   6.364  3.9479 -0.8428  1.7347
   7523SM   H3G 9899   0.159   5.878   6.536  0.8884 -0.0462 -0.4031
   7523SM   C4F 9900  -0.024   5.855   6.430  0.0773 -0.4989 -0.5940
   7523SM   H4F 9901  -0.029   5.964   6.450 -1.6485 -0.6599 -0.0012
   7523SM   H4G 9902  -0.090   5.810   6.507 -0.1673  0.8640  0.0313
   7523SM   C5F 9903  -0.063   5.815   6.292  0.1624 -0.7273  0.7257
   7523SM   H5F 9904  -0.059   5.706   6.267 -0.5569 -0.3299 -1.3759
   7523SM   H5G 9905   0.025   5.835   6.228  0.7259 -2.7728  0.7769
   7523SM   C6F 9906  -0.193   5.884   6.254 -0.4578 -0.4181  0.3619
   7523SM   H6F 9907  -0.197   5.970   6.325 -0.1971 -0.0537 -0.0609
   7523SM   H6G 9908  -0.278   5.816   6.272 -2.4051  1.9618  0.6500
   7523SM   C7F 9909  -0.179   5.946   6.112  0.5974  0.4756  0.4111
   7523SM   H7F 9910  -0.159   5.862   6.042 -1.7697 -0.3680  0.6683
   7523SM   H7G 9911  -0.082   6.000   6.115  1.0761 -0.3213  3.8604
   7523SM   C8F 9912  -0.298   6.023   6.063 -0.1241  1.2824 -0.2906
   7523SM   H8F 9913  -0.310   6.108   6.134 -1.9291  0.3285  0.6230
   7523SM   H8G 9914  -0.393   5.966   6.073 -0.0225  0.8497 -1.5590
   7523SM   C9F 9915  -0.283   6.059   5.918 -0.4451 -0.8780 -0.6663
   7523SM   H9F 9916  -0.178   6.089   5.901 -1.1404  1.2252 -1.5230
   7523SM   H9G 9917  -0.343   6.149   5.892 -0.7362 -0.5238  1.1043
   7523SM  C10F 9918  -0.335   5.953   5.827  0.2436  0.3869 -0.1323
   7523SM  H10F 9919  -0.445   5.946   5.843  0.4834  0.1985  1.5466
   7523SM  H10G 9920  -0.278   5.860   5.846  0.5197  0.6167  0.1740
   7523SM  C11F 9921  -0.321   5.986   5.674  0.6302  0.0350 -0.4609
   7523SM  H11F 9922  -0.217   6.016   5.651 -0.3474  1.2333 -3.9413
   7523SM  H11G 9923  -0.389   6.069   5.645  0.6978  0.2238 -0.0835
   7523SM  C12F 9924  -0.350   5.856   5.590  0.2543  0.7507  0.3372
   7523SM  H12F 9925  -0.451   5.821   5.622  0.6294 -2.6525 -1.6442
   7523SM  H12G 9926  -0.278   5.773   5.608  2.9077  1.9621 -3.4512
   7523SM  C13F 9927  -0.334   5.874   5.439  0.2668 -0.4096  0.4661
   7523SM  H13F 9928  -0.231   5.888   5.401 -0.2430 -0.1770 -0.8791
   7523SM  H13G 9929  -0.401   5.958   5.411 -1.8877 -2.5214 -1.1008
   7523SM  C14F 9930  -0.396   5.755   5.354 -0.4295 -0.5908  0.0737
   7523SM  H14F 9931  -0.504   5.742   5.379 -0.9621  1.3818 -1.0635
   7523SM  H14G 9932  -0.343   5.661   5.381  2.3621  0.5976 -0.9087
   7523SM  C15F 9933  -0.366   5.777   5.206  0.0001 -0.2332 -0.3166
   7523SM  H15F 9934  -0.259   5.778   5.175 -0.0282  0.0536 -0.4104
   7523SM  H15G 9935  -0.423   5.870   5.185 -0.4300 -0.0345  1.5918
   7523SM  C16F 9936  -0.432   5.667   5.112 -0.0834 -0.1485  0.0395
   7523SM  H16F 9937  -0.416   5.703   5.008  1.6667  0.9541  0.6459
   7523SM  H16G 9938  -0.542   5.658   5.128 -0.2062  3.1182  1.9120
   7523SM  C17F 9939  -0.379   5.526   5.109 -0.1827  0.1605 -0.5589
   7523SM  H17F 9940  -0.377   5.497   5.216  0.0497 -1.8391 -1.0677
   7523SM  H17G 9941  -0.275   5.511   5.074 -0.6234  0.7138 -2.1940
   7523SM  C18F 9942  -0.451   5.439   5.011 -0.0071 -0.3350  0.3915
   7523SM  H18F 9943  -0.466   5.488   4.913  1.2840  1.2179  0.9225
   7523SM  H18G 9944  -0.557   5.425   5.042 -0.7713  1.0368 -1.4716
   7523SM  C19F 9945  -0.380   5.304   4.999 -0.3784  0.8438  0.5359
   7523SM  H19F 9946  -0.335   5.283   5.099 -0.9122  1.4546  0.9151
   7523SM  H19G 9947  -0.293   5.322   4.933 -0.9100 -1.1094 -0.7736
   7523SM  C20F 9948  -0.463   5.183   4.955 -0.2308 -0.5506 -0.0574
   7523SM  H20F 9949  -0.532   5.150   5.036 -2.6926 -1.8979 -2.5543
   7523SM  H20G 9950  -0.389   5.101   4.947 -2.8971 -3.4388  2.4160
   7523SM  C21F 9951  -0.538   5.201   4.824  0.2723 -0.6082  0.5166
   7523SM  H21F 9952  -0.470   5.189   4.736  0.4500 -0.3116  0.6114
   7523SM  H21G 9953  -0.587   5.300   4.835 -0.5197 -0.8219 -0.9363
   7523SM  C22F 9954  -0.645   5.098   4.787  0.4811 -0.2793 -0.2417
   7523SM  H22F 9955  -0.717   5.085   4.871 -0.0874  2.8593 -0.1141
   7523SM  H22G 9956  -0.597   5.003   4.755 -1.3962 -0.7519 -1.9008
   7523SM  C23F 9957  -0.728   5.140   4.666  0.7761  0.2241  0.2207
   7523SM  H23F 9958  -0.787   5.231   4.689 -0.5968 -1.4639  4.4053
   7523SM  H23G 9959  -0.803   5.064   4.635  0.4081 -0.2000  2.0308
   7523SM  H23H 9960  -0.662   5.165   4.580  1.6265  0.9757  1.0650
   7623SM     N 9961   0.720   5.770   7.283 -0.0710 -0.2419  0.8456
   7623SM   C15 9962   0.638   5.890   7.312 -0.0879 -0.0159 -0.0860
   7623SM  H15A 9963   0.680   5.985   7.284  0.7181 -0.2252  0.3799
   7623SM  H15B 9964   0.619   5.890   7.418 -0.0242 -0.9550 -0.0697
   7623SM  H15C 9965   0.540   5.889   7.265  0.0241  4.1037 -0.7415
   7623SM   C14 9966   0.840   5.770   7.373  0.0447 -0.0862 -0.4154
   7623SM  H14A 9967   0.896   5.863   7.365  0.1861 -0.0325  0.9168
   7623SM  H14B 9968   0.904   5.688   7.345 -0.3587 -0.0898 -1.3623
   7623SM  H14C 9969   0.804   5.758   7.475  2.3300 -0.3616  0.4230
   7623SM   C13 9970   0.635   5.639   7.309 -0.1750  0.1775  0.1787
   7623SM  H13A 9971   0.568   5.611   7.229 -0.2771  0.9246 -0.0003
   7623SM  H13B 9972   0.587   5.640   7.405 -0.1395 -0.7269  0.2203
   7623SM  H13C 9973   0.710   5.563   7.327 -1.4325 -0.9145  0.9556
   7623SM   C12 9974   0.760   5.784   7.132  0.6529  0.0127 -0.4825
   7623SM  H12A 9975   0.675   5.810   7.071  0.9410 -0.8980 -1.3007
   7623SM  H12B 9976   0.799   5.689   7.098 -0.7357 -0.6903 -0.1979
   7623SM   C11 9977   0.857   5.893   7.086  0.7165  0.7605  0.1445
   7623SM  H11A 9978   0.890   5.878   6.981  1.4578  0.8599  0.3539
   7623SM  H11B 9979   0.953   5.873   7.140  2.1857  0.0489 -2.5645
   7623SM     P 9980   0.893   6.144   7.083 -0.1131 -0.1885 -0.0993
   7623SM   O13 9981   0.829   6.268   7.135 -0.6300 -0.0748 -0.5246
   7623SM   O14 9982   1.032   6.114   7.134  0.2076 -0.1391 -0.2007
   7623SM   O11 9983   0.910   6.165   6.928  0.1028  0.4889  0.4565
   7623SM   O12 9984   0.799   6.024   7.106  0.0296  0.0773 -0.0572
   7623SM   C1S 9985   0.826   6.103   6.821 -0.4695 -0.2110 -0.2872
   7623SM   H1S 9986   0.743   6.172   6.794  2.4546  2.9761 -2.0832
   7623SM   H1T 9987   0.788   6.002   6.843  0.3152 -0.4673 -0.0631
   7623SM    NF 9988   0.829   6.031   6.586  0.1143 -0.2683  0.8334
   7623SM   HNF 9989   0.863   5.942   6.558 -1.5934 -0.9560  0.8207
   7623SM   C2S 9990   0.907   6.093   6.690 -0.1374  0.3652  0.2197
   7623SM   H2S 9991   0.928   6.198   6.662 -2.2386  0.9075  0.5141
   7623SM   C3S 9992   1.045   6.015   6.714  0.1239  0.1601 -0.2661
   7623SM   H3S 9993   1.024   5.909   6.737 -0.6686  0.1883 -0.8157
   7623SM    O3 9994   1.133   6.051   6.817 -0.5108  0.8330 -0.1771
   7623SM   HO3 9995   1.092   6.125   6.863  1.3627  2.8276 -1.4936
   7623SM   C4S 9996   1.119   6.015   6.587  0.3706  0.6420  0.2078
   7623SM   H4S 9997   1.146   6.117   6.555 -0.0958  0.7955  0.3056
   7623SM   C5S 9998   1.149   5.904   6.511 -1.1187  0.0714 -0.8574
   7623SM   H5S 9999   1.122   5.804   6.547  0.6934  0.1701  0.9535
   7623SM   C6S10000   1.208   5.925   6.377  0.1879 -0.0516  0.2800
   7623SM   H6S10001   1.232   6.032   6.362  0.5052 -0.2073 -0.3623
   7623SM   H6T10002   1.128   5.913   6.300 -2.7203 -0.9687  3.2418
   7623SM   C7S10003   1.330   5.837   6.349 -0.8256 -0.2024 -0.6037
   7623SM   H7S10004   1.326   5.735   6.393  0.6394 -0.2727 -0.5850
   7623SM   H7T10005   1.412   5.885   6.406 -1.3842  1.0435 -0.8337
   7623SM   C8S10006   1.357   5.825   6.201 -0.2128 -0.0544 -0.5604
   7623SM   H8S10007   1.460   5.786   6.187 -0.4030 -0.1718 -1.7190
   7623SM   H8T10008   1.357   5.928   6.161  1.3377  0.3363  0.3645
   7623SM   C9S10009   1.266   5.716   6.134  0.7456 -0.2210  0.2227
   7623SM   H9S10010   1.162   5.751   6.148  0.3341 -1.1860 -0.2834
   7623SM   H9T10011   1.281   5.622   6.192 -0.2760 -0.1610  0.6057
   7623SM  C10S10012   1.307   5.704   5.984  0.0485 -0.8907 -0.8536
   7623SM  H10S10013   1.403   5.649   5.975  0.0125 -0.9698 -0.7453
   7623SM  H10T10014   1.320   5.810   5.952  0.7600 -0.6178  0.2783
   7623SM  C11S10015   1.201   5.652   5.891  0.5173 -0.2690 -0.1494
   7623SM  H11S10016   1.104   5.705   5.901 -0.8157 -2.4529 -0.8018
   7623SM  H11T10017   1.181   5.545   5.915 -1.0199 -0.0626 -0.3899
   7623SM  C12S10018   1.258   5.647   5.754  0.8518  0.4352  0.3577
   7623SM  H12S10019   1.362   5.606   5.760  0.3818 -0.7690  0.5801
   7623SM  H12T10020   1.265   5.751   5.718 -2.4020  0.1090 -1.6255
   7623SM  C13S10021   1.168   5.567   5.660 -0.0964 -1.1006 -0.1490
   7623SM  H13S10022   1.073   5.619   5.636  0.6669 -0.3455 -1.6019
   7623SM  H13T10023   1.135   5.473   5.710  0.2309 -0.1783  1.8911
   7623SM  C14S10024   1.241   5.526   5.529 -0.1752  0.0459 -0.6414
   7623SM  H14S10025   1.328   5.462   5.557 -0.4546  0.4697  1.4032
   7623SM  H14T10026   1.277   5.619   5.481  1.4916 -0.1199  0.2016
   7623SM  C15S10027   1.151   5.450   5.426 -0.5289 -0.4190  0.6191
   7623SM  H15S10028   1.132   5.516   5.338 -0.9448 -1.2249  0.0897
   7623SM  H15T10029   1.046   5.438   5.460 -0.2554 -2.4464  0.8500
   7623SM  C16S10030   1.212   5.315   5.391  0.9725 -0.3433 -0.3259
   7623SM  H16S10031   1.215   5.253   5.483  0.2417  2.3074  1.5953
   7623SM  H16T10032   1.317   5.335   5.361  1.1237  2.1497  1.5569
   7623SM  C17S10033   1.136   5.255   5.270  0.4800  0.0016 -0.2711
   7623SM  H17S10034   1.191   5.172   5.219  3.0172  1.1765  0.4192
   7623SM  H17T10035   1.101   5.330   5.197 -3.3638 -1.5088 -0.2224
   7623SM  C18S10036   0.997   5.199   5.327 -0.0716  0.7886 -0.9119
   7623SM  H18S10037   1.022   5.139   5.416 -2.2628  1.1134 -0.0238
   7623SM  H18T10038   0.940   5.146   5.248  3.1465  0.0274 -2.9451
   7623SM  H18U10039   0.933   5.284   5.359 -0.0845 -0.0655  1.5044
   7623SM   C1F10040   0.714   6.080   6.544 -0.6577  0.1879  0.3329
   7623SM    OF10041   0.678   6.194   6.566 -0.1401  0.0317 -0.7752
   7623SM   C2F10042   0.621   5.986   6.466 -0.2334  0.7342  1.1130
   7623SM   H2F10043   0.593   5.910   6.541 -0.6889  0.2628  0.4750
   7623SM   H2G10044   0.680   5.949   6.379 -1.0051 -0.1722  0.9603
   7623SM   C3F10045   0.491   6.046   6.410  0.4496  0.6738  0.6738
   7623SM   H3F10046   0.449   6.108   6.492 -0.2715  0.2744  0.6145
   7623SM   H3G10047   0.420   5.962   6.395  0.6550  0.7115 -0.6682
   7623SM   C4F10048   0.509   6.140   6.295  0.2267  0.4603  1.0881
   7623SM   H4F10049   0.612   6.181   6.296 -0.3525  1.9927  0.9377
   7623SM   H4G10050   0.438   6.224   6.312  0.7141  1.1434 -0.1468
   7623SM   C5F10051   0.480   6.083   6.153 -0.1771 -1.0915 -0.5950
   7623SM   H5F10052   0.370   6.068   6.155 -0.3959  0.3470  0.1718
   7623SM   H5G10053   0.539   5.993   6.128  1.7350 -0.2620  0.6656
   7623SM   C6F10054   0.497   6.185   6.038  0.4523 -0.1761  0.3407
   7623SM   H6F10055   0.606   6.194   6.019  0.4712 -0.0038  0.5226
   7623SM   H6G10056   0.465   6.288   6.066 -1.0885 -0.5109 -0.0959
   7623SM   C7F10057   0.443   6.123   5.908  0.5193  1.0588 -0.2521
   7623SM   H7F10058   0.334   6.102   5.910  0.9230 -1.2430 -0.3395
   7623SM   H7G10059   0.486   6.023   5.885  0.1928  1.0437 -0.8322
   7623SM   C8F10060   0.464   6.224   5.790 -0.0144  1.5684  0.0515
   7623SM   H8F10061   0.558   6.280   5.807  1.8251 -0.9064 -1.2715
   7623SM   H8G10062   0.381   6.298   5.795 -1.1411  0.3197  0.5043
   7623SM   C9F10063   0.474   6.155   5.658 -0.6221  0.5646 -1.1334
   7623SM   H9F10064   0.460   6.234   5.580  1.2011 -0.4826 -2.6060
   7623SM   H9G10065   0.395   6.078   5.644  2.2556 -2.3627 -2.5565
   7623SM  C10F10066   0.610   6.079   5.640  0.0898 -0.4545 -0.0901
   7623SM  H10F10067   0.606   5.995   5.713  1.4632  1.0655  1.8579
   7623SM  H10G10068   0.687   6.154   5.668  0.3015 -1.0141  0.8820
   7623SM  C11F10069   0.634   6.039   5.490  0.1207 -0.4829  0.1660
   7623SM  H11F10070   0.605   6.128   5.432 -0.4024 -0.5790  0.2780
   7623SM  H11G10071   0.570   5.951   5.467  1.3861 -1.6156  0.8327
   7623SM  C12F10072   0.782   5.999   5.461 -0.5024  0.3371 -0.2035
   7623SM  H12F10073   0.792   5.892   5.489  3.2893  0.2381 -1.3858
   7623SM  H12G10074   0.853   6.058   5.523 -0.9005  2.4789 -1.6641
   7623SM  C13F10075   0.805   6.011   5.309 -0.1592 -0.2186 -0.2217
   7623SM  H13F10076   0.796   6.114   5.266 -0.0722 -0.6666 -1.3449
   7623SM  H13G10077   0.725   5.952   5.260 -2.5524  2.4137  0.2291
   7623SM  C14F10078   0.950   5.968   5.266 -0.5978 -0.3480 -0.1888
   7623SM  H14F10079   0.965   5.869   5.314  1.2249  0.0568  0.1569
   7623SM  H14G10080   1.018   6.031   5.327 -1.6869  0.4283  0.2538
   7623SM  C15F10081   0.954   5.983   5.111 -0.2491  0.0699 -0.0018
   7623SM  H15F10082   1.060   5.973   5.080  1.1193  1.4199  3.6954
   7623SM  H15G10083   0.920   6.079   5.067  1.1702 -0.2458 -1.9327
   7623SM  C16F10084   0.863   5.868   5.040  0.0560 -0.9337  0.1935
   7623SM  H16F10085   0.856   5.885   4.931 -2.0199  0.5961  0.5048
   7623SM  H16G10086   0.756   5.878   5.070 -0.3047  2.3633 -1.7115
   7623SM  C17F10087   0.911   5.727   5.066  0.2631  0.3063 -0.5295
   7623SM  H17F10088   0.909   5.706   5.176  0.8657  1.6290 -0.2446
   7623SM  H17G10089   1.018   5.729   5.038  0.5796 -2.4235  0.1913
   7623SM  C18F10090   0.838   5.621   4.989  0.0608 -0.0519 -0.3860
   7623SM  H18F10091   0.859   5.646   4.883 -0.0177  2.0711  0.0438
   7623SM  H18G10092   0.729   5.639   5.003  0.3194  0.6401  0.9864
   7623SM  C19F10093   0.878   5.477   5.018 -0.3009 -0.1513 -0.1406
   7623SM  H19F10094   0.798   5.407   4.988 -1.0266  1.0017 -0.9600
   7623SM  H19G10095   0.892   5.454   5.126 -3.2660 -2.3649 -0.1214
   7623SM  C20F10096   0.988   5.438   4.916 -0.5126  0.5806 -0.7720
   7623SM  H20F10097   1.073   5.504   4.946  0.5373  0.1643 -2.6709
   7623SM  H20G10098   0.970   5.465   4.810 -0.8918  2.0436 -0.3569
   7623SM  C21F10099   1.019   5.277   4.915 -0.0633 -0.2293 -0.2574
   7623SM  H21F10100   1.059   5.258   5.017 -0.3010 -2.0205 -0.4615
   7623SM  H21G10101   1.100   5.270   4.839  0.1410 -0.4499 -0.0198
   7623SM  C22F10102   0.896   5.188   4.885  0.1906  0.3789  0.2026
   7623SM  H22F10103   0.811   5.205   4.955  0.0992 -0.5552  0.3312
   7623SM  H22G10104   0.936   5.090   4.918 -1.0038  0.1112  0.9008
   7623SM  C23F10105   0.850   5.185   4.737 -0.2416 -0.4889 -0.8295
   7623SM  H23F10106   0.943   5.191   4.676  0.7680 -1.2140  0.5853
   7623SM  H23G10107   0.779   5.269   4.722 -0.5441 -0.7225 -0.7010
   7623SM  H23H10108   0.788   5.097   4.712 -0.2122 -0.9426  0.5734
   7723SM     N10109   1.568   1.810   6.964  0.2290  0.5999  0.0748
   7723SM   C1510110   1.618   1.747   6.834 -0.1620 -0.0707  0.6983
   7723SM  H15A10111   1.688   1.668   6.854 -0.0084 -0.1381 -0.0725
   7723SM  H15B10112   1.652   1.820   6.762 -1.5321  0.4513  0.5380
   7723SM  H15C10113   1.531   1.710   6.782  0.7033  1.1563 -1.7812
   7723SM   C1410114   1.496   1.701   7.038  0.1086  0.0873 -0.4107
   7723SM  H14A10115   1.549   1.607   7.041 -1.3877 -0.7910  2.1520
   7723SM  H14B10116   1.408   1.680   6.980 -1.2730 -0.1723  1.6895
   7723SM  H14C10117   1.477   1.729   7.141  2.7619  1.4268 -0.1777
   7723SM   C1310118   1.687   1.852   7.039  0.6357 -0.2958 -0.4577
   7723SM  H13A10119   1.659   1.848   7.144 -1.1534 -1.6822 -0.9379
   7723SM  H13B10120   1.704   1.953   7.004 -2.8340  0.1507 -1.2398
   7723SM  H13C10121   1.768   1.782   7.026 -0.1855 -1.4841  0.5346
   7723SM   C1210122   1.479   1.931   6.930  0.0567 -0.3612  0.0308
   7723SM  H12A10123   1.398   1.894   6.869 -1.1803  3.7945 -1.1172
   7723SM  H12B10124   1.534   2.004   6.873 -1.3505  1.9501  1.4800
   7723SM   C1110125   1.410   2.007   7.040  0.4958  0.1053  0.0355
   7723SM  H11A10126   1.374   2.105   7.004  1.5382  0.1616 -0.9282
   7723SM  H11B10127   1.483   2.037   7.119 -1.7318  1.2659  1.7581
   7723SM     P10128   1.177   1.985   7.174 -0.1395 -0.6182 -0.1971
   7723SM   O1310129   1.095   1.864   7.205  0.0277 -0.4393 -0.7113
   7723SM   O1410130   1.215   2.067   7.293  0.4565  0.2181 -0.3422
   7723SM   O1110131   1.103   2.071   7.066 -0.6382  0.1955 -0.1489
   7723SM   O1210132   1.310   1.932   7.105 -0.1011  0.1778  0.1650
   7723SM   C1S10133   1.099   2.017   6.934  0.5150 -0.6030  0.2473
   7723SM   H1S10134   1.045   1.921   6.928  0.2515 -0.4940  0.8232
   7723SM   H1T10135   1.202   2.001   6.894  0.5497  1.3477 -0.5991
   7723SM    NF10136   1.015   2.061   6.700  0.1968  0.2389  0.0826
   7723SM   HNF10137   1.088   2.077   6.633 -0.5061 -2.0441 -1.3189
   7723SM   C2S10138   1.036   2.117   6.833  0.2888  0.6218  0.4618
   7723SM   H2S10139   0.936   2.133   6.879  0.3739 -0.9290  1.2640
   7723SM   C3S10140   1.109   2.250   6.829 -0.3140 -0.3556 -0.0864
   7723SM   H3S10141   1.208   2.233   6.780 -0.2692  1.8264 -0.8713
   7723SM    O310142   1.124   2.311   6.958  0.0276  0.0092 -0.1828
   7723SM   HO310143   1.094   2.237   7.012  1.8440 -1.7106 -1.3757
   7723SM   C4S10144   1.035   2.353   6.744 -0.5023 -0.0165  0.3520
   7723SM   H4S10145   0.925   2.345   6.753 -0.4162 -0.3057  1.2605
   7723SM   C5S10146   1.087   2.425   6.643  0.1866 -0.1165  0.0928
   7723SM   H5S10147   1.189   2.408   6.607  0.3199 -2.9864  1.5724
   7723SM   C6S10148   1.005   2.509   6.551 -0.3185  0.4982 -0.4000
   7723SM   H6S10149   0.969   2.444   6.468  0.1662  1.0702 -1.0640
   7723SM   H6T10150   1.074   2.581   6.502  0.6837 -0.0777  0.1315
   7723SM   C7S10151   0.881   2.576   6.613 -0.0303  0.0466  0.2748
   7723SM   H7S10152   0.896   2.641   6.702  0.4010 -1.7160  1.5489
   7723SM   H7T10153   0.807   2.498   6.641  2.8476 -2.9636  0.1950
   7723SM   C8S10154   0.814   2.664   6.507  0.1275  0.4665  0.0825
   7723SM   H8S10155   0.703   2.676   6.505  0.2523  1.8382 -0.7805
   7723SM   H8T10156   0.828   2.609   6.412  0.4787  1.8319 -0.6960
   7723SM   C9S10157   0.878   2.798   6.502 -0.1714 -1.2380  0.3701
   7723SM   H9S10158   0.984   2.784   6.472 -0.3221 -0.5832 -0.4966
   7723SM   H9T10159   0.886   2.848   6.601 -0.8866  1.5777 -0.8973
   7723SM  C10S10160   0.812   2.885   6.394  0.4399 -0.3592 -0.2344
   7723SM  H10S10161   0.705   2.901   6.416  0.3888 -0.5095 -0.3676
   7723SM  H10T10162   0.802   2.832   6.297 -1.8200  0.2727 -0.3832
   7723SM  C11S10163   0.874   3.026   6.364  0.2338  0.1115 -0.2521
   7723SM  H11S10164   0.898   3.071   6.463 -0.2734 -1.0341  0.4144
   7723SM  H11T10165   0.802   3.100   6.324  0.3261  1.0115  1.1841
   7723SM  C12S10166   0.992   3.028   6.257 -0.2147 -0.0084 -0.3698
   7723SM  H12S10167   1.090   2.986   6.287 -0.7895 -0.2408  1.2773
   7723SM  H12T10168   1.022   3.134   6.245 -1.2907  0.1504 -2.0457
   7723SM  C13S10169   0.950   2.998   6.112  0.0810  0.1942 -0.6637
   7723SM  H13S10170   0.895   3.080   6.062 -3.0522 -0.3205  1.5916
   7723SM  H13T10171   0.891   2.904   6.108 -0.1064  0.3436 -1.6589
   7723SM  C14S10172   1.071   2.966   6.019 -0.0300  0.9221  0.0526
   7723SM  H14S10173   1.104   2.864   6.051 -1.6468  0.0477 -0.9301
   7723SM  H14T10174   1.154   3.035   6.041  2.1327 -1.3733 -0.4878
   7723SM  C15S10175   1.021   2.956   5.871  0.4487 -0.0641  0.3391
   7723SM  H15S10176   1.000   3.060   5.838 -1.2059 -0.8740 -1.3712
   7723SM  H15T10177   0.921   2.911   5.855 -0.2068  1.6933 -0.8806
   7723SM  C16S10178   1.124   2.885   5.775  0.5186 -0.0210  0.3701
   7723SM  H16S10179   1.143   2.786   5.821  0.4671 -0.1489  0.1159
   7723SM  H16T10180   1.217   2.943   5.794  1.8262 -1.9996  0.3303
   7723SM  C17S10181   1.076   2.885   5.625 -0.6540 -0.4188 -0.0592
   7723SM  H17S10182   1.163   2.901   5.558 -1.8069 -1.9121 -2.0106
   7723SM  H17T10183   0.997   2.962   5.617 -0.3258 -0.1393 -0.6764
   7723SM  C18S10184   1.035   2.743   5.585  0.7494  0.0686  0.2069
   7723SM  H18S10185   0.995   2.757   5.483  0.7358  0.9760  0.3277
   7723SM  H18T10186   0.940   2.722   5.640  1.9677 -1.2277  1.9132
   7723SM  H18U10187   1.118   2.669   5.586  0.3668 -0.3977 -0.8479
   7723SM   C1F10188   0.942   1.952   6.677  0.1662  0.0958  0.0633
   7723SM    OF10189   0.896   1.884   6.769  0.0982  0.0961 -0.2292
   7723SM   C2F10190   0.932   1.901   6.532  1.0089  0.0084  0.8873
   7723SM   H2F10191   1.026   1.847   6.505  0.3849 -2.0215  2.5464
   7723SM   H2G10192   0.927   1.988   6.462 -0.0609 -0.5571  0.2487
   7723SM   C3F10193   0.803   1.815   6.514 -0.0836  0.0964  0.4304
   7723SM   H3F10194   0.719   1.885   6.534 -1.6907 -1.6461  0.0933
   7723SM   H3G10195   0.811   1.729   6.584 -1.0022 -0.8451 -0.5771
   7723SM   C4F10196   0.801   1.749   6.374  1.0261  0.5730 -0.1991
   7723SM   H4F10197   0.746   1.653   6.387  1.6554 -0.1631 -2.5304
   7723SM   H4G10198   0.901   1.728   6.330 -0.3778 -2.8350 -2.1289
   7723SM   C5F10199   0.734   1.847   6.269 -0.5117  0.4247  0.3029
   7723SM   H5F10200   0.782   1.943   6.295  0.1651 -0.2411  1.6148
   7723SM   H5G10201   0.628   1.857   6.301 -0.8696 -1.5903 -0.0943
   7723SM   C6F10202   0.742   1.818   6.119 -0.5890  0.2389  0.0589
   7723SM   H6F10203   0.689   1.721   6.113  1.7658 -1.1273  0.3480
   7723SM   H6G10204   0.848   1.797   6.094 -0.5879 -0.4868  0.6616
   7723SM   C7F10205   0.684   1.932   6.044  0.5431  0.1846  0.5897
   7723SM   H7F10206   0.738   2.028   6.060 -0.3887  0.9638 -0.7304
   7723SM   H7G10207   0.581   1.946   6.082 -0.1815 -1.5200 -0.5874
   7723SM   C8F10208   0.658   1.910   5.893 -0.6628 -0.0437  0.0686
   7723SM   H8F10209   0.575   1.837   5.876  0.1288 -0.7165 -0.9843
   7723SM   H8G10210   0.752   1.875   5.846 -0.5253 -0.1135  0.3935
   7723SM   C9F10211   0.602   2.033   5.828 -0.9054 -0.3903 -0.1097
   7723SM   H9F10212   0.685   2.107   5.829 -0.0347 -1.3418 -0.2597
   7723SM   H9G10213   0.510   2.057   5.885 -0.6170 -0.2798  0.3196
   7723SM  C10F10214   0.556   2.003   5.685 -0.2661 -0.3565 -0.3354
   7723SM  H10F10215   0.499   1.908   5.685  0.2447 -0.6696 -1.3976
   7723SM  H10G10216   0.646   1.988   5.621 -0.3050 -1.3169 -0.1763
   7723SM  C11F10217   0.485   2.130   5.632  0.3434 -0.0380  0.4408
   7723SM  H11F10218   0.549   2.218   5.654  0.6871 -0.2306  0.2202
   7723SM  H11G10219   0.391   2.143   5.690 -0.5084  0.1334 -0.9570
   7723SM  C12F10220   0.433   2.126   5.489  0.4646  0.5184 -0.2143
   7723SM  H12F10221   0.375   2.032   5.476 -0.6243  0.9472  1.2486
   7723SM  H12G10222   0.516   2.109   5.417 -0.4368 -1.6834 -0.8352
   7723SM  C13F10223   0.356   2.252   5.450 -0.6038 -0.0864 -0.0587
   7723SM  H13F10224   0.433   2.333   5.447 -1.0005  0.4391  2.1813
   7723SM  H13G10225   0.280   2.271   5.528  0.0385 -1.9689  1.1010
   7723SM  C14F10226   0.285   2.253   5.316 -0.8050  0.5317  0.3093
   7723SM  H14F10227   0.198   2.184   5.315 -0.5688  0.1573  2.2146
   7723SM  H14G10228   0.353   2.205   5.243  0.2884 -0.8688  2.1676
   7723SM  C15F10229   0.247   2.391   5.260  0.2662  0.5226  0.2200
   7723SM  H15F10230   0.341   2.448   5.247  0.4382  0.4240  0.9667
   7723SM  H15G10231   0.167   2.428   5.328 -0.4321 -0.5591  0.0198
   7723SM  C16F10232   0.182   2.380   5.121  1.5505 -0.3345  0.3637
   7723SM  H16F10233   0.082   2.339   5.147  1.6621 -0.6035  0.3695
   7723SM  H16G10234   0.227   2.297   5.063 -0.9563 -0.7020 -1.2186
   7723SM  C17F10235   0.158   2.509   5.041  0.5570  0.3173 -0.0518
   7723SM  H17F10236   0.256   2.540   4.999  1.3492 -1.0252  0.7183
   7723SM  H17G10237   0.130   2.574   5.127 -0.4833 -0.3473  0.1423
   7723SM  C18F10238   0.045   2.494   4.933 -0.1154  0.3083 -0.4817
   7723SM  H18F10239  -0.047   2.469   4.991 -0.1326  1.3761 -0.0220
   7723SM  H18G10240   0.071   2.414   4.861  1.9446 -1.3449  1.9085
   7723SM  C19F10241   0.045   2.627   4.852 -0.0608  0.6107  0.9970
   7723SM  H19F10242   0.150   2.648   4.821  0.1958 -1.8430 -0.0779
   7723SM  H19G10243   0.017   2.705   4.926 -0.6132  0.9842  0.4021
   7723SM  C20F10244  -0.056   2.629   4.738  0.5831  0.5301  0.6584
   7723SM  H20F10245  -0.145   2.581   4.782  2.3656 -0.9901  2.8074
   7723SM  H20G10246  -0.022   2.563   4.655  0.6284  0.9101  0.3676
   7723SM  C21F10247  -0.079   2.773   4.681 -0.7223 -0.5929 -0.9246
   7723SM  H21F10248  -0.002   2.810   4.610  0.8865  0.6318  1.3158
   7723SM  H21G10249  -0.068   2.837   4.772 -1.5449 -0.6291 -0.7955
   7723SM  C22F10250  -0.219   2.790   4.628  0.2624  0.0930  0.0432
   7723SM  H22F10251  -0.299   2.762   4.700  1.3061 -0.0386  1.1787
   7723SM  H22G10252  -0.221   2.717   4.544  0.9402 -0.4416  0.4800
   7723SM  C23F10253  -0.246   2.923   4.583  0.0796 -0.1986 -0.2617
   7723SM  H23F10254  -0.227   2.992   4.668  1.3221 -0.9785  0.1297
   7723SM  H23G10255  -0.345   2.926   4.533  1.3832  0.4295 -3.0610
   7723SM  H23H10256  -0.171   2.961   4.510 -0.3187 -0.5035 -0.8376
   7823SM     N10257   2.084   7.404   7.584 -0.0440 -0.5065 -0.0413
   7823SM   C1510258   2.008   7.536   7.585  0.4485 -0.1885  0.8049
   7823SM  H15A10259   1.906   7.536   7.550  0.0387  2.4757  1.7721
   7823SM  H15B10260   2.071   7.611   7.538  1.1157 -0.3415  1.4324
   7823SM  H15C10261   2.002   7.565   7.689  1.5677 -0.1978  0.8856
   7823SM   C1410262   2.214   7.433   7.655  0.6262 -0.5823  0.2267
   7823SM  H14A10263   2.279   7.498   7.598  2.3196 -2.6525 -0.3559
   7823SM  H14B10264   2.277   7.346   7.671 -2.9408 -3.4014  0.1974
   7823SM  H14C10265   2.185   7.487   7.743 -0.1482  0.0789 -0.4236
   7823SM   C1310266   2.001   7.316   7.667  0.0166  0.3685  0.1740
   7823SM  H13A10267   2.059   7.230   7.701  0.6837  0.1296 -1.4562
   7823SM  H13B10268   1.906   7.289   7.624 -1.3913 -0.4416  3.4183
   7823SM  H13C10269   1.973   7.367   7.758 -1.9736 -1.8609  0.9213
   7823SM   C1210270   2.096   7.339   7.444  0.4246  0.1343 -0.1993
   7823SM  H12A10271   2.003   7.293   7.415  1.0731 -0.3326 -1.6320
   7823SM  H12B10272   2.165   7.257   7.451 -1.1787 -1.4491 -1.6874
   7823SM   C1110273   2.139   7.428   7.329  0.3142 -0.3011 -0.0023
   7823SM  H11A10274   2.076   7.519   7.341 -0.1711 -0.5554 -0.5715
   7823SM  H11B10275   2.115   7.395   7.226  0.9680 -0.0420 -0.2427
   7823SM     P10276   2.393   7.364   7.276  0.4640  0.1674  0.3081
   7823SM   O1310277   2.522   7.429   7.294  0.2178  0.4597  0.0953
   7823SM   O1410278   2.374   7.219   7.322 -0.2241 -0.1386 -0.0729
   7823SM   O1110279   2.360   7.367   7.121  0.3506  0.0700  0.1010
   7823SM   O1210280   2.278   7.454   7.345  0.2342 -0.4326  0.3733
   7823SM   C1S10281   2.319   7.495   7.069 -0.1806  0.1711  0.2952
   7823SM   H1S10282   2.366   7.584   7.115 -1.8419  0.9140  0.6098
   7823SM   H1T10283   2.213   7.523   7.085  0.0176  0.7987  0.5251
   7823SM    NF10284   2.336   7.636   6.866  0.1697 -0.1887 -0.0424
   7823SM   HNF10285   2.256   7.650   6.808 -1.3496  1.3787  2.2699
   7823SM   C2S10286   2.350   7.499   6.915 -0.1233 -0.4328 -0.3536
   7823SM   H2S10287   2.456   7.467   6.900 -0.4135 -1.0635 -1.1055
   7823SM   C3S10288   2.264   7.397   6.841 -0.0150 -0.0177  0.7954
   7823SM   H3S10289   2.157   7.424   6.854 -0.0601 -0.5626  1.6354
   7823SM    O310290   2.271   7.262   6.883 -0.0313  0.0265 -0.0841
   7823SM   HO310291   2.311   7.262   6.970  1.9342 -0.0652 -0.9325
   7823SM   C4S10292   2.287   7.390   6.685  0.8413 -0.3528  0.5902
   7823SM   H4S10293   2.225   7.470   6.642  0.6427 -0.6284  0.3595
   7823SM   C5S10294   2.356   7.309   6.607  0.1414  0.0617  0.2267
   7823SM   H5S10295   2.421   7.236   6.655 -0.4478 -0.1681  0.6844
   7823SM   C6S10296   2.369   7.311   6.453  0.3460  0.2448 -0.2398
   7823SM   H6S10297   2.290   7.249   6.406 -0.1071  0.4981  0.1813
   7823SM   H6T10298   2.468   7.271   6.422  0.0304  0.3349 -1.3996
   7823SM   C7S10299   2.368   7.445   6.383 -0.1848 -0.8042  0.2945
   7823SM   H7S10300   2.463   7.502   6.394 -0.1859 -1.0445  1.7586
   7823SM   H7T10301   2.288   7.510   6.426 -0.9068 -0.9894 -0.7333
   7823SM   C8S10302   2.350   7.435   6.227  0.3958  0.1836  0.3696
   7823SM   H8S10303   2.248   7.394   6.211  1.0556 -1.9408  1.2457
   7823SM   H8T10304   2.427   7.362   6.195 -0.1378 -1.2283  2.1351
   7823SM   C9S10305   2.360   7.568   6.148  0.1648  0.6039  0.5435
   7823SM   H9S10306   2.463   7.607   6.164  2.2435 -3.9205 -0.2160
   7823SM   H9T10307   2.279   7.640   6.174 -0.1968  0.6220 -0.5878
   7823SM  C10S10308   2.358   7.555   5.999  0.3918 -0.0087 -0.0642
   7823SM  H10S10309   2.409   7.459   5.978 -0.2957 -0.1898 -0.9824
   7823SM  H10T10310   2.414   7.634   5.945 -0.0536  0.9090  0.7789
   7823SM  C11S10311   2.216   7.543   5.938 -0.8659 -0.0641  0.2215
   7823SM  H11S10312   2.156   7.629   5.974 -0.0678  0.4069  0.4557
   7823SM  H11T10313   2.169   7.446   5.966  1.0489 -0.7481  1.2661
   7823SM  C12S10314   2.223   7.547   5.787 -0.1640  0.3012 -0.2213
   7823SM  H12S10315   2.274   7.455   5.753  1.3409  1.1579 -0.3743
   7823SM  H12T10316   2.297   7.628   5.769 -0.9073  1.6038  2.0898
   7823SM  C13S10317   2.091   7.565   5.721 -0.4910 -0.1977  0.2950
   7823SM  H13S10318   2.049   7.665   5.743 -0.1228 -0.5474  2.8899
   7823SM  H13T10319   2.019   7.490   5.762  0.1251 -0.4542  0.9180
   7823SM  C14S10320   2.109   7.558   5.570  0.8910  0.4016 -1.0891
   7823SM  H14S10321   2.011   7.545   5.518 -0.1550 -0.9689  1.0723
   7823SM  H14T10322   2.181   7.480   5.538  0.1908 -0.4091 -0.7240
   7823SM  C15S10323   2.163   7.694   5.513 -0.1570  0.2763 -1.3585
   7823SM  H15S10324   2.273   7.703   5.521 -0.1509 -0.9851  0.7078
   7823SM  H15T10325   2.113   7.771   5.575 -0.4489  0.1340 -1.4146
   7823SM  C16S10326   2.117   7.726   5.372 -0.0797  0.0574 -0.1269
   7823SM  H16S10327   2.008   7.714   5.356 -0.3925  1.8146  0.4141
   7823SM  H16T10328   2.164   7.645   5.313 -0.5784 -1.5585  1.6175
   7823SM  C17S10329   2.155   7.862   5.313 -0.0579  0.2357  0.4087
   7823SM  H17S10330   2.265   7.859   5.298  0.3731  1.4708  2.7585
   7823SM  H17T10331   2.123   7.943   5.382 -1.2769  2.0313 -2.1390
   7823SM  C18S10332   2.092   7.893   5.174  0.0791 -0.6099 -0.2368
   7823SM  H18S10333   1.981   7.897   5.181 -0.1558  1.6922 -3.3463
   7823SM  H18T10334   2.127   7.828   5.092 -0.6542 -1.1889 -0.1081
   7823SM  H18U10335   2.129   7.991   5.138 -1.7341 -0.4150 -1.7518
   7823SM   C1F10336   2.405   7.740   6.910  0.4546 -0.1714  0.1859
   7823SM    OF10337   2.506   7.736   6.980  0.0971  0.1044 -0.0069
   7823SM   C2F10338   2.344   7.878   6.880 -1.0792 -0.0792  0.5643
   7823SM   H2F10339   2.314   7.923   6.977  2.9914  4.0378  0.2620
   7823SM   H2G10340   2.251   7.861   6.822  0.0657 -2.1514 -0.7801
   7823SM   C3F10341   2.439   7.966   6.801 -0.1060 -1.0593 -0.7150
   7823SM   H3F10342   2.523   7.998   6.866 -0.0916 -3.4592  0.5561
   7823SM   H3G10343   2.376   8.052   6.769 -1.1364 -1.7647 -0.6199
   7823SM   C4F10344   2.494   7.897   6.674  0.0211 -0.5321  0.5766
   7823SM   H4F10345   2.558   7.809   6.693  0.1417 -0.2969  1.3016
   7823SM   H4G10346   2.555   7.977   6.627 -0.7531 -0.9397 -1.2155
   7823SM   C5F10347   2.385   7.866   6.570 -0.3202  0.3130  0.5068
   7823SM   H5F10348   2.302   7.937   6.553 -1.4700 -0.6566  1.8280
   7823SM   H5G10349   2.341   7.769   6.602 -1.7174  1.3550  1.8406
   7823SM   C6F10350   2.451   7.835   6.429  0.5557 -0.1732 -0.5101
   7823SM   H6F10351   2.381   7.762   6.383  0.2469  0.1696 -0.5869
   7823SM   H6G10352   2.545   7.783   6.459  0.2493  1.1353  3.3355
   7823SM   C7F10353   2.475   7.959   6.341 -0.0779  0.1342 -0.7223
   7823SM   H7F10354   2.538   8.038   6.387 -0.0767  2.0876 -3.7929
   7823SM   H7G10355   2.380   8.015   6.329  0.8139  1.4109 -2.1132
   7823SM   C8F10356   2.541   7.924   6.209 -0.2755  0.3122  0.5534
   7823SM   H8F10357   2.493   7.830   6.177  0.3000  0.4221 -0.6969
   7823SM   H8G10358   2.649   7.900   6.220  0.9655  3.1200 -3.2931
   7823SM   C9F10359   2.532   8.037   6.103 -0.6989  0.7095  0.2809
   7823SM   H9F10360   2.557   8.136   6.149 -2.7535  2.0884 -1.3700
   7823SM   H9G10361   2.427   8.044   6.070 -0.6183 -1.2081 -0.4810
   7823SM  C10F10362   2.629   8.013   5.984  0.0783  0.0701 -0.7449
   7823SM  H10F10363   2.735   8.020   6.016  1.0480 -0.6314 -3.5823
   7823SM  H10G10364   2.624   8.091   5.905  0.3426  1.0932  0.2187
   7823SM  C11F10365   2.608   7.875   5.914  0.8862 -0.6480 -0.1290
   7823SM  H11F10366   2.499   7.856   5.904  0.7711 -0.2287  0.3057
   7823SM  H11G10367   2.652   7.797   5.980 -0.7674 -0.4544  1.2810
   7823SM  C12F10368   2.679   7.875   5.776 -0.4451  0.3301 -0.2940
   7823SM  H12F10369   2.786   7.901   5.785 -0.1950 -0.5889 -0.4502
   7823SM  H12G10370   2.638   7.962   5.720  2.3831  0.6275 -2.1055
   7823SM  C13F10371   2.683   7.752   5.688  0.0051 -0.9800 -0.0410
   7823SM  H13F10372   2.580   7.740   5.648  0.0317  1.2947 -0.9077
   7823SM  H13G10373   2.705   7.662   5.750  1.2948  0.3370  1.5043
   7823SM  C14F10374   2.783   7.764   5.583 -0.1717  0.1921  0.4980
   7823SM  H14F10375   2.789   7.661   5.542  0.9813  0.2286  0.5487
   7823SM  H14G10376   2.888   7.778   5.616  0.2607 -0.5114 -0.5298
   7823SM  C15F10377   2.754   7.869   5.485  0.1491 -0.3314 -0.5914
   7823SM  H15F10378   2.741   7.970   5.528  1.1199 -0.7019  0.6265
   7823SM  H15G10379   2.659   7.838   5.436  0.4578 -1.1958 -0.6685
   7823SM  C16F10380   2.866   7.889   5.380  0.8546 -0.6921 -0.1364
   7823SM  H16F10381   2.956   7.924   5.436  0.9481 -1.9405  0.5164
   7823SM  H16G10382   2.833   7.966   5.308 -0.2449 -2.3077 -1.4177
   7823SM  C17F10383   2.888   7.764   5.297 -0.2383  0.2211  0.0352
   7823SM  H17F10384   2.798   7.716   5.251 -0.7951  1.8025 -0.5982
   7823SM  H17G10385   2.917   7.685   5.370 -0.6428 -0.9001 -0.9664
   7823SM  C18F10386   2.988   7.794   5.180  0.4409 -0.3601  0.1940
   7823SM  H18F10387   3.091   7.826   5.208  0.1012  3.0900 -1.9275
   7823SM  H18G10388   2.947   7.885   5.131  0.9563 -1.7391 -3.0751
   7823SM  C19F10389   2.996   7.688   5.065 -0.0431 -0.7724 -0.4183
   7823SM  H19F10390   3.056   7.603   5.104  0.5060 -0.5507 -0.7715
   7823SM  H19G10391   3.050   7.729   4.978 -0.2657 -0.5967 -0.4758
   7823SM  C20F10392   2.867   7.635   5.007 -0.3051 -0.0437 -0.5034
   7823SM  H20F10393   2.795   7.720   4.995  3.1442  3.3528  0.6998
   7823SM  H20G10394   2.826   7.577   5.092  1.7933  0.5263  0.9625
   7823SM  C21F10395   2.883   7.551   4.883 -0.5465 -0.0392  0.1982
   7823SM  H21F10396   2.975   7.490   4.895  0.1060  0.3676 -2.1801
   7823SM  H21G10397   2.910   7.621   4.801  0.7828 -1.3216 -0.5016
   7823SM  C22F10398   2.760   7.462   4.831 -0.0933 -0.6521 -0.3381
   7823SM  H22F10399   2.670   7.527   4.826 -0.5722 -0.9302  2.7563
   7823SM  H22G10400   2.728   7.376   4.892 -2.0980  0.6306  0.5058
   7823SM  C23F10401   2.779   7.415   4.689 -0.1304 -0.1206 -0.6934
   7823SM  H23F10402   2.858   7.336   4.688 -0.2039 -0.3506  2.1594
   7823SM  H23G10403   2.805   7.506   4.633 -0.7834  0.6466  0.2150
   7823SM  H23H10404   2.691   7.366   4.642  0.9191 -2.0415 -0.7972
   7923SM     N10405   0.486   0.039   7.077  0.0477 -0.5487 -0.0174
   7923SM   C1510406   0.400   0.090   7.192 -0.6852 -0.0606  0.2581
   7923SM  H15A10407   0.309   0.142   7.164  0.2465  2.2151  1.2774
   7923SM  H15B10408   0.458   0.160   7.250  1.0445 -0.9945 -0.2675
   7923SM  H15C10409   0.380   0.013   7.265 -0.1681 -1.6388 -1.1985
   7923SM   C1410410   0.544   0.154   6.998  0.6273 -0.7550  0.0782
   7923SM  H14A10411   0.596   0.125   6.908  1.6911 -3.5582  1.4648
   7923SM  H14B10412   0.613   0.209   7.059  0.1981 -0.9149  0.7174
   7923SM  H14C10413   0.471   0.230   6.973 -1.0401 -1.7651  1.5819
   7923SM   C1310414   0.599  -0.037   7.136 -0.0372  0.5167  0.1564
   7923SM  H13A10415   0.675  -0.049   7.060  0.2547 -1.7431  0.7591
   7923SM  H13B10416   0.564  -0.131   7.173 -2.2080  1.2661  0.1387
   7923SM  H13C10417   0.631   0.017   7.224 -1.0809  0.7575  0.4006
   7923SM   C1210418   0.417  -0.052   6.975  0.1680  0.4956  0.1387
   7923SM  H12A10419   0.490  -0.104   6.915 -1.0334 -1.7648  0.5100
   7923SM  H12B10420   0.341   0.000   6.920 -1.4792 -1.7893  0.1049
   7923SM   C1110421   0.341  -0.176   7.037  0.3255  0.1280  0.4357
   7923SM  H11A10422   0.263  -0.220   6.971 -0.9379 -1.2227  2.6585
   7923SM  H11B10423   0.282  -0.138   7.124 -0.8087  0.3588 -0.4182
   7923SM     P10424   0.501  -0.365   6.985 -0.0240 -0.3182  0.2279
   7923SM   O1310425   0.608  -0.436   7.055 -0.4837  0.3844  0.4088
   7923SM   O1410426   0.395  -0.448   6.924  0.1342 -0.1807  0.4815
   7923SM   O1110427   0.577  -0.266   6.888 -0.1738  0.1302 -0.7762
   7923SM   O1210428   0.428  -0.270   7.093  0.2203  0.4693 -0.0666
   7923SM   C1S10429   0.540  -0.269   6.745  0.4448 -0.0176 -0.2453
   7923SM   H1S10430   0.436  -0.232   6.735  0.4354  0.3931  1.0870
   7923SM   H1T10431   0.545  -0.373   6.708 -0.1497 -0.0849 -0.1487
   7923SM    NF10432   0.584  -0.156   6.531  0.3767 -0.3219 -0.4531
   7923SM   HNF10433   0.582  -0.230   6.464  0.8560 -0.5698 -0.1971
   7923SM   C2S10434   0.641  -0.185   6.661 -0.4931 -0.0627 -0.1849
   7923SM   H2S10435   0.672  -0.096   6.720  0.8711 -2.1675  2.5286
   7923SM   C3S10436   0.777  -0.266   6.662  0.6242  0.1210  0.0365
   7923SM   H3S10437   0.766  -0.374   6.639 -3.3224  0.6589 -1.4502
   7923SM    O310438   0.836  -0.286   6.789 -0.1848  0.2451  0.2704
   7923SM   HO310439   0.758  -0.283   6.845  0.3520  2.5870  1.0150
   7923SM   C4S10440   0.871  -0.193   6.574 -0.2502  0.3675  0.2891
   7923SM   H4S10441   0.882  -0.088   6.604  0.4263  0.1017  1.0135
   7923SM   C5S10442   0.939  -0.240   6.468  0.1780  0.4009 -0.7435
   7923SM   H5S10443   0.926  -0.345   6.437 -1.9537 -0.7043  3.1879
   7923SM   C6S10444   1.037  -0.170   6.386  0.0669 -0.3049 -0.3512
   7923SM   H6S10445   1.009  -0.178   6.279 -0.9886 -1.1846 -0.0292
   7923SM   H6T10446   1.135  -0.222   6.394  0.4713  0.5976  0.9342
   7923SM   C7S10447   1.068  -0.021   6.433  0.2367  0.2822 -0.1411
   7923SM   H7S10448   1.167  -0.004   6.386  0.0859  0.0855 -0.5271
   7923SM   H7T10449   1.092  -0.023   6.542 -0.1060 -1.7270 -0.0743
   7923SM   C8S10450   0.971   0.092   6.401  0.5931  0.8506 -0.6444
   7923SM   H8S10451   0.888   0.088   6.474  0.6411  2.6188 -0.4557
   7923SM   H8T10452   0.928   0.078   6.299  1.2944 -1.1853 -0.7017
   7923SM   C9S10453   1.045   0.228   6.407 -0.3636  0.3592 -0.3061
   7923SM   H9S10454   1.138   0.217   6.467  0.4371 -2.3706 -1.9033
   7923SM   H9T10455   0.984   0.298   6.467 -0.4974  1.2456 -1.4495
   7923SM  C10S10456   1.063   0.300   6.274 -0.2869 -0.2899 -0.0179
   7923SM  H10S10457   1.078   0.218   6.201  0.2430 -0.1988 -0.0145
   7923SM  H10T10458   1.155   0.360   6.285 -0.6268  0.1935  0.2336
   7923SM  C11S10459   0.944   0.387   6.235  0.0082 -0.2520  0.1742
   7923SM  H11S10460   0.930   0.456   6.321 -0.5816  0.0844 -0.1784
   7923SM  H11T10461   0.857   0.319   6.219  1.7577 -1.9531 -2.9134
   7923SM  C12S10462   0.979   0.472   6.117 -0.0501 -0.1084 -0.1567
   7923SM  H12S10463   1.006   0.408   6.031 -3.7063 -1.9954 -0.0864
   7923SM  H12T10464   1.055   0.552   6.130 -1.2056  0.7388  1.8123
   7923SM  C13S10465   0.849   0.542   6.073 -0.3026  0.1904  0.1784
   7923SM  H13S10466   0.801   0.587   6.163 -0.6207  1.2686 -0.5045
   7923SM  H13T10467   0.780   0.459   6.047  1.5036 -0.6395 -2.3397
   7923SM  C14S10468   0.866   0.656   5.968  0.0640  0.2059  0.3627
   7923SM  H14S10469   0.947   0.728   5.994 -2.2628  2.7160  1.1857
   7923SM  H14T10470   0.772   0.714   5.984 -0.0155 -0.4401  2.4679
   7923SM  C15S10471   0.891   0.611   5.824 -0.2251  0.1841  0.2470
   7923SM  H15S10472   0.801   0.554   5.792  1.0115 -0.6848 -1.9508
   7923SM  H15T10473   0.972   0.537   5.808  0.0772  1.0580 -2.8167
   7923SM  C16S10474   0.907   0.723   5.723  0.4276  0.1186  0.5960
   7923SM  H16S10475   0.987   0.792   5.759  1.1602 -0.2710 -0.2503
   7923SM  H16T10476   0.827   0.790   5.763  1.9385  1.9868  0.6472
   7923SM  C17S10477   0.902   0.701   5.575 -0.3057 -0.2688  0.3399
   7923SM  H17S10478   0.796   0.683   5.545 -0.5558 -1.2785  1.6949
   7923SM  H17T10479   0.970   0.618   5.547  1.3466  1.4104 -0.8344
   7923SM  C18S10480   0.954   0.817   5.500 -0.3905 -0.4936  0.1460
   7923SM  H18S10481   1.059   0.831   5.533 -0.3124  0.2939 -0.4152
   7923SM  H18T10482   0.890   0.905   5.520 -1.3306 -0.8127 -1.2672
   7923SM  H18U10483   0.963   0.788   5.393  1.4416  4.2836 -1.2249
   7923SM   C1F10484   0.494  -0.056   6.520  0.1390 -0.7775  0.2978
   7923SM    OF10485   0.478   0.015   6.619  0.9247 -0.1116 -0.3204
   7923SM   C2F10486   0.401  -0.052   6.399  0.0448  0.3663  0.2962
   7923SM   H2F10487   0.388  -0.158   6.370  1.8659  0.4891 -1.1149
   7923SM   H2G10488   0.458  -0.006   6.316  0.3300  0.5910  0.6159
   7923SM   C3F10489   0.267   0.034   6.423 -0.4732  1.0621 -0.2476
   7923SM   H3F10490   0.297   0.141   6.413  2.7284  0.0610 -3.4212
   7923SM   H3G10491   0.231   0.009   6.525  0.2180  0.6581 -0.0997
   7923SM   C4F10492   0.166  -0.012   6.317 -0.2922 -0.0399  0.0357
   7923SM   H4F10493   0.062   0.011   6.348 -0.1187  0.4636  0.2540
   7923SM   H4G10494   0.175  -0.123   6.313 -1.6893 -0.2190  0.8512
   7923SM   C5F10495   0.199   0.058   6.184  0.0852  0.3433  0.8247
   7923SM   H5F10496   0.306   0.052   6.156  0.9469  0.7984  3.7472
   7923SM   H5G10497   0.185   0.166   6.205  0.7944  0.6024  0.0254
   7923SM   C6F10498   0.115   0.017   6.061  0.3709  0.6091  0.2506
   7923SM   H6F10499   0.119   0.099   5.986 -0.4319  1.2286  0.8585
   7923SM   H6G10500   0.008   0.009   6.090 -0.2693 -1.7848 -2.3702
   7923SM   C7F10501   0.163  -0.097   5.969 -0.1609 -0.3586 -0.2406
   7923SM   H7F10502   0.186  -0.182   6.037  1.0879 -0.7197 -1.0724
   7923SM   H7G10503   0.256  -0.065   5.917  0.1520 -0.3850  0.2972
   7923SM   C8F10504   0.060  -0.148   5.861 -0.2167 -0.3918 -0.1312
   7923SM   H8F10505   0.005  -0.056   5.831  0.4017 -0.1513 -0.5393
   7923SM   H8G10506  -0.013  -0.208   5.919 -0.5372  0.4809  0.3900
   7923SM   C9F10507   0.115  -0.240   5.757  0.7406 -0.2098  0.1616
   7923SM   H9F10508   0.166  -0.328   5.801 -0.6155 -1.6801 -1.0646
   7923SM   H9G10509   0.177  -0.184   5.684 -1.2647  0.5192 -1.0647
   7923SM  C10F10510  -0.001  -0.299   5.669 -0.1099  0.0464 -0.1875
   7923SM  H10F10511  -0.045  -0.219   5.605 -0.2821  0.8035  0.8604
   7923SM  H10G10512  -0.086  -0.336   5.730 -1.0067  0.3213 -1.2217
   7923SM  C11F10513   0.034  -0.428   5.589 -0.7650  0.0335  0.0068
   7923SM  H11F10514   0.047  -0.520   5.650 -0.9146  0.0939  0.1290
   7923SM  H11G10515   0.137  -0.407   5.553 -0.5749 -2.6235 -1.1863
   7923SM  C12F10516  -0.061  -0.469   5.474 -0.2475  0.2423 -0.7488
   7923SM  H12F10517  -0.075  -0.384   5.404 -1.3981  0.8278  0.1654
   7923SM  H12G10518  -0.163  -0.492   5.510 -0.7799  2.1923 -0.8797
   7923SM  C13F10519   0.006  -0.582   5.391 -0.1418 -0.1550  0.5863
   7923SM  H13F10520   0.029  -0.664   5.462  1.0095 -0.9748 -0.6866
   7923SM  H13G10521   0.106  -0.542   5.367 -0.4684  0.2921 -0.0826
   7923SM  C14F10522  -0.076  -0.610   5.267  0.0189 -0.0969  0.4183
   7923SM  H14F10523  -0.111  -0.517   5.217  1.8025  0.0672 -0.6260
   7923SM  H14G10524  -0.166  -0.660   5.308  0.8156 -0.7089  1.4653
   7923SM  C15F10525  -0.023  -0.698   5.155 -0.3094  0.1894 -0.0849
   7923SM  H15F10526  -0.100  -0.721   5.078  2.3492  0.0147 -2.8712
   7923SM  H15G10527   0.018  -0.799   5.179 -0.8699  0.1874  0.9206
   7923SM  C16F10528   0.093  -0.619   5.078  0.0451  0.3897  0.3099
   7923SM  H16F10529   0.173  -0.596   5.153 -0.5008 -3.9513  2.5426
   7923SM  H16G10530   0.048  -0.524   5.043 -1.8784 -0.2375  0.9450
   7923SM  C17F10531   0.142  -0.711   4.959 -0.3199 -0.2627 -0.2564
   7923SM  H17F10532   0.067  -0.789   4.933 -0.9066  0.6357 -1.3831
   7923SM  H17G10533   0.235  -0.752   5.002 -0.3512 -1.9774 -1.7158
   7923SM  C18F10534   0.171  -0.625   4.833 -0.2163 -0.3414  0.3762
   7923SM  H18F10535   0.243  -0.543   4.856  1.6499  0.0021 -5.1017
   7923SM  H18G10536   0.080  -0.573   4.798  0.5425  0.5227 -0.3723
   7923SM  C19F10537   0.236  -0.699   4.714 -0.8141  0.6170  0.3738
   7923SM  H19F10538   0.158  -0.760   4.663 -0.1697 -0.4121  0.5859
   7923SM  H19G10539   0.317  -0.766   4.748  0.2944  0.6962 -1.9157
   7923SM  C20F10540   0.310  -0.611   4.610 -0.5376 -0.3673 -0.4310
   7923SM  H20F10541   0.394  -0.557   4.659 -1.7662 -2.1801  4.2307
   7923SM  H20G10542   0.225  -0.547   4.579 -0.5807  0.1329  0.6627
   7923SM  C21F10543   0.379  -0.676   4.487  0.5541  0.1724  0.2210
   7923SM  H21F10544   0.312  -0.738   4.425 -0.6404  1.9494 -0.3558
   7923SM  H21G10545   0.457  -0.743   4.530  0.9861 -1.9115 -3.4660
   7923SM  C22F10546   0.431  -0.577   4.382  0.4129  0.6975 -0.9282
   7923SM  H22F10547   0.515  -0.526   4.433  1.5904 -2.9620  1.1883
   7923SM  H22G10548   0.359  -0.499   4.349  0.2824  0.9064 -0.1787
   7923SM  C23F10549   0.473  -0.652   4.258 -0.0219 -0.3023 -0.0378
   7923SM  H23F10550   0.514  -0.748   4.297 -0.5157 -0.1358  0.9239
   7923SM  H23G10551   0.542  -0.590   4.197  1.2063 -0.2956  1.3041
   7923SM  H23H10552   0.383  -0.674   4.197  0.1282  2.8730 -1.6119
   8023SM     N10553   2.084   0.349   7.369 -0.2829  0.5260  0.3913
   8023SM   C1510554   2.214   0.343   7.292 -0.2914  0.2813 -0.0020
   8023SM  H15A10555   2.199   0.298   7.195  1.5339  1.2952 -0.7880
   8023SM  H15B10556   2.293   0.284   7.336  0.1232  1.2446  0.5899
   8023SM  H15C10557   2.251   0.440   7.263  3.4155 -0.5819  1.2376
   8023SM   C1410558   2.049   0.218   7.419 -0.1200  1.0633  0.4579
   8023SM  H14A10559   1.950   0.200   7.459 -0.2568  0.0946 -0.2940
   8023SM  H14B10560   2.123   0.183   7.489 -1.8903 -2.2818  0.8605
   8023SM  H14C10561   2.056   0.150   7.336  2.4544  0.4115  1.1214
   8023SM   C1310562   2.109   0.436   7.496 -0.5608  0.2326  0.6113
   8023SM  H13A10563   2.195   0.398   7.548 -0.0350  1.4548  0.6805
   8023SM  H13B10564   2.032   0.423   7.571 -1.4520 -1.7823 -0.5788
   8023SM  H13C10565   2.121   0.542   7.479 -1.1495  0.0651 -1.0587
   8023SM   C1210566   1.970   0.406   7.291  0.2116  0.6690 -0.7111
   8023SM  H12A10567   1.984   0.513   7.295  1.4839  0.4719  1.4608
   8023SM  H12B10568   1.876   0.384   7.341 -1.4422  1.8335 -3.0990
   8023SM   C1110569   1.948   0.353   7.154  0.7852  0.3978  0.4152
   8023SM  H11A10570   2.041   0.375   7.098 -0.1955 -1.0318 -1.9220
   8023SM  H11B10571   1.865   0.412   7.110 -1.0404 -1.7018  0.8864
   8023SM     P10572   1.980   0.099   7.072 -0.3242 -0.2755 -0.1499
   8023SM   O1310573   2.110   0.065   7.129 -0.9030  0.5395 -0.4310
   8023SM   O1410574   1.881  -0.007   7.058 -0.3454  0.1522  0.0005
   8023SM   O1110575   2.012   0.162   6.930 -0.0088 -1.0801 -0.4050
   8023SM   O1210576   1.913   0.217   7.149  0.1423  0.2871  0.3321
   8023SM   C1S10577   1.910   0.249   6.864  0.1815  0.3805  0.3469
   8023SM   H1S10578   1.895   0.353   6.902  0.0313 -0.0602  1.5343
   8023SM   H1T10579   1.806   0.215   6.882  0.5620 -1.2597 -0.4046
   8023SM    NF10580   1.816   0.326   6.658 -0.3409 -0.0021 -0.4233
   8023SM   HNF10581   1.722   0.294   6.655 -0.0925 -1.1950  1.8015
   8023SM   C2S10582   1.919   0.244   6.715 -0.2536 -0.6442 -1.0231
   8023SM   H2S10583   2.015   0.291   6.683  0.3962  1.2438  3.0208
   8023SM   C3S10584   1.935   0.091   6.674 -0.1697 -0.8386  0.1542
   8023SM   H3S10585   1.856   0.031   6.724 -1.7306 -0.0033 -1.2244
   8023SM    O310586   2.060   0.041   6.720 -0.2314 -0.0352 -0.2327
   8023SM   HO310587   2.069   0.084   6.806 -0.6731 -0.8498  0.2379
   8023SM   C4S10588   1.934   0.093   6.522  0.1871  0.1677  0.8304
   8023SM   H4S10589   1.849   0.050   6.466  1.1831  1.0443 -1.4853
   8023SM   C5S10590   2.035   0.138   6.450  0.3521  0.0814  0.9252
   8023SM   H5S10591   2.120   0.181   6.505 -0.5952  2.6533  0.4682
   8023SM   C6S10592   2.039   0.127   6.297 -0.1750  0.3366 -0.4657
   8023SM   H6S10593   1.952   0.076   6.248  0.9244 -0.7348 -1.3762
   8023SM   H6T10594   2.129   0.062   6.288 -0.0549  0.0488  2.1713
   8023SM   C7S10595   2.070   0.251   6.217  0.3163 -0.5935 -0.0873
   8023SM   H7S10596   2.151   0.311   6.264  0.7309 -0.7133 -0.6317
   8023SM   H7T10597   1.979   0.315   6.206  2.2511  2.0776 -1.8711
   8023SM   C8S10598   2.121   0.208   6.076 -0.9165 -0.1245  0.2229
   8023SM   H8S10599   2.057   0.118   6.057  1.6599 -1.9676 -0.2099
   8023SM   H8T10600   2.228   0.179   6.079 -0.9787 -0.4940 -0.7135
   8023SM   C9S10601   2.107   0.320   5.979 -0.5068  0.8975 -0.1351
   8023SM   H9S10602   2.173   0.399   6.022 -1.0924  1.4539 -0.2338
   8023SM   H9T10603   2.003   0.356   5.964 -1.1736 -0.5585  0.8552
   8023SM  C10S10604   2.177   0.282   5.839  0.6740 -0.5848 -0.2233
   8023SM  H10S10605   2.118   0.204   5.786  0.6284 -1.3122  0.8861
   8023SM  H10T10606   2.279   0.244   5.860  1.3695 -0.3001 -2.7225
   8023SM  C11S10607   2.201   0.398   5.741  0.2548  0.2755 -0.1541
   8023SM  H11S10608   2.207   0.485   5.810 -0.5128 -1.0781  1.7279
   8023SM  H11T10609   2.104   0.404   5.687 -0.8402 -0.2128  1.6541
   8023SM  C12S10610   2.324   0.375   5.647  0.1631  0.9119 -0.1839
   8023SM  H12S10611   2.312   0.271   5.608 -0.3923  0.5621  0.8902
   8023SM  H12T10612   2.416   0.364   5.708  0.3838  0.4201 -0.6014
   8023SM  C13S10613   2.333   0.480   5.537 -0.2492 -0.5082 -0.5333
   8023SM  H13S10614   2.369   0.577   5.577 -0.0657 -1.0044  0.5460
   8023SM  H13T10615   2.230   0.512   5.510 -0.6204 -0.4355  0.8646
   8023SM  C14S10616   2.425   0.435   5.425  0.2334 -0.1774  1.0959
   8023SM  H14S10617   2.378   0.343   5.386 -0.5104  0.9296 -0.7870
   8023SM  H14T10618   2.520   0.392   5.463 -0.8102 -0.2118  3.9092
   8023SM  C15S10619   2.434   0.541   5.314 -0.0976  0.0267  1.0534
   8023SM  H15S10620   2.420   0.643   5.354  0.7040 -0.1553  1.8173
   8023SM  H15T10621   2.346   0.528   5.247  0.5632 -0.2597  0.2195
   8023SM  C16S10622   2.563   0.532   5.233 -0.1921 -0.5086  0.0014
   8023SM  H16S10623   2.582   0.423   5.221  0.4907 -0.3538 -0.3639
   8023SM  H16T10624   2.647   0.575   5.292 -1.1124 -0.3668  1.2440
   8023SM  C17S10625   2.555   0.618   5.109 -0.4706  0.2444 -0.0385
   8023SM  H17S10626   2.510   0.718   5.125  0.1737  0.5127  0.0997
   8023SM  H17T10627   2.497   0.554   5.039  0.2292  0.0272 -0.4285
   8023SM  C18S10628   2.693   0.624   5.040  0.4514 -0.1959  0.2976
   8023SM  H18S10629   2.703   0.698   4.957  0.1599  0.6089  0.9564
   8023SM  H18T10630   2.736   0.528   5.007  1.3247 -0.1713  1.3155
   8023SM  H18U10631   2.765   0.666   5.113  0.1845  2.0285 -0.6274
   8023SM   C1F10632   1.821   0.458   6.655  0.1611  0.0920 -0.7847
   8023SM    OF10633   1.918   0.513   6.708  0.4630  0.0397  0.3818
   8023SM   C2F10634   1.704   0.534   6.604 -0.4571 -0.6656  0.3836
   8023SM   H2F10635   1.656   0.577   6.695  2.7378  0.3645  1.7416
   8023SM   H2G10636   1.633   0.460   6.563 -1.2127  0.6468 -0.7462
   8023SM   C3F10637   1.736   0.632   6.493  0.2026 -0.3292  0.1377
   8023SM   H3F10638   1.819   0.696   6.529  1.0499 -2.2370  1.7742
   8023SM   H3G10639   1.641   0.689   6.485  0.2099 -0.1397  1.1862
   8023SM   C4F10640   1.767   0.567   6.360  0.2548 -0.4654 -0.6752
   8023SM   H4F10641   1.693   0.495   6.320 -0.9385  0.8564 -0.9308
   8023SM   H4G10642   1.865   0.516   6.371  1.5258  2.1272  1.4510
   8023SM   C5F10643   1.780   0.663   6.247 -0.2628 -0.0127 -0.0914
   8023SM   H5F10644   1.850   0.741   6.286 -0.3033 -0.8523  1.7932
   8023SM   H5G10645   1.693   0.727   6.221  0.1151  1.3563  1.7548
   8023SM   C6F10646   1.845   0.604   6.123  0.2421  0.0991  0.7280
   8023SM   H6F10647   1.799   0.506   6.096  0.8470  0.2107 -0.8331
   8023SM   H6G10648   1.953   0.588   6.143  1.0246  2.9724 -0.6554
   8023SM   C7F10649   1.844   0.704   6.002  0.1807  0.0640 -0.1135
   8023SM   H7F10650   1.895   0.800   6.026  1.6427 -0.1212 -2.1837
   8023SM   H7G10651   1.739   0.724   5.972  0.5129 -1.7682 -2.8148
   8023SM   C8F10652   1.920   0.657   5.873  0.5414  0.2877  0.0246
   8023SM   H8F10653   1.877   0.563   5.834  0.0310 -0.6475  2.6922
   8023SM   H8G10654   2.029   0.654   5.896  0.6439 -1.0469 -0.5790
   8023SM   C9F10655   1.917   0.759   5.763  0.6997  0.0716 -0.5536
   8023SM   H9F10656   1.965   0.852   5.800  0.6961  0.3961 -1.3396
   8023SM   H9G10657   1.814   0.795   5.744  0.3811 -0.0128  0.9028
   8023SM  C10F10658   1.992   0.714   5.637 -0.1147 -0.1549 -0.2318
   8023SM  H10F10659   1.946   0.617   5.608  0.0330 -0.2018 -0.3111
   8023SM  H10G10660   2.095   0.701   5.674  0.7925 -1.6420 -2.9492
   8023SM  C11F10661   1.989   0.810   5.517  0.4346 -0.3354  0.0996
   8023SM  H11F10662   2.015   0.911   5.556 -0.0536  1.0848 -2.9001
   8023SM  H11G10663   1.885   0.817   5.478  0.9634  0.4537 -1.2448
   8023SM  C12F10664   2.079   0.773   5.397  0.6018 -0.1153  0.3564
   8023SM  H12F10665   2.102   0.665   5.402 -0.6224 -0.3503  4.2248
   8023SM  H12G10666   2.180   0.819   5.410  1.3228 -1.7695  0.9068
   8023SM  C13F10667   2.019   0.807   5.264  0.0769  0.0545  0.1624
   8023SM  H13F10668   1.974   0.909   5.260 -1.7962 -0.7489 -0.1580
   8023SM  H13G10669   1.944   0.735   5.228  2.2658 -1.4494 -1.6875
   8023SM  C14F10670   2.140   0.800   5.168 -0.6703 -0.4434 -0.8074
   8023SM  H14F10671   2.183   0.697   5.178  0.9741  0.3056  0.2878
   8023SM  H14G10672   2.213   0.876   5.200 -0.7840 -0.7405  0.1913
   8023SM  C15F10673   2.102   0.828   5.023 -0.6162 -0.3553 -0.0025
   8023SM  H15F10674   2.060   0.931   5.034 -0.8489 -0.3832 -0.5700
   8023SM  H15G10675   2.017   0.762   4.999 -0.1456 -1.7389  1.9754
   8023SM  C16F10676   2.220   0.819   4.922  0.0790  0.0853 -0.4351
   8023SM  H16F10677   2.311   0.850   4.977 -0.1137  0.8324 -0.5264
   8023SM  H16G10678   2.206   0.888   4.837 -2.2872 -0.4349 -0.5574
   8023SM  C17F10679   2.254   0.675   4.877 -0.3993 -0.6903  0.4938
   8023SM  H17F10680   2.169   0.627   4.824  0.1956 -2.3522  0.9940
   8023SM  H17G10681   2.277   0.614   4.967  0.9520 -1.8135 -0.5715
   8023SM  C18F10682   2.382   0.684   4.781 -0.4043 -0.2872  0.0531
   8023SM  H18F10683   2.412   0.577   4.774 -1.1762 -0.8856  3.8264
   8023SM  H18G10684   2.461   0.738   4.836  0.7354 -1.1136 -0.7383
   8023SM  C19F10685   2.354   0.751   4.655  0.8488  0.5414  0.1096
   8023SM  H19F10686   2.342   0.860   4.676  2.4732  0.8760 -0.5479
   8023SM  H19G10687   2.259   0.715   4.612 -0.1625  3.5940 -0.4438
   8023SM  C20F10688   2.476   0.750   4.562 -0.0292  0.8082  0.2282
   8023SM  H20F10689   2.561   0.810   4.598 -0.0385  0.3633  1.0004
   8023SM  H20G10690   2.444   0.798   4.467  2.3228  1.0817 -0.4745
   8023SM  C21F10691   2.513   0.611   4.521 -0.0115 -0.1035  0.5570
   8023SM  H21F10692   2.422   0.548   4.511 -0.2126  0.2333  0.2028
   8023SM  H21G10693   2.581   0.569   4.598 -0.6312  0.2118  1.2925
   8023SM  C22F10694   2.594   0.605   4.391  0.4924  0.3142  0.9457
   8023SM  H22F10695   2.556   0.672   4.310  4.4989  0.5826 -0.9280
   8023SM  H22G10696   2.589   0.503   4.348  0.5046 -0.1634  2.0610
   8023SM  C23F10697   2.743   0.636   4.420  0.4556 -0.4541 -0.3328
   8023SM  H23F10698   2.754   0.726   4.484 -0.5928  0.5756 -1.5426
   8023SM  H23G10699   2.793   0.658   4.323  1.1184 -0.7141 -0.0581
   8023SM  H23H10700   2.792   0.542   4.452  0.1502 -0.4011  0.2973
   8123SM     N10701   3.353   2.246   3.231 -0.4236  0.1870 -0.0910
   8123SM   C1510702   3.263   2.303   3.119 -0.6650  0.3447 -0.7804
   8123SM  H15A10703   3.275   2.244   3.029 -0.7323  0.6988 -1.0269
   8123SM  H15B10704   3.300   2.401   3.092 -0.8838  0.3188 -1.1846
   8123SM  H15C10705   3.159   2.302   3.147 -0.0456 -2.7805  2.0780
   8123SM   C1410706   3.298   2.106   3.248  0.7341 -0.3252 -0.9703
   8123SM  H14A10707   3.343   2.049   3.328  1.3278  0.4719 -0.7214
   8123SM  H14B10708   3.304   2.053   3.154 -0.4395 -1.9117 -0.2142
   8123SM  H14C10709   3.195   2.109   3.278  1.3435  1.4186  1.1734
   8123SM   C1310710   3.493   2.229   3.177  0.1705 -1.1597  0.5008
   8123SM  H13A10711   3.497   2.197   3.075  2.4073  1.0889 -0.2276
   8123SM  H13B10712   3.545   2.151   3.230  2.0397 -0.1296  0.2825
   8123SM  H13C10713   3.551   2.320   3.173  1.0582 -1.7649 -0.9940
   8123SM   C1210714   3.351   2.322   3.358  0.1278  0.0808 -0.1676
   8123SM  H12A10715   3.403   2.413   3.333 -0.2561  0.7128  1.2337
   8123SM  H12B10716   3.405   2.276   3.439  1.4563  1.0458 -0.4703
   8123SM   C1110717   3.218   2.366   3.431 -0.4376 -0.2229 -0.8431
   8123SM  H11A10718   3.240   2.387   3.538  0.7116 -3.0991 -0.4123
   8123SM  H11B10719   3.148   2.281   3.443  1.0801 -1.2018  1.9542
   8123SM     P10720   3.233   2.620   3.372  0.1832 -0.1023 -0.2771
   8123SM   O1310721   3.378   2.620   3.346  0.0281  0.1151 -0.2011
   8123SM   O1410722   3.145   2.716   3.292  0.3475  0.4134 -0.0086
   8123SM   O1110723   3.208   2.660   3.530 -0.2287  0.8704  0.4981
   8123SM   O1210724   3.168   2.477   3.365 -0.3198  0.0806  0.1492
   8123SM   C1S10725   3.088   2.645   3.601  0.4322 -0.0404 -0.5336
   8123SM   H1S10726   3.080   2.548   3.654 -3.1335  0.5850  0.3312
   8123SM   H1T10727   2.998   2.650   3.536  1.5266 -0.4939 -2.1394
   8123SM    NF10728   2.982   2.717   3.821  0.0226 -0.0662 -0.4723
   8123SM   HNF10729   2.894   2.765   3.819  0.2740  0.3783 -1.2652
   8123SM   C2S10730   3.076   2.759   3.709  0.2399  0.3755  0.3326
   8123SM   H2S10731   3.178   2.775   3.749  0.0665  2.5231  0.0493
   8123SM   C3S10732   3.025   2.891   3.646  0.2473  0.3426  0.3133
   8123SM   H3S10733   2.918   2.877   3.618  0.7088  0.8157 -1.7968
   8123SM    O310734   3.081   2.922   3.515 -0.2041 -0.3378  0.0131
   8123SM   HO310735   3.102   2.831   3.492  0.2344 -0.0290 -0.8256
   8123SM   C4S10736   3.033   3.009   3.743 -0.6150  0.1286 -0.3152
   8123SM   H4S10737   2.946   3.033   3.805  1.3824 -0.5616  2.9816
   8123SM   C5S10738   3.120   3.107   3.765 -0.3936 -0.0491 -0.4888
   8123SM   H5S10739   3.214   3.104   3.707 -0.4110  2.3507 -0.7354
   8123SM   C6S10740   3.103   3.208   3.881 -0.1002 -0.3230 -0.5273
   8123SM   H6S10741   3.000   3.217   3.922  0.7215  0.4103  1.4995
   8123SM   H6T10742   3.121   3.308   3.838 -3.7676  0.6063 -0.2459
   8123SM   C7S10743   3.186   3.164   3.998 -0.0146 -0.6822 -0.2031
   8123SM   H7S10744   3.181   3.240   4.078  1.4400  2.2456 -2.6850
   8123SM   H7T10745   3.291   3.161   3.959  0.8291 -1.1363  1.9627
   8123SM   C8S10746   3.162   3.021   4.058  0.1301 -0.3851 -0.0068
   8123SM   H8S10747   3.187   2.950   3.976 -2.0567 -1.0057 -0.1959
   8123SM   H8T10748   3.054   3.005   4.079  0.2579 -0.4306  0.6648
   8123SM   C9S10749   3.259   2.981   4.178 -0.0564  0.1582 -0.1472
   8123SM   H9S10750   3.360   3.018   4.149  0.0705 -0.0885 -0.0203
   8123SM   H9T10751   3.264   2.870   4.177 -0.9204  0.1100 -1.3454
   8123SM  C10S10752   3.213   3.029   4.312 -0.0362  0.4299  0.1359
   8123SM  H10S10753   3.149   2.952   4.361 -1.0234  0.8562 -0.4741
   8123SM  H10T10754   3.147   3.118   4.316  0.0252  0.4372  1.5096
   8123SM  C11S10755   3.344   3.056   4.392 -0.6222  0.0081  0.1555
   8123SM  H11S10756   3.397   3.142   4.347  0.0679  0.7641  2.2891
   8123SM  H11T10757   3.409   2.966   4.397 -2.1753 -1.1607  0.1778
   8123SM  C12S10758   3.324   3.101   4.537  0.1491 -0.3112  0.4316
   8123SM  H12S10759   3.253   3.185   4.545 -2.3279 -2.4635  3.4471
   8123SM  H12T10760   3.423   3.135   4.574  0.1413  0.3076 -0.0999
   8123SM  C13S10761   3.273   2.991   4.625 -0.5579 -0.4373 -0.1250
   8123SM  H13S10762   3.342   2.908   4.597 -0.1590  0.4513 -1.9288
   8123SM  H13T10763   3.170   2.955   4.605 -0.7429  0.6137 -1.1480
   8123SM  C14S10764   3.288   3.022   4.775  0.4230  0.4073  0.1352
   8123SM  H14S10765   3.247   2.938   4.836  3.1442 -1.2892 -0.2189
   8123SM  H14T10766   3.225   3.111   4.794  3.3502  2.1537  2.5183
   8123SM  C15S10767   3.432   3.053   4.824 -0.3843  0.6244 -0.5574
   8123SM  H15S10768   3.474   3.149   4.786  0.4577  0.3677 -0.2931
   8123SM  H15T10769   3.504   2.977   4.790  0.1550  0.3703  1.0613
   8123SM  C16S10770   3.442   3.054   4.973  0.0084 -0.6778 -0.5069
   8123SM  H16S10771   3.401   2.959   5.012 -1.3748 -0.1305 -0.5665
   8123SM  H16T10772   3.384   3.145   4.999  0.0021 -1.1614  1.3095
   8123SM  C17S10773   3.589   3.054   5.009  0.4184 -0.3699  0.2039
   8123SM  H17S10774   3.642   3.136   4.957 -0.2199 -0.3027 -0.3469
   8123SM  H17T10775   3.629   2.956   4.975  0.5793 -1.1346  2.4226
   8123SM  C18S10776   3.607   3.055   5.156  1.0803  0.4738 -0.3200
   8123SM  H18S10777   3.712   3.079   5.184  0.2534  1.1465  2.5231
   8123SM  H18T10778   3.581   2.961   5.209  0.0055  0.7318 -0.3573
   8123SM  H18U10779   3.544   3.132   5.207 -0.8977 -1.8164  0.8978
   8123SM   C1F10780   3.020   2.638   3.917  0.7088  1.0517 -0.3381
   8123SM    OF10781   3.135   2.590   3.921 -0.0385  0.0503  0.1748
   8123SM   C2F10782   2.921   2.600   4.024  0.2530 -0.4832 -0.0475
   8123SM   H2F10783   2.851   2.528   3.976 -0.8800  1.7814 -2.0369
   8123SM   H2G10784   2.864   2.691   4.052 -1.2343 -0.4505 -2.8106
   8123SM   C3F10785   2.991   2.532   4.143  0.6813  0.6260  0.1214
   8123SM   H3F10786   3.048   2.446   4.101  0.8757  1.0697 -0.5452
   8123SM   H3G10787   2.912   2.496   4.211  0.4325 -0.5102 -0.7421
   8123SM   C4F10788   3.074   2.619   4.237  0.8470 -0.3445  0.1634
   8123SM   H4F10789   3.156   2.658   4.173  0.4484 -0.9731 -0.7621
   8123SM   H4G10790   3.112   2.559   4.323 -0.6652 -0.5691  0.7001
   8123SM   C5F10791   2.993   2.734   4.295 -0.7682  0.0777 -0.6993
   8123SM   H5F10792   2.991   2.811   4.215  2.8222 -0.4995 -1.5038
   8123SM   H5G10793   3.063   2.766   4.374 -0.6867 -0.7685 -0.4184
   8123SM   C6F10794   2.871   2.696   4.371 -0.3128  0.0802  0.2402
   8123SM   H6F10795   2.789   2.667   4.302  0.0638  0.3494 -0.3269
   8123SM   H6G10796   2.825   2.789   4.410  1.9691  2.1079 -1.5744
   8123SM   C7F10797   2.883   2.595   4.490  0.0296  0.5735  0.2786
   8123SM   H7F10798   2.939   2.507   4.453 -0.3894  0.4870 -0.1733
   8123SM   H7G10799   2.778   2.566   4.511  0.2554  0.1630  0.8568
   8123SM   C8F10800   2.951   2.654   4.615  0.0536  0.0856  0.2568
   8123SM   H8F10801   3.042   2.705   4.576  0.9395 -1.0554  0.7958
   8123SM   H8G10802   2.985   2.566   4.673  0.2785 -0.6573 -0.9926
   8123SM   C9F10803   2.859   2.743   4.702 -0.0281  0.3226 -0.5431
   8123SM   H9F10804   2.785   2.680   4.755 -1.5451  2.1361 -0.4048
   8123SM   H9G10805   2.798   2.802   4.631 -1.8089 -0.2814  0.4177
   8123SM  C10F10806   2.927   2.837   4.795 -0.2857  0.2692 -0.5314
   8123SM  H10F10807   3.011   2.876   4.733  1.9900 -0.9459  1.5859
   8123SM  H10G10808   2.979   2.773   4.870  0.4069 -2.0875 -2.8506
   8123SM  C11F10809   2.849   2.959   4.840 -0.1852 -0.5985 -0.0186
   8123SM  H11F10810   2.752   2.955   4.785  0.2666 -0.0297 -0.8778
   8123SM  H11G10811   2.897   3.047   4.792 -0.0291 -1.7750 -2.1233
   8123SM  C12F10812   2.832   2.981   4.987  0.5419 -0.5662  0.9897
   8123SM  H12F10813   2.931   3.004   5.032  0.6563  1.4292 -0.2039
   8123SM  H12G10814   2.801   2.883   5.030  0.2733 -0.5229  0.8951
   8123SM  C13F10815   2.753   3.102   5.024  0.3510 -1.3430 -0.4789
   8123SM  H13F10816   2.647   3.086   4.993 -0.2246 -1.2632  1.3458
   8123SM  H13G10817   2.783   3.187   4.959 -0.2724 -1.2848 -0.7010
   8123SM  C14F10818   2.766   3.135   5.177 -0.1469  0.2905  0.8968
   8123SM  H14F10819   2.871   3.163   5.201  0.4397 -0.7049 -0.3828
   8123SM  H14G10820   2.732   3.052   5.243 -1.3389  0.7958  0.9426
   8123SM  C15F10821   2.690   3.265   5.210  0.1571 -0.2241 -0.1324
   8123SM  H15F10822   2.582   3.250   5.187  0.2996 -0.5322 -0.6101
   8123SM  H15G10823   2.722   3.339   5.134 -1.2988  0.0983 -0.4647
   8123SM  C16F10824   2.707   3.320   5.350  1.0930  0.5433  0.1843
   8123SM  H16F10825   2.811   3.355   5.364  2.1403 -1.8597 -0.9257
   8123SM  H16G10826   2.688   3.238   5.424 -0.5778 -0.5355 -1.3261
   8123SM  C17F10827   2.610   3.434   5.378  0.1768  0.4390 -0.7394
   8123SM  H17F10828   2.511   3.390   5.355  0.8288 -0.0658 -2.8172
   8123SM  H17G10829   2.631   3.521   5.312  1.3600  1.1637  0.5406
   8123SM  C18F10830   2.617   3.482   5.521 -0.3309  0.7582 -0.4955
   8123SM  H18F10831   2.573   3.407   5.590  0.9588 -1.2360 -1.7137
   8123SM  H18G10832   2.542   3.561   5.537 -0.8881  0.3381 -0.9777
   8123SM  C19F10833   2.753   3.525   5.577 -0.6975  0.0333 -0.4951
   8123SM  H19F10834   2.796   3.605   5.512 -2.2020  0.2407 -1.2681
   8123SM  H19G10835   2.821   3.437   5.576 -0.6256 -0.0054 -3.4100
   8123SM  C20F10836   2.746   3.555   5.733 -0.4874  0.0741  0.5958
   8123SM  H20F10837   2.853   3.579   5.754 -1.0993  1.4884  2.4680
   8123SM  H20G10838   2.713   3.465   5.789 -0.6177  0.8157  1.7451
   8123SM  C21F10839   2.671   3.678   5.770 -0.3099  0.0148  0.1345
   8123SM  H21F10840   2.566   3.661   5.738  0.2405  0.6530 -2.1575
   8123SM  H21G10841   2.697   3.764   5.705 -1.0449  0.4508  0.4087
   8123SM  C22F10842   2.686   3.705   5.918  0.3312  0.4071 -0.3685
   8123SM  H22F10843   2.788   3.746   5.935 -0.3286  2.0773 -0.2215
   8123SM  H22G10844   2.679   3.612   5.978 -1.6033  1.7759  1.7173
   8123SM  C23F10845   2.580   3.810   5.966 -0.3381 -0.0836 -0.2442
   8123SM  H23F10846   2.482   3.757   5.969  0.1865 -1.0664  0.1688
   8123SM  H23G10847   2.560   3.897   5.901 -2.4513  0.3775  0.9396
   8123SM  H23H10848   2.616   3.853   6.062  0.7206  3.1435 -1.9552
   8223SM     N10849   3.824   3.756   2.607  0.2526  0.5276  0.1009
   8223SM   C1510850   3.941   3.763   2.518 -0.0071 -0.3907  0.8706
   8223SM  H15A10851   4.017   3.811   2.578 -0.1630  1.4757 -0.3558
   8223SM  H15B10852   3.912   3.826   2.436  0.4804  0.1112  1.0830
   8223SM  H15C10853   3.968   3.663   2.488 -1.6046 -0.5542 -0.1590
   8223SM   C1410854   3.796   3.896   2.652  0.0460  0.3587  1.0408
   8223SM  H14A10855   3.764   3.954   2.568 -1.8837 -2.2262 -0.1451
   8223SM  H14B10856   3.882   3.939   2.703 -0.6517  1.0215  1.6801
   8223SM  H14C10857   3.720   3.896   2.729 -0.1033  0.9084  0.8941
   8223SM   C1310858   3.710   3.691   2.538  0.4747  0.5888  0.0065
   8223SM  H13A10859   3.674   3.754   2.458 -0.5133  0.6661  0.4984
   8223SM  H13B10860   3.631   3.683   2.610  0.9670  0.9594  0.5943
   8223SM  H13C10861   3.743   3.596   2.497  1.7646  0.7237  0.6870
   8223SM   C1210862   3.860   3.664   2.723 -0.3500  0.0705  0.0398
   8223SM  H12A10863   3.891   3.568   2.684  0.7471  1.1598 -1.9721
   8223SM  H12B10864   3.780   3.656   2.795  0.5051 -2.6535  0.7748
   8223SM   C1110865   3.981   3.707   2.806 -0.3630 -0.2329 -0.4846
   8223SM  H11A10866   4.072   3.730   2.747  0.4598  0.7237  1.0783
   8223SM  H11B10867   4.018   3.625   2.872  0.4547  0.2622 -0.3058
   8223SM     P10868   3.865   3.809   3.014 -0.0937 -0.5124 -0.0927
   8223SM   O1310869   3.866   3.944   3.079  0.0865  0.5396 -0.3374
   8223SM   O1410870   3.727   3.764   2.981 -0.5535 -0.1854  0.4864
   8223SM   O1110871   3.945   3.701   3.110 -0.0910 -0.5536 -0.5529
   8223SM   O1210872   3.946   3.819   2.883 -0.2797  0.5739 -0.3709
   8223SM   C1S10873   3.972   3.756   3.240 -0.2774 -0.7208 -0.0149
   8223SM   H1S10874   3.875   3.777   3.291  0.4157 -0.4600  1.2192
   8223SM   H1T10875   4.041   3.841   3.228  1.3441 -2.0951 -0.8175
   8223SM    NF10876   4.041   3.703   3.474 -0.4335 -0.6982  0.1780
   8223SM   HNF10877   4.114   3.771   3.489  0.5642 -1.5493 -0.6815
   8223SM   C2S10878   4.038   3.651   3.334  0.2089  0.0897 -0.6000
   8223SM   H2S10879   3.970   3.563   3.332 -2.3348  1.9511 -2.0422
   8223SM   C3S10880   4.177   3.608   3.277  0.6973  0.1674  0.1712
   8223SM   H3S10881   4.239   3.700   3.269 -0.5195  1.2259  2.0738
   8223SM    O310882   4.177   3.565   3.143  0.2067 -0.2602 -0.0094
   8223SM   HO310883   4.088   3.589   3.115  0.2582  0.0182  0.0588
   8223SM   C4S10884   4.235   3.504   3.362 -0.8632 -0.2334 -0.2243
   8223SM   H4S10885   4.168   3.417   3.372 -2.2478  0.8996  1.0546
   8223SM   C5S10886   4.360   3.506   3.418  0.5470  0.4370 -0.4201
   8223SM   H5S10887   4.426   3.592   3.396 -0.1105  1.1127  0.1950
   8223SM   C6S10888   4.416   3.384   3.480 -0.1923 -0.2883 -0.1426
   8223SM   H6S10889   4.511   3.411   3.532  0.2296  2.1897 -2.0086
   8223SM   H6T10890   4.458   3.323   3.398 -1.1307 -0.9235 -0.1588
   8223SM   C7S10891   4.330   3.281   3.560 -0.3966 -0.5266 -0.0861
   8223SM   H7S10892   4.400   3.196   3.575 -0.3241 -0.1182  2.2281
   8223SM   H7T10893   4.234   3.257   3.508 -1.0844  0.7257  0.5614
   8223SM   C8S10894   4.282   3.344   3.692  0.1452 -0.3914  0.0293
   8223SM   H8S10895   4.206   3.422   3.672 -0.1578  0.1515  2.8548
   8223SM   H8T10896   4.371   3.391   3.740  0.1193  1.9562 -2.0015
   8223SM   C9S10897   4.215   3.247   3.791 -0.1958 -0.1853  0.3434
   8223SM   H9S10898   4.280   3.157   3.795 -1.0089 -0.9368 -1.6806
   8223SM   H9T10899   4.112   3.213   3.768  0.6255 -1.7820 -1.2114
   8223SM  C10S10900   4.211   3.303   3.934  0.2972 -0.2588 -0.1142
   8223SM  H10S10901   4.131   3.255   3.993  0.9341  0.2051  1.1503
   8223SM  H10T10902   4.189   3.410   3.915  2.7420  0.6149  1.4834
   8223SM  C11S10903   4.341   3.274   4.006 -0.1479 -0.6075  0.4504
   8223SM  H11S10904   4.425   3.322   3.951 -0.1185 -0.7958  0.3295
   8223SM  H11T10905   4.359   3.166   3.990  1.4169 -0.1168 -1.6902
   8223SM  C12S10906   4.353   3.327   4.149  0.3888  0.8242 -0.0348
   8223SM  H12S10907   4.363   3.436   4.132 -1.2641  1.1352  0.7419
   8223SM  H12T10908   4.447   3.297   4.200  2.1277  4.6568 -0.6538
   8223SM  C13S10909   4.229   3.295   4.242  0.0628 -0.3242 -0.4102
   8223SM  H13S10910   4.234   3.185   4.258 -1.1688 -0.6364 -1.9782
   8223SM  H13T10911   4.131   3.311   4.194 -0.0302  0.4435  0.0123
   8223SM  C14S10912   4.245   3.373   4.369  0.0347  0.3860 -1.1419
   8223SM  H14S10913   4.148   3.372   4.423  0.1757 -1.5112 -0.8485
   8223SM  H14T10914   4.278   3.475   4.340 -2.5224  1.0137 -2.1488
   8223SM  C15S10915   4.354   3.321   4.462  0.4755  0.2826  0.5810
   8223SM  H15S10916   4.456   3.329   4.418  0.6160 -1.2910  0.5628
   8223SM  H15T10917   4.328   3.216   4.490 -0.0882  0.8290  2.2202
   8223SM  C16S10918   4.355   3.395   4.603  0.0082 -0.5547 -0.6019
   8223SM  H16S10919   4.282   3.337   4.664  1.7319 -1.1315  0.9947
   8223SM  H16T10920   4.326   3.502   4.600  2.6699  0.4105  2.7351
   8223SM  C17S10921   4.501   3.389   4.653  0.5946  0.3670 -0.7139
   8223SM  H17S10922   4.566   3.456   4.593  0.3788  1.5568  0.3423
   8223SM  H17T10923   4.529   3.282   4.652 -0.5897  0.0269 -0.1429
   8223SM  C18S10924   4.520   3.425   4.799  0.0391 -0.2297 -0.0087
   8223SM  H18S10925   4.499   3.532   4.816  2.7095  0.1732  1.2584
   8223SM  H18T10926   4.628   3.413   4.818  0.1284  1.3173  0.5862
   8223SM  H18U10927   4.461   3.365   4.872 -0.4356  0.7927  0.4735
   8223SM   C1F10928   3.934   3.701   3.553 -0.4247  0.2306 -0.2263
   8223SM    OF10929   3.830   3.654   3.507  0.1907 -0.2860 -0.1431
   8223SM   C2F10930   3.965   3.750   3.688  0.2363 -0.3822  0.8377
   8223SM   H2F10931   3.893   3.830   3.715  1.0151  0.5939  0.1012
   8223SM   H2G10932   4.064   3.800   3.695 -1.8105  4.6785 -1.6057
   8223SM   C3F10933   3.951   3.639   3.787 -0.2449 -0.5164  0.7545
   8223SM   H3F10934   4.027   3.565   3.753 -1.4350 -1.4899  0.1325
   8223SM   H3G10935   3.855   3.586   3.770 -0.1413 -0.5232  0.1595
   8223SM   C4F10936   3.976   3.698   3.932 -0.3739 -0.4002  0.6665
   8223SM   H4F10937   3.927   3.798   3.936 -1.2057 -0.7385 -0.5652
   8223SM   H4G10938   4.083   3.726   3.941 -0.5274  1.3015 -1.9078
   8223SM   C5F10939   3.928   3.605   4.042 -0.0489 -0.0538 -0.1220
   8223SM   H5F10940   3.979   3.508   4.023  3.9259  2.0233 -1.1749
   8223SM   H5G10941   3.819   3.585   4.038  0.0707 -0.6519 -0.5159
   8223SM   C6F10942   3.969   3.652   4.182  0.2922 -0.0182  0.6206
   8223SM   H6F10943   4.080   3.659   4.189  0.5770 -3.1012  0.8862
   8223SM   H6G10944   3.953   3.568   4.254 -2.2764 -0.3976 -0.3061
   8223SM   C7F10945   3.908   3.790   4.225 -0.6139  0.1044 -0.5835
   8223SM   H7F10946   3.798   3.780   4.235 -0.4155  0.3206  3.2142
   8223SM   H7G10947   3.934   3.874   4.157  0.5822 -1.6137 -2.3471
   8223SM   C8F10948   3.966   3.838   4.361  0.5661 -0.1004  0.1034
   8223SM   H8F10949   4.075   3.820   4.368  0.3594 -1.2206  0.6247
   8223SM   H8G10950   3.912   3.776   4.436 -0.6706  0.8127  0.0164
   8223SM   C9F10951   3.930   3.984   4.392  0.2728  0.2021  0.0513
   8223SM   H9F10952   3.827   3.998   4.432 -1.3354 -1.5667 -3.1102
   8223SM   H9G10953   3.951   4.045   4.302  0.4350  1.4300  0.8822
   8223SM  C10F10954   4.025   4.039   4.500  0.5000 -0.6958  0.0962
   8223SM  H10F10955   4.124   4.055   4.452  0.3660 -0.1267  0.0018
   8223SM  H10G10956   4.047   3.967   4.582 -1.7625 -2.4497 -0.7153
   8223SM  C11F10957   3.994   4.160   4.581  0.2633  0.8005 -0.5664
   8223SM  H11F10958   3.895   4.150   4.631 -0.2302  2.0271 -1.2537
   8223SM  H11G10959   3.980   4.245   4.511  0.0787  2.3139  1.2190
   8223SM  C12F10960   4.098   4.209   4.680  0.1610  0.0545 -0.3190
   8223SM  H12F10961   4.127   4.127   4.749 -1.0023 -0.0940  0.0194
   8223SM  H12G10962   4.044   4.286   4.739 -2.6254  0.5552 -3.2072
   8223SM  C13F10963   4.206   4.281   4.607 -0.2686 -0.4308  0.7907
   8223SM  H13F10964   4.188   4.329   4.508  2.7460  0.6535  0.6634
   8223SM  H13G10965   4.290   4.209   4.596 -1.3744 -1.5316 -0.9652
   8223SM  C14F10966   4.276   4.386   4.689 -0.1019  0.6494  0.0654
   8223SM  H14F10967   4.198   4.465   4.700 -0.9515  0.3993 -3.1017
   8223SM  H14G10968   4.355   4.435   4.628  2.0445 -0.4425  1.8266
   8223SM  C15F10969   4.340   4.335   4.821  0.3956 -0.2326  0.3346
   8223SM  H15F10970   4.442   4.322   4.780  0.1740 -1.6652  0.2034
   8223SM  H15G10971   4.300   4.237   4.855  0.7231 -0.1265  1.0464
   8223SM  C16F10972   4.335   4.440   4.931 -0.0749  0.6716  0.2610
   8223SM  H16F10973   4.230   4.451   4.966 -0.7833 -2.7839 -0.4436
   8223SM  H16G10974   4.366   4.539   4.891 -1.5961  0.4711 -1.5330
   8223SM  C17F10975   4.438   4.402   5.043  0.3302  0.7208  0.3174
   8223SM  H17F10976   4.522   4.350   4.992  1.5692  2.3711  0.5837
   8223SM  H17G10977   4.390   4.334   5.117 -0.3619  0.1848 -0.5969
   8223SM  C18F10978   4.505   4.520   5.116  0.2405 -0.6427 -0.2514
   8223SM  H18F10979   4.419   4.565   5.170  0.4325  0.1711 -0.6079
   8223SM  H18G10980   4.540   4.593   5.040 -0.4919 -0.6152 -0.5729
   8223SM  C19F10981   4.613   4.468   5.213 -1.0045 -0.1030  0.1523
   8223SM  H19F10982   4.682   4.388   5.179 -1.7114 -0.5185 -0.3492
   8223SM  H19G10983   4.554   4.422   5.295 -0.4937  3.9728  3.1520
   8223SM  C20F10984   4.689   4.590   5.271  0.3836 -0.0121  0.2072
   8223SM  H20F10985   4.618   4.655   5.327  2.8786  2.1573  1.0840
   8223SM  H20G10986   4.730   4.652   5.188 -0.4742 -2.3233 -2.0577
   8223SM  C21F10987   4.819   4.558   5.348 -0.4733 -0.7754 -0.1635
   8223SM  H21F10988   4.798   4.506   5.444  0.1432  0.5790  0.7329
   8223SM  H21G10989   4.860   4.658   5.376 -0.6108 -0.2804 -1.6853
   8223SM  C22F10990   4.932   4.490   5.279  0.2716  0.4158 -0.0539
   8223SM  H22F10991   4.957   4.545   5.185  2.8457  1.8535  1.3522
   8223SM  H22G10992   4.899   4.393   5.238  2.1839 -1.0096  1.5612
   8223SM  C23F10993   5.065   4.461   5.364 -0.1651  0.3352  0.3755
   8223SM  H23F10994   5.092   4.557   5.413 -0.4598  0.2544  0.7009
   8223SM  H23G10995   5.148   4.426   5.300 -0.2023 -0.1285  0.5783
   8223SM  H23H10996   5.040   4.390   5.445  2.2724 -0.9529  0.0982
   8323SM     N10997   4.399   3.919   2.792 -0.1750  0.0564 -0.9449
   8323SM   C1510998   4.450   4.064   2.796  0.5748  0.3907  0.0381
   8323SM  H15A10999   4.453   4.088   2.902  1.4143  1.9081 -0.2949
   8323SM  H15B11000   4.394   4.139   2.741 -0.0624 -0.4366 -0.4723
   8323SM  H15C11001   4.554   4.079   2.773  0.4309  1.3657 -0.0310
   8323SM   C1411002   4.380   3.886   2.650  0.4686 -0.8302 -0.3365
   8323SM  H14A11003   4.339   3.789   2.627 -2.3910  0.3696 -0.8099
   8323SM  H14B11004   4.472   3.901   2.595  1.3709 -0.7818  1.1278
   8323SM  H14C11005   4.310   3.956   2.606 -0.4782 -0.3722  1.7860
   8323SM   C1311006   4.502   3.830   2.846 -0.3873  0.2079 -0.7185
   8323SM  H13A11007   4.594   3.830   2.789  0.6253  2.5098  0.7316
   8323SM  H13B11008   4.472   3.727   2.850  2.4055 -0.6675  0.0374
   8323SM  H13C11009   4.525   3.846   2.951 -1.1315 -0.9242 -0.3680
   8323SM   C1211010   4.266   3.911   2.871 -0.3788 -0.4893  0.2160
   8323SM  H12A11011   4.198   3.840   2.827 -2.4584  2.0414 -0.9293
   8323SM  H12B11012   4.218   4.008   2.867  1.0478  0.5082  3.5320
   8323SM   C1111013   4.276   3.868   3.012 -0.2439  0.3107  0.4515
   8323SM  H11A11014   4.315   3.764   3.023  0.8528  0.7390  0.7900
   8323SM  H11B11015   4.173   3.858   3.052  0.3807  0.9132  2.3546
   8323SM     P11016   4.301   4.090   3.136  0.0521 -0.5077 -0.3198
   8323SM   O1311017   4.393   4.188   3.071  0.7295 -0.3077 -0.3043
   8323SM   O1411018   4.155   4.111   3.122  0.4911 -0.2137  0.3009
   8323SM   O1111019   4.318   4.080   3.291  0.0631 -0.2012 -0.0324
   8323SM   O1211020   4.352   3.958   3.089  0.4183 -0.0723 -0.4105
   8323SM   C1S11021   4.444   4.052   3.351  0.4403  0.2887 -1.1501
   8323SM   H1S11022   4.512   4.138   3.333 -0.7903  1.5269 -0.0883
   8323SM   H1T11023   4.490   3.958   3.313  0.1645 -0.3651  0.0811
   8323SM    NF11024   4.582   4.009   3.558 -0.2540 -0.1411 -0.4527
   8323SM   HNF11025   4.617   3.917   3.571  2.2931  1.0803  2.4382
   8323SM   C2S11026   4.445   4.024   3.500  0.4125  0.5407  0.1265
   8323SM   H2S11027   4.388   4.102   3.555  0.7732  0.8784  0.0263
   8323SM   C3S11028   4.356   3.891   3.519 -0.9393 -0.0044  0.1741
   8323SM   H3S11029   4.394   3.812   3.450  0.7000  0.2593  0.7357
   8323SM    O311030   4.227   3.906   3.470 -0.1161  0.1108 -0.1324
   8323SM   HO311031   4.223   3.963   3.393 -0.3967  0.5517  0.2056
   8323SM   C4S11032   4.348   3.848   3.657 -0.1370  0.0394  0.6622
   8323SM   H4S11033   4.324   3.938   3.717  0.2400  0.6047 -0.0200
   8323SM   C5S11034   4.382   3.730   3.707  0.2847  0.3815 -0.3609
   8323SM   H5S11035   4.410   3.657   3.630 -0.2390  0.4065 -0.5764
   8323SM   C6S11036   4.384   3.675   3.845 -0.1517  0.2442  0.1727
   8323SM   H6S11037   4.466   3.600   3.852  0.9958  1.1902 -2.1266
   8323SM   H6T11038   4.289   3.620   3.860  0.1062 -0.2874 -0.1071
   8323SM   C7S11039   4.385   3.787   3.951  0.0623 -0.2388 -0.3457
   8323SM   H7S11040   4.297   3.852   3.929 -0.8858 -1.9743 -1.9324
   8323SM   H7T11041   4.476   3.850   3.946 -0.0231  0.2415  2.6537
   8323SM   C8S11042   4.381   3.739   4.100 -0.1538  0.0393  0.1997
   8323SM   H8S11043   4.457   3.657   4.105 -1.0632 -0.8310 -0.0210
   8323SM   H8T11044   4.287   3.683   4.119 -0.3100  0.3697  0.4158
   8323SM   C9S11045   4.409   3.851   4.202 -0.3682 -0.4663  0.2595
   8323SM   H9S11046   4.325   3.922   4.185 -0.2421 -0.0256  1.4121
   8323SM   H9T11047   4.505   3.897   4.170 -1.3984  1.0350 -0.8427
   8323SM  C10S11048   4.412   3.816   4.349  0.1402  0.6265 -0.0082
   8323SM  H10S11049   4.494   3.743   4.369 -0.7181 -0.3289  0.1268
   8323SM  H10T11050   4.329   3.747   4.376  0.1271  0.3900 -0.6251
   8323SM  C11S11051   4.411   3.932   4.443  0.0832 -0.1841  0.1004
   8323SM  H11S11052   4.320   3.992   4.426  0.2413 -0.7874 -3.9033
   8323SM  H11T11053   4.496   3.996   4.413 -0.7906 -0.1444 -2.5550
   8323SM  C12S11054   4.437   3.902   4.593  0.4720  0.3277 -0.2397
   8323SM  H12S11055   4.440   3.998   4.649  2.2933  0.7155 -0.9187
   8323SM  H12T11056   4.541   3.863   4.595  0.8696  1.2887  2.4926
   8323SM  C13S11057   4.333   3.810   4.656 -0.6610  0.3888 -0.0287
   8323SM  H13S11058   4.347   3.709   4.612  2.4713  0.7597 -0.0428
   8323SM  H13T11059   4.229   3.832   4.622 -0.3589  0.7445 -0.7432
   8323SM  C14S11060   4.354   3.791   4.811 -0.2828 -0.3855 -0.3765
   8323SM  H14S11061   4.463   3.778   4.827  0.1439  0.9068 -1.8993
   8323SM  H14T11062   4.308   3.694   4.840  2.6342 -2.0749 -1.0207
   8323SM  C15S11063   4.300   3.903   4.899  0.7729  0.0322 -0.2745
   8323SM  H15S11064   4.192   3.879   4.897  1.0507 -1.4495  0.9583
   8323SM  H15T11065   4.318   3.998   4.844  2.4821 -0.2530 -0.2523
   8323SM  C16S11066   4.345   3.923   5.047  0.1703 -0.6421  0.4731
   8323SM  H16S11067   4.449   3.961   5.048  0.7552 -1.8813 -2.7210
   8323SM  H16T11068   4.351   3.832   5.110 -0.1517 -1.0229 -0.0436
   8323SM  C17S11069   4.244   4.010   5.126  0.6610 -0.8348  0.1633
   8323SM  H17S11070   4.146   3.960   5.142 -0.7505  0.7716 -2.6590
   8323SM  H17T11071   4.222   4.094   5.057  0.4676 -0.3543  0.7994
   8323SM  C18S11072   4.290   4.082   5.255  0.0328  0.2221 -0.0451
   8323SM  H18S11073   4.229   4.173   5.273 -1.5286 -0.9014  0.6197
   8323SM  H18T11074   4.394   4.118   5.241  0.0007 -0.6738 -3.3360
   8323SM  H18U11075   4.281   3.998   5.328 -0.3413 -1.1896 -1.6712
   8323SM   C1F11076   4.666   4.110   3.583 -0.6821 -0.1485 -0.6454
   8323SM    OF11077   4.630   4.226   3.559  0.4003  0.1019  0.6907
   8323SM   C2F11078   4.810   4.083   3.634 -0.1864  0.2449 -0.6605
   8323SM   H2F11079   4.885   4.145   3.579 -0.5549  0.7578 -0.5949
   8323SM   H2G11080   4.841   3.978   3.619 -2.6167 -0.8545  1.2941
   8323SM   C3F11081   4.835   4.133   3.779 -0.2944  0.3987 -0.4537
   8323SM   H3F11082   4.765   4.083   3.850 -0.4536  1.7848  0.4131
   8323SM   H3G11083   4.816   4.242   3.791  0.5638  0.6508 -1.3149
   8323SM   C4F11084   4.973   4.108   3.825 -0.0286  0.4754 -0.0379
   8323SM   H4F11085   5.040   4.152   3.748 -0.6496  3.0251  0.7774
   8323SM   H4G11086   4.990   3.999   3.834  3.4292  0.9192 -0.0403
   8323SM   C5F11087   5.010   4.174   3.959  0.1863 -0.0661 -0.0177
   8323SM   H5F11088   4.945   4.136   4.041 -1.4013  3.7409  0.7050
   8323SM   H5G11089   4.990   4.283   3.958 -1.3507 -0.2097  3.0709
   8323SM   C6F11090   5.158   4.166   4.000 -0.7583  0.2996 -0.6554
   8323SM   H6F11091   5.212   4.215   3.916  0.7468 -1.4765 -0.7991
   8323SM   H6G11092   5.194   4.062   4.015 -0.0286  0.9053  2.6917
   8323SM   C7F11093   5.188   4.247   4.131 -0.3881  0.0479  0.5551
   8323SM   H7F11094   5.159   4.199   4.227  0.4717  0.8419  1.2347
   8323SM   H7G11095   5.143   4.348   4.124  0.5522  0.4496  0.1545
   8323SM   C8F11096   5.340   4.255   4.153 -0.7639 -0.2072  0.4371
   8323SM   H8F11097   5.390   4.277   4.056  0.0014  2.6144  1.3820
   8323SM   H8G11098   5.372   4.154   4.187  0.5373 -0.0128 -0.1370
   8323SM   C9F11099   5.380   4.350   4.260  0.3120 -0.8077 -0.3556
   8323SM   H9F11100   5.302   4.343   4.339 -0.3911 -0.0657 -0.9646
   8323SM   H9G11101   5.387   4.456   4.226  2.1494  0.2793  2.9141
   8323SM  C10F11102   5.514   4.317   4.331 -0.0808 -0.5505 -0.5453
   8323SM  H10F11103   5.583   4.286   4.250 -0.9632 -0.2176 -1.4388
   8323SM  H10G11104   5.504   4.226   4.394  1.0038 -0.4444 -0.2028
   8323SM  C11F11105   5.570   4.442   4.416  0.4696 -0.0409  0.5571
   8323SM  H11F11106   5.484   4.477   4.478 -0.1882  0.2574 -0.5050
   8323SM  H11G11107   5.615   4.523   4.355  0.6354 -1.2505 -0.9752
   8323SM  C12F11108   5.678   4.393   4.515  0.1764 -0.2413  0.0153
   8323SM  H12F11109   5.753   4.342   4.451  0.3340 -1.8631  1.4120
   8323SM  H12G11110   5.629   4.311   4.573  0.0978 -0.4525 -0.3454
   8323SM  C13F11111   5.725   4.505   4.606 -0.0756 -0.0689 -0.7598
   8323SM  H13F11112   5.630   4.528   4.659  0.5785  0.1473  0.3582
   8323SM  H13G11113   5.747   4.601   4.555 -1.5053  0.4950 -0.3676
   8323SM  C14F11114   5.840   4.455   4.701  0.5376  0.0241 -0.5702
   8323SM  H14F11115   5.936   4.440   4.647  1.8429 -0.2099  1.6751
   8323SM  H14G11116   5.805   4.361   4.750 -0.9362  0.1563 -1.3049
   8323SM  C15F11117   5.867   4.550   4.818 -0.5536  0.2013  0.0037
   8323SM  H15F11118   5.873   4.487   4.909  0.7482  0.1519 -0.0882
   8323SM  H15G11119   5.785   4.623   4.831  0.9297  2.0512 -0.6159
   8323SM  C16F11120   6.001   4.619   4.794 -0.3429  0.2963 -0.3356
   8323SM  H16F11121   5.986   4.685   4.706 -1.7464  0.6759  0.1604
   8323SM  H16G11122   6.077   4.543   4.766 -1.0175 -0.6568  0.3672
   8323SM  C17F11123   6.047   4.688   4.927 -0.0011  0.4641  0.2984
   8323SM  H17F11124   6.030   4.631   5.020 -0.0050  0.3146  0.2059
   8323SM  H17G11125   5.991   4.782   4.946 -0.4151  0.2561  0.1084
   8323SM  C18F11126   6.196   4.731   4.932  0.7468 -0.2961  0.3858
   8323SM  H18F11127   6.260   4.649   4.892  1.9522 -0.4105  2.4227
   8323SM  H18G11128   6.235   4.742   5.035  0.4142 -1.3753  0.6454
   8323SM  C19F11129   6.209   4.862   4.861 -0.1333 -0.1669  0.0222
   8323SM  H19F11130   6.148   4.941   4.911 -1.2944 -1.7670  1.2521
   8323SM  H19G11131   6.162   4.855   4.761 -0.1427 -1.1282  0.0889
   8323SM  C20F11132   6.357   4.912   4.849  0.4635 -0.6830  0.3615
   8323SM  H20F11133   6.410   4.836   4.788  1.3449 -0.0812  0.3619
   8323SM  H20G11134   6.399   4.910   4.951 -2.9509  1.4932  1.9964
   8323SM  C21F11135   6.363   5.058   4.798 -0.0578 -0.6617  0.1415
   8323SM  H21F11136   6.300   5.122   4.862 -0.9360 -1.5449  0.1771
   8323SM  H21G11137   6.326   5.070   4.694 -2.6475 -1.0699  0.9484
   8323SM  C22F11138   6.510   5.118   4.789 -0.4908  0.5772  0.8413
   8323SM  H22F11139   6.509   5.215   4.735  1.2362  0.2092  0.0654
   8323SM  H22G11140   6.559   5.046   4.719  0.6700  1.3521  0.8368
   8323SM  C23F11141   6.588   5.138   4.913  0.1226  0.6025 -0.5563
   8323SM  H23F11142   6.595   5.042   4.968  0.9993  1.0345  0.1102
   8323SM  H23G11143   6.540   5.208   4.985 -1.3874 -1.3738  0.4492
   8323SM  H23H11144   6.689   5.180   4.896  0.1213 -0.0551 -2.4992
   8423SM     N11145   5.035   2.819   2.227  0.3013  1.0646 -0.3704
   8423SM   C1511146   5.071   2.942   2.161 -0.3610 -0.2744 -0.7907
   8423SM  H15A11147   5.174   2.966   2.180 -0.4794  1.2053 -1.9187
   8423SM  H15B11148   5.009   3.026   2.190 -0.0172 -0.4876  0.6602
   8423SM  H15C11149   5.072   2.921   2.055 -2.7410  0.0696 -0.9322
   8423SM   C1411150   4.892   2.795   2.200  1.2471  0.1939  0.6525
   8423SM  H14A11151   4.870   2.697   2.239  2.5431 -0.3789  0.0098
   8423SM  H14B11152   4.867   2.794   2.095  1.0901 -0.5929  0.6964
   8423SM  H14C11153   4.826   2.863   2.252  0.0889 -0.3910 -0.0286
   8423SM   C1311154   5.113   2.700   2.177 -0.2956  0.6400  0.0308
   8423SM  H13A11155   5.115   2.623   2.253  0.6535  0.4332 -0.1899
   8423SM  H13B11156   5.218   2.714   2.156  0.4346 -0.7199  2.4372
   8423SM  H13C11157   5.057   2.659   2.094 -0.4817 -0.6394  0.7688
   8423SM   C1211158   5.059   2.820   2.377  0.1167  1.0821 -0.4203
   8423SM  H12A11159   4.998   2.900   2.418 -2.3989 -0.6276 -0.6287
   8423SM  H12B11160   5.163   2.836   2.399 -0.1908  0.4066  1.6929
   8423SM   C1111161   5.022   2.689   2.462  0.7407 -0.2185 -0.2012
   8423SM  H11A11162   5.047   2.716   2.567 -0.1222  0.3240 -0.1236
   8423SM  H11B11163   5.086   2.603   2.433  0.5356 -0.2801 -0.4787
   8423SM     P11164   4.768   2.701   2.543  0.1519  0.1406 -0.8795
   8423SM   O1311165   4.746   2.842   2.509 -0.3924 -0.1001  0.2338
   8423SM   O1411166   4.660   2.606   2.537  0.3204  0.1261  0.6445
   8423SM   O1111167   4.840   2.679   2.684 -0.5030 -0.5787  0.3137
   8423SM   O1211168   4.883   2.654   2.448 -0.2522 -0.4799  0.3693
   8423SM   C1S11169   4.884   2.556   2.737 -0.6951  0.2903 -0.6823
   8423SM   H1S11170   4.995   2.560   2.739 -0.7143  3.6573 -0.5784
   8423SM   H1T11171   4.833   2.466   2.697  0.0850 -1.7239  2.5292
   8423SM    NF11172   4.874   2.405   2.943  0.3944  0.1352  0.1366
   8423SM   HNF11173   4.804   2.342   2.974  0.5050  0.7787  1.7932
   8423SM   C2S11174   4.840   2.537   2.886 -0.5261  0.0846 -0.0207
   8423SM   H2S11175   4.890   2.618   2.943 -0.3095 -0.2575  0.2793
   8423SM   C3S11176   4.684   2.568   2.909 -0.7538  0.9607  1.4256
   8423SM   H3S11177   4.625   2.488   2.860  1.1286 -1.4649  2.8351
   8423SM    O311178   4.644   2.686   2.849  0.5513 -0.1755 -0.5528
   8423SM   HO311179   4.723   2.724   2.811  1.5122  0.0359  1.5085
   8423SM   C4S11180   4.637   2.554   3.054  0.5813  0.1117  0.6676
   8423SM   H4S11181   4.591   2.455   3.062  0.4669 -0.0845 -1.5772
   8423SM   C5S11182   4.623   2.646   3.148 -0.4455 -0.6544 -0.0970
   8423SM   H5S11183   4.644   2.750   3.120 -0.4283 -0.4960  0.4944
   8423SM   C6S11184   4.573   2.611   3.288  0.1647 -0.0383 -0.1246
   8423SM   H6S11185   4.467   2.644   3.292 -0.7525 -2.6721 -0.4119
   8423SM   H6T11186   4.628   2.671   3.364  0.3075  1.7061 -1.5505
   8423SM   C7S11187   4.568   2.470   3.331  0.2619  0.4052 -0.3410
   8423SM   H7S11188   4.670   2.427   3.322  0.5651  0.2863  2.6358
   8423SM   H7T11189   4.490   2.425   3.266  0.5355 -1.1288  0.3614
   8423SM   C8S11190   4.520   2.449   3.477 -0.2324  0.0279  0.4168
   8423SM   H8S11191   4.592   2.501   3.543  1.6864 -2.0988  0.1173
   8423SM   H8T11192   4.518   2.343   3.511 -2.3189  0.4239  1.7496
   8423SM   C9S11193   4.377   2.498   3.503 -0.4752  0.5341 -0.1886
   8423SM   H9S11194   4.302   2.445   3.440 -0.8665 -1.5638  1.9352
   8423SM   H9T11195   4.382   2.609   3.496  1.1060  0.3942 -2.0167
   8423SM  C10S11196   4.329   2.454   3.637  0.1128 -0.4560 -0.1158
   8423SM  H10S11197   4.325   2.343   3.648  0.4673 -0.2837  2.4526
   8423SM  H10T11198   4.227   2.499   3.646  1.2031  1.9830  0.8217
   8423SM  C11S11199   4.395   2.517   3.762 -0.6321 -0.8603  1.0751
   8423SM  H11S11200   4.407   2.623   3.732  1.4171 -1.3750 -0.0955
   8423SM  H11T11201   4.494   2.467   3.762  0.0081  0.3313 -0.5360
   8423SM  C12S11202   4.315   2.505   3.893 -0.3755  0.6052 -0.3026
   8423SM  H12S11203   4.285   2.399   3.906  0.4264  0.4333  0.1304
   8423SM  H12T11204   4.226   2.570   3.879 -1.9497 -1.4809 -0.5599
   8423SM  C13S11205   4.374   2.566   4.018 -1.2333  0.1952  0.3937
   8423SM  H13S11206   4.315   2.551   4.112  0.3697 -1.2438  1.2189
   8423SM  H13T11207   4.389   2.673   3.994  0.0570 -0.2749 -1.0358
   8423SM  C14S11208   4.524   2.515   4.043  0.0471 -1.1467  0.4030
   8423SM  H14S11209   4.587   2.556   3.961 -2.6359  5.1568  0.9723
   8423SM  H14T11210   4.539   2.405   4.049  1.0589 -1.0860 -0.5843
   8423SM  C15S11211   4.573   2.574   4.175 -0.2484 -0.1593 -0.1573
   8423SM  H15S11212   4.568   2.684   4.162  2.6927 -0.0816 -1.4733
   8423SM  H15T11213   4.684   2.564   4.175 -0.2482 -0.3445 -1.7710
   8423SM  C16S11214   4.511   2.524   4.304  0.9953 -0.4909  0.4985
   8423SM  H16S11215   4.531   2.416   4.320 -0.2389 -0.6747  0.8773
   8423SM  H16T11216   4.401   2.541   4.300  1.0679  0.0834  0.8022
   8423SM  C17S11217   4.584   2.577   4.421 -0.4712  0.0205 -0.2425
   8423SM  H17S11218   4.526   2.574   4.516  3.9021  0.2062  2.7499
   8423SM  H17T11219   4.602   2.685   4.405  0.0856 -0.1694 -0.9395
   8423SM  C18S11220   4.720   2.502   4.453 -0.4243  0.0284  0.0969
   8423SM  H18S11221   4.775   2.480   4.359  0.4570  2.1540  0.0534
   8423SM  H18T11222   4.699   2.413   4.515  1.1028 -0.8369 -0.5848
   8423SM  H18U11223   4.782   2.576   4.507 -0.1432  1.2468 -1.7796
   8423SM   C1F11224   5.000   2.373   2.947 -0.2491  1.0276  0.1707
   8423SM    OF11225   5.080   2.458   2.927  0.2584 -0.2258  0.2278
   8423SM   C2F11226   5.045   2.228   2.979 -0.1914 -0.7669 -0.3056
   8423SM   H2F11227   5.091   2.171   2.896  2.5284 -0.3529  0.8284
   8423SM   H2G11228   4.955   2.177   3.020 -0.4317  0.4900  0.8073
   8423SM   C3F11229   5.152   2.234   3.096 -0.2751 -0.1928 -0.2762
   8423SM   H3F11230   5.098   2.300   3.167 -0.6675 -0.3472 -0.4317
   8423SM   H3G11231   5.249   2.277   3.061  0.2527 -0.9899  0.1625
   8423SM   C4F11232   5.177   2.093   3.151  0.1115 -0.6683  0.0509
   8423SM   H4F11233   5.216   2.034   3.065  0.1658 -1.4064  0.5673
   8423SM   H4G11234   5.075   2.057   3.178  0.3978 -2.6950 -1.3253
   8423SM   C5F11235   5.271   2.092   3.275  0.1284  0.1198  0.2202
   8423SM   H5F11236   5.351   2.169   3.268 -0.1082  0.2419 -2.3590
   8423SM   H5G11237   5.324   1.995   3.282 -0.5993 -0.1805  1.9599
   8423SM   C6F11238   5.204   2.125   3.415  0.1052  0.1100  0.2193
   8423SM   H6F11239   5.118   2.056   3.430  0.2236 -1.0988 -3.5362
   8423SM   H6G11240   5.158   2.226   3.415 -1.8850 -0.7566  0.6341
   8423SM   C7F11241   5.301   2.107   3.527 -0.2697 -0.0448  0.3568
   8423SM   H7F11242   5.361   2.201   3.529  0.0542 -0.2262 -0.5277
   8423SM   H7G11243   5.383   2.035   3.503  2.0067  2.8546 -1.2099
   8423SM   C8F11244   5.231   2.083   3.662  0.0286  0.3048 -0.1172
   8423SM   H8F11245   5.192   1.979   3.658 -0.9675  0.6811 -0.3758
   8423SM   H8G11246   5.148   2.157   3.670  1.1332  1.4463  1.5602
   8423SM   C9F11247   5.322   2.101   3.785 -0.0917  0.1596  0.4201
   8423SM   H9F11248   5.338   2.211   3.792 -0.9451  0.2188  1.8340
   8423SM   H9G11249   5.417   2.047   3.767  1.0478  1.9471  0.8031
   8423SM  C10F11250   5.249   2.066   3.911 -0.1482  0.3089  0.1222
   8423SM  H10F11251   5.246   1.955   3.912 -2.1254  0.3265  1.7402
   8423SM  H10G11252   5.141   2.089   3.900 -0.5827 -1.9804 -0.9607
   8423SM  C11F11253   5.323   2.113   4.038  0.1457  0.5692 -0.0582
   8423SM  H11F11254   5.328   2.224   4.039 -0.7548  0.6142  1.2394
   8423SM  H11G11255   5.427   2.073   4.041 -1.0047 -2.8821 -1.0010
   8423SM  C12F11256   5.258   2.073   4.173  0.2327 -0.1994  0.0666
   8423SM  H12F11257   5.266   1.964   4.192  1.9103 -0.7079 -2.8948
   8423SM  H12G11258   5.151   2.100   4.185 -0.2435 -2.1900  0.6066
   8423SM  C13F11259   5.330   2.144   4.292 -0.0297 -0.0822 -0.8159
   8423SM  H13F11260   5.355   2.251   4.276 -0.0904  0.2888  1.2360
   8423SM  H13G11261   5.427   2.094   4.311  0.6091  1.7790  1.2814
   8423SM  C14F11262   5.260   2.114   4.427 -0.8721  0.4397  0.5270
   8423SM  H14F11263   5.221   2.010   4.430  0.0756  0.0749  0.5827
   8423SM  H14G11264   5.172   2.181   4.436  1.1944  3.4041  0.0124
   8423SM  C15F11265   5.348   2.111   4.557 -0.1494  0.5958 -0.8847
   8423SM  H15F11266   5.394   2.212   4.559  0.2960  0.4204 -1.7033
   8423SM  H15G11267   5.427   2.033   4.551 -0.1989  0.4637  0.0382
   8423SM  C16F11268   5.254   2.082   4.673 -0.0859  0.0175 -0.4214
   8423SM  H16F11269   5.207   1.982   4.673 -0.1885  0.0652 -0.7528
   8423SM  H16G11270   5.170   2.154   4.662  0.2330  1.1055  2.9703
   8423SM  C17F11271   5.317   2.104   4.817 -0.6361 -0.1042 -0.0577
   8423SM  H17F11272   5.352   2.210   4.811  0.9078 -0.6223 -0.6814
   8423SM  H17G11273   5.407   2.040   4.827 -0.4822 -0.0222 -0.8562
   8423SM  C18F11274   5.222   2.069   4.928 -0.4468 -0.7113 -0.9125
   8423SM  H18F11275   5.189   1.963   4.930  0.6881 -1.0746  0.4421
   8423SM  H18G11276   5.133   2.135   4.922  0.0801  0.1775  0.4995
   8423SM  C19F11277   5.272   2.111   5.064  0.1973 -0.8185 -0.0289
   8423SM  H19F11278   5.187   2.120   5.135  0.6047  2.1965  0.2219
   8423SM  H19G11279   5.303   2.217   5.052  1.0834 -1.1141 -0.4202
   8423SM  C20F11280   5.388   2.024   5.132  0.3147  0.0475 -0.5296
   8423SM  H20F11281   5.420   2.045   5.237  1.1613 -0.9304 -0.5754
   8423SM  H20G11282   5.479   2.033   5.069 -0.9787  2.1320 -2.2201
   8423SM  C21F11283   5.355   1.877   5.136 -0.3106  0.5371 -0.5758
   8423SM  H21F11284   5.341   1.843   5.031 -0.3959 -0.5741 -0.2169
   8423SM  H21G11285   5.278   1.845   5.209  1.1121  0.9324  1.1833
   8423SM  C22F11286   5.482   1.794   5.172  0.7916  0.3036 -0.4161
   8423SM  H22F11287   5.431   1.704   5.213 -1.4168  0.8379 -1.8264
   8423SM  H22G11288   5.546   1.837   5.252  0.2717  1.1568 -0.4499
   8423SM  C23F11289   5.563   1.746   5.050  0.3306 -0.2681  0.1781
   8423SM  H23F11290   5.609   1.837   5.005 -1.2767  0.4844 -0.0099
   8423SM  H23G11291   5.500   1.697   4.972 -0.5400  1.1251 -0.0414
   8423SM  H23H11292   5.640   1.668   5.068 -1.2354 -2.7167 -2.6588
   8523SM     N11293   0.045   3.555   2.772  0.3284  0.0879 -0.5796
   8523SM   C1511294   0.158   3.449   2.775 -0.0436 -0.3343  0.1434
   8523SM  H15A11295   0.254   3.496   2.790  0.5821 -0.6753 -2.3825
   8523SM  H15B11296   0.151   3.396   2.681  3.0097  0.0484 -0.3950
   8523SM  H15C11297   0.131   3.379   2.853  0.3976  0.0856  0.6801
   8523SM   C1411298   0.056   3.649   2.655 -1.1141 -0.4698  0.3390
   8523SM  H14A11299   0.157   3.687   2.654 -0.5224 -1.9851  0.0527
   8523SM  H14B11300  -0.005   3.738   2.664 -0.2128  0.5387 -2.5297
   8523SM  H14C11301   0.045   3.583   2.570 -1.1990 -1.0341  0.7866
   8523SM   C1311302  -0.089   3.485   2.756 -0.8211 -0.4856 -0.2640
   8523SM  H13A11303  -0.077   3.426   2.666  2.3111  3.2897 -2.6513
   8523SM  H13B11304  -0.168   3.556   2.734 -1.2164 -0.8769 -0.1258
   8523SM  H13C11305  -0.126   3.423   2.836  0.0058 -2.0513 -1.0394
   8523SM   C1211306   0.057   3.630   2.907 -0.0164 -0.1540  0.2895
   8523SM  H12A11307  -0.004   3.718   2.892 -0.4851 -0.5980 -0.4446
   8523SM  H12B11308   0.160   3.661   2.915  0.2904 -0.3497 -2.1428
   8523SM   C1111309   0.013   3.570   3.041 -0.0603 -0.0119 -0.4895
   8523SM  H11A11310  -0.096   3.549   3.042 -0.3513  1.2384  2.1841
   8523SM  H11B11311   0.025   3.652   3.115 -0.4305 -1.8450  1.7291
   8523SM     P11312   0.010   3.318   3.102 -0.0045 -0.3768  0.3039
   8523SM   O1311313  -0.112   3.312   3.021  0.8024  0.2061  0.3667
   8523SM   O1411314   0.114   3.215   3.083  0.6522 -0.2070 -0.5340
   8523SM   O1111315  -0.027   3.322   3.257  0.0515  0.1617 -0.2262
   8523SM   O1211316   0.087   3.457   3.078  0.0499  0.2089 -0.2142
   8523SM   C1S11317   0.089   3.353   3.339  0.7728  0.4569 -0.4087
   8523SM   H1S11318   0.115   3.459   3.315 -0.2085  0.1003 -3.4517
   8523SM   H1T11319   0.170   3.278   3.328 -1.4875 -2.1379 -0.5058
   8523SM    NF11320   0.155   3.381   3.586  0.0951  0.1029  0.0955
   8523SM   HNF11321   0.193   3.313   3.648  1.7791 -0.3279 -1.3024
   8523SM   C2S11322   0.046   3.340   3.487 -0.4149  0.0664 -0.8334
   8523SM   H2S11323  -0.035   3.413   3.508 -1.1465 -1.1153  0.5978
   8523SM   C3S11324  -0.022   3.202   3.527 -0.0879  0.5020 -0.0064
   8523SM   H3S11325   0.058   3.126   3.514  0.1016  0.4431  1.3822
   8523SM    O311326  -0.129   3.174   3.438 -0.0863 -0.7951 -0.4124
   8523SM   HO311327  -0.101   3.227   3.363 -1.2135  1.3484  0.5987
   8523SM   C4S11328  -0.070   3.193   3.672  0.4664  0.1051  0.1189
   8523SM   H4S11329  -0.156   3.257   3.698 -0.0898 -1.2501  1.7731
   8523SM   C5S11330  -0.018   3.108   3.770 -0.0413  0.6311  0.6725
   8523SM   H5S11331   0.062   3.038   3.742  0.8628  2.2088 -0.9100
   8523SM   C6S11332  -0.074   3.089   3.909 -0.3149  0.3078  0.8264
   8523SM   H6S11333  -0.123   2.989   3.908 -0.8772  0.5760 -0.5963
   8523SM   H6T11334  -0.142   3.172   3.938 -0.7860  0.5539 -0.8589
   8523SM   C7S11335   0.031   3.102   4.023 -0.0911  0.3688  0.1665
   8523SM   H7S11336   0.084   3.198   4.009 -0.5265  0.6793  0.5953
   8523SM   H7T11337   0.099   3.014   4.020 -0.1870  0.2607  0.8998
   8523SM   C8S11338  -0.035   3.099   4.160  0.2074 -0.0553 -0.4993
   8523SM   H8S11339  -0.078   3.000   4.184 -1.3981 -0.3373 -3.8966
   8523SM   H8T11340  -0.107   3.184   4.158  2.0103  1.6482  1.5686
   8523SM   C9S11341   0.067   3.121   4.275  0.3216 -0.2445  0.2115
   8523SM   H9S11342   0.013   3.149   4.368  1.5650  3.5363 -0.0196
   8523SM   H9T11343   0.132   3.208   4.251  1.0270 -0.8096  0.0258
   8523SM  C10S11344   0.160   3.005   4.302  0.3133  0.1465  0.2470
   8523SM  H10S11345   0.210   2.982   4.205  2.1137  1.9777  0.6651
   8523SM  H10T11346   0.101   2.919   4.339  1.4451  0.3454  2.7522
   8523SM  C11S11347   0.264   3.023   4.422  0.2920  0.1025  0.2949
   8523SM  H11S11348   0.305   2.922   4.440 -1.3173 -0.8728 -1.2170
   8523SM  H11T11349   0.207   3.060   4.510 -0.2008 -0.2480  0.1295
   8523SM  C12S11350   0.389   3.114   4.396  0.2099 -0.2914 -0.2234
   8523SM  H12S11351   0.353   3.218   4.380 -0.0226 -0.1110  1.2906
   8523SM  H12T11352   0.453   3.085   4.310 -1.4643 -3.5311 -0.5300
   8523SM  C13S11353   0.473   3.115   4.521 -0.6765  0.6655 -0.5376
   8523SM  H13S11354   0.498   3.012   4.555 -2.3789  1.0083  1.9634
   8523SM  H13T11355   0.404   3.152   4.599 -0.1020  2.0564 -0.6618
   8523SM  C14S11356   0.596   3.196   4.512 -0.0038 -0.2046 -0.5294
   8523SM  H14S11357   0.625   3.202   4.619  2.3348  0.6976 -1.1541
   8523SM  H14T11358   0.577   3.298   4.472  0.4215  0.1386  0.1326
   8523SM  C15S11359   0.693   3.109   4.420  0.4606  0.2320 -0.7741
   8523SM  H15S11360   0.647   3.097   4.320  0.0625  2.2771 -0.8861
   8523SM  H15T11361   0.701   3.010   4.470  0.1367  0.8153  0.4690
   8523SM  C16S11362   0.829   3.161   4.403 -1.1273 -0.8746  0.1425
   8523SM  H16S11363   0.879   3.180   4.501 -0.4490 -0.6144 -0.2507
   8523SM  H16T11364   0.837   3.260   4.353 -1.7391 -0.8791  0.0339
   8523SM  C17S11365   0.924   3.074   4.322 -0.0973  0.6364 -0.1581
   8523SM  H17S11366   0.931   2.978   4.378  1.3027  0.4341 -0.6298
   8523SM  H17T11367   1.020   3.130   4.326  1.1207 -1.4483  2.1209
   8523SM  C18S11368   0.890   3.054   4.177 -0.0378  0.2694  0.3268
   8523SM  H18S11369   0.881   3.152   4.127  0.3507 -0.3974 -1.0995
   8523SM  H18T11370   0.794   2.997   4.167  0.5136 -0.5232 -0.6130
   8523SM  H18U11371   0.966   3.000   4.116 -1.9641 -3.1563  0.6526
   8523SM   C1F11372   0.221   3.498   3.588  0.5511 -0.1310 -0.2894
   8523SM    OF11373   0.185   3.588   3.517  0.4589 -0.4570  0.1939
   8523SM   C2F11374   0.357   3.505   3.663 -0.7677  0.1126 -0.0932
   8523SM   H2F11375   0.418   3.448   3.590 -0.6244  1.9045 -1.4411
   8523SM   H2G11376   0.355   3.443   3.755  1.7613 -0.5260 -0.3881
   8523SM   C3F11377   0.409   3.641   3.694  0.1482 -0.8559 -0.2609
   8523SM   H3F11378   0.418   3.704   3.603 -0.8468 -1.5529 -0.8664
   8523SM   H3G11379   0.509   3.628   3.740 -0.8917 -2.2692  1.7412
   8523SM   C4F11380   0.319   3.707   3.796  0.2557 -0.2425 -0.0086
   8523SM   H4F11381   0.276   3.638   3.871 -0.6971  2.5770  2.2312
   8523SM   H4G11382   0.231   3.751   3.743  0.4858 -0.4153 -0.5492
   8523SM   C5F11383   0.377   3.813   3.891 -0.5401  0.6364 -0.0920
   8523SM   H5F11384   0.413   3.907   3.843 -0.0484 -0.0702 -1.1514
   8523SM   H5G11385   0.459   3.758   3.943 -0.9071  0.4008  0.2401
   8523SM   C6F11386   0.276   3.844   4.004 -1.6330  0.2874  0.1368
   8523SM   H6F11387   0.350   3.887   4.075  1.0653  1.9645 -3.4103
   8523SM   H6G11388   0.231   3.754   4.051 -2.3152 -0.0704 -1.1576
   8523SM   C7F11389   0.176   3.951   3.979 -0.7549  0.6678  0.7902
   8523SM   H7F11390   0.106   3.900   3.909  1.3861  0.6256 -1.4480
   8523SM   H7G11391   0.209   4.037   3.917  0.3570 -0.6435 -0.4953
   8523SM   C8F11392   0.105   3.993   4.110  0.1744 -0.3639 -0.6029
   8523SM   H8F11393   0.172   4.070   4.155 -0.8461  0.4030 -0.3754
   8523SM   H8G11394   0.103   3.914   4.188  1.8134 -0.6730 -0.8233
   8523SM   C9F11395  -0.035   4.035   4.085 -0.2444  0.3771 -0.1204
   8523SM   H9F11396  -0.089   3.942   4.056  0.3583  0.1777 -0.6187
   8523SM   H9G11397  -0.038   4.116   4.009  0.0713 -2.6454 -3.6459
   8523SM  C10F11398  -0.102   4.105   4.209  0.2250 -0.2189  0.5128
   8523SM  H10F11399  -0.193   4.154   4.166 -0.9449  0.6991  3.7293
   8523SM  H10G11400  -0.038   4.188   4.244 -1.6392  0.5340  2.3891
   8523SM  C11F11401  -0.154   4.011   4.318 -0.4127 -0.5468  0.7321
   8523SM  H11F11402  -0.057   3.965   4.348  1.7787  2.2534 -1.4812
   8523SM  H11G11403  -0.212   3.931   4.268  1.2693 -1.2457 -0.1967
   8523SM  C12F11404  -0.219   4.088   4.425  0.0468 -0.0109 -0.0163
   8523SM  H12F11405  -0.324   4.110   4.397 -0.9595 -2.9289  1.1143
   8523SM  H12G11406  -0.163   4.179   4.454 -0.0897 -0.0175  0.2636
   8523SM  C13F11407  -0.241   3.999   4.554  0.0317 -0.4121  0.5322
   8523SM  H13F11408  -0.288   3.902   4.527 -1.7836 -1.0517  5.0449
   8523SM  H13G11409  -0.312   4.057   4.618 -1.3205 -1.8574  0.3975
   8523SM  C14F11410  -0.102   3.968   4.620 -0.4368 -0.1315 -0.9171
   8523SM  H14F11411  -0.067   4.071   4.642 -0.4428 -0.7359  2.5425
   8523SM  H14G11412  -0.038   3.921   4.542  1.7965 -1.2734  1.4588
   8523SM  C15F11413  -0.111   3.877   4.740  0.1370 -0.1631 -0.1128
   8523SM  H15F11414  -0.162   3.786   4.700 -0.8229  0.3941 -0.1814
   8523SM  H15G11415  -0.184   3.913   4.815  2.1272  1.9709  0.9187
   8523SM  C16F11416   0.017   3.854   4.816  0.8930 -0.9648 -0.0391
   8523SM  H16F11417   0.060   3.950   4.851  0.5912 -0.7859 -0.1474
   8523SM  H16G11418   0.090   3.808   4.746 -0.0692 -1.0608 -1.0062
   8523SM  C17F11419  -0.013   3.777   4.943  0.2944 -0.3949  0.1677
   8523SM  H17F11420  -0.037   3.669   4.930 -1.2156 -0.6394  3.6504
   8523SM  H17G11421  -0.093   3.825   5.003  0.9470 -0.7987  1.4070
   8523SM  C18F11422   0.115   3.773   5.031 -0.2361  0.4735 -0.1798
   8523SM  H18F11423   0.144   3.879   5.050  0.5796  0.4313 -1.0742
   8523SM  H18G11424   0.195   3.737   4.962 -1.1457  0.7485 -1.4145
   8523SM  C19F11425   0.120   3.671   5.141 -0.9323  0.5874 -0.3023
   8523SM  H19F11426   0.118   3.563   5.115  2.0445  0.0303  1.2898
   8523SM  H19G11427   0.028   3.679   5.204 -0.9191 -0.2254 -0.1602
   8523SM  C20F11428   0.244   3.695   5.233  0.6227  0.1393 -0.7472
   8523SM  H20F11429   0.218   3.652   5.331 -0.0928  3.2371  0.5553
   8523SM  H20G11430   0.274   3.802   5.246  3.7131 -0.6939 -0.2745
   8523SM  C21F11431   0.357   3.609   5.183  0.2978  0.3936  0.1477
   8523SM  H21F11432   0.362   3.641   5.077  1.8048  1.2810  0.4620
   8523SM  H21G11433   0.345   3.499   5.192  1.4557  0.1409 -1.1768
   8523SM  C22F11434   0.489   3.648   5.260  0.7629 -0.0078  0.0285
   8523SM  H22F11435   0.538   3.739   5.220 -0.2383  1.7092  2.4483
   8523SM  H22G11436   0.559   3.564   5.241 -2.0106 -2.6485  0.5645
   8523SM  C23F11437   0.463   3.669   5.412  0.2864  0.1737  0.5642
   8523SM  H23F11438   0.421   3.772   5.425 -1.0193 -0.0307 -1.5481
   8523SM  H23G11439   0.555   3.671   5.473 -0.3315 -0.3954  1.5350
   8523SM  H23H11440   0.384   3.600   5.448 -0.5471  1.5746  1.5701
   8623SM     N11441   4.234   1.647   2.631  0.2130  0.1772  0.0347
   8623SM   C1511442   4.247   1.505   2.682 -0.2970 -0.5597  0.6181
   8623SM  H15A11443   4.326   1.508   2.755  1.6968  3.9835 -1.2994
   8623SM  H15B11444   4.297   1.449   2.605 -1.6190 -0.1289 -0.6057
   8623SM  H15C11445   4.150   1.460   2.698 -0.4063 -0.0435  1.4942
   8623SM   C1411446   4.381   1.689   2.601  0.1934  0.0560 -0.2555
   8623SM  H14A11447   4.423   1.624   2.525  2.2294 -0.6191  1.3557
   8623SM  H14B11448   4.449   1.686   2.685  0.6136  1.2607 -0.5335
   8623SM  H14C11449   4.388   1.793   2.573 -2.4566  0.6798  1.0832
   8623SM   C1311450   4.157   1.662   2.505  0.2370  0.3887  0.2398
   8623SM  H13A11451   4.204   1.613   2.421  0.4428  1.6306 -0.4009
   8623SM  H13B11452   4.142   1.767   2.486  0.8194  0.5476  0.6213
   8623SM  H13C11453   4.061   1.613   2.511  0.5681 -0.2250  0.6830
   8623SM   C1211454   4.181   1.742   2.734  0.3865 -0.2442 -0.7151
   8623SM  H12A11455   4.190   1.845   2.701 -0.0871 -0.0669 -0.3162
   8623SM  H12B11456   4.248   1.728   2.818  1.9919  3.9236 -1.0632
   8623SM   C1111457   4.041   1.724   2.786  0.1269 -0.1488 -0.8932
   8623SM  H11A11458   4.019   1.619   2.814 -4.0745  0.6198 -0.7317
   8623SM  H11B11459   3.969   1.741   2.703 -0.0807  1.4711 -0.4129
   8623SM     P11460   3.960   1.947   2.874  0.3564  0.1138  0.4277
   8623SM   O1311461   4.022   1.991   2.747  0.2881  0.0316 -0.8904
   8623SM   O1411462   3.817   1.940   2.881  0.3196 -0.4544  0.2353
   8623SM   O1111463   4.011   2.049   2.980  0.3792 -0.3418  0.2492
   8623SM   O1211464   4.010   1.799   2.904  0.3697 -0.8354 -0.7572
   8623SM   C1S11465   4.005   2.026   3.119 -0.0710 -0.1548  1.0432
   8623SM   H1S11466   4.075   1.946   3.151 -1.6823 -2.0597  0.0375
   8623SM   H1T11467   3.900   2.002   3.148 -0.1155  0.2777  1.2441
   8623SM    NF11468   4.054   2.129   3.333 -0.0025 -0.5063  0.0095
   8623SM   HNF11469   3.979   2.162   3.390 -1.5369 -0.6813 -1.7876
   8623SM   C2S11470   4.038   2.158   3.189 -0.0333  0.3135  0.0841
   8623SM   H2S11471   4.137   2.198   3.159 -0.0625 -0.0893 -0.5662
   8623SM   C3S11472   3.930   2.272   3.154 -0.4120  0.1091 -0.1135
   8623SM   H3S11473   3.831   2.243   3.195  1.2839 -3.5777  1.7514
   8623SM    O311474   3.903   2.290   3.014  0.2513  0.6342 -0.9579
   8623SM   HO311475   3.955   2.218   2.977  0.3890  0.9160 -1.3252
   8623SM   C4S11476   3.970   2.403   3.215  0.1348  0.5541  0.8066
   8623SM   H4S11477   3.913   2.416   3.309  2.0384  0.6909  2.0133
   8623SM   C5S11478   4.056   2.500   3.179  0.4779  0.1509 -0.3808
   8623SM   H5S11479   4.107   2.491   3.081  0.1905  1.0426 -0.6250
   8623SM   C6S11480   4.078   2.626   3.257  0.7836 -0.3974  0.3437
   8623SM   H6S11481   4.057   2.709   3.186 -1.2641 -1.1371  0.0276
   8623SM   H6T11482   4.187   2.630   3.278  0.7528 -2.0770  1.0012
   8623SM   C7S11483   4.002   2.640   3.386 -0.2994  1.0722  0.0727
   8623SM   H7S11484   4.017   2.551   3.451 -1.8005  0.8265  0.1309
   8623SM   H7T11485   3.892   2.651   3.372 -0.3421  0.2968 -0.2870
   8623SM   C8S11486   4.051   2.761   3.463 -0.1393  0.2270  0.1157
   8623SM   H8S11487   4.021   2.848   3.400 -2.0197 -1.1408 -0.9998
   8623SM   H8T11488   4.159   2.755   3.486 -0.1296  1.9320  0.6877
   8623SM   C9S11489   3.964   2.772   3.590 -0.2752  0.3573  0.0676
   8623SM   H9S11490   3.950   2.668   3.627  1.1115 -0.4218 -1.4411
   8623SM   H9T11491   3.869   2.826   3.572 -1.7366 -2.7528 -2.5801
   8623SM  C10S11492   4.051   2.832   3.702  0.4313  0.1219 -0.1682
   8623SM  H10S11493   4.082   2.936   3.682  1.2092  0.0562  0.6211
   8623SM  H10T11494   4.142   2.769   3.713  1.1195  0.6454 -2.3396
   8623SM  C11S11495   3.969   2.832   3.836  0.7250 -0.7539  1.1312
   8623SM  H11S11496   3.934   2.727   3.845  0.0887 -0.9774 -2.4853
   8623SM  H11T11497   3.883   2.901   3.831 -1.5168 -3.0868  3.8019
   8623SM  C12S11498   4.059   2.870   3.957 -0.0438 -0.6902  0.4382
   8623SM  H12S11499   4.101   2.968   3.925 -2.3677 -0.0021 -0.7209
   8623SM  H12T11500   4.144   2.799   3.952  0.1339 -0.3967 -0.9859
   8623SM  C13S11501   3.978   2.899   4.087  0.4543  0.2220 -0.2492
   8623SM  H13S11502   3.928   2.804   4.116  3.2283 -1.4746 -0.6054
   8623SM  H13T11503   3.906   2.977   4.055 -1.0234 -0.4820  1.2127
   8623SM  C14S11504   4.061   2.945   4.208  0.0669 -0.0940  0.1940
   8623SM  H14S11505   3.992   2.978   4.288 -0.8607  2.3669 -1.5131
   8623SM  H14T11506   4.121   3.036   4.182  0.8922 -0.8360 -0.6039
   8623SM  C15S11507   4.163   2.843   4.263 -0.3485 -0.2079 -0.5795
   8623SM  H15S11508   4.247   2.832   4.192 -0.2363 -0.0713 -0.4696
   8623SM  H15T11509   4.126   2.741   4.286  1.1325 -0.4692  0.7926
   8623SM  C16S11510   4.233   2.890   4.390  0.1635 -0.5092 -0.0900
   8623SM  H16S11511   4.249   3.000   4.387  0.4828 -0.5358  0.5066
   8623SM  H16T11512   4.337   2.853   4.389  0.5661  0.4854  1.4577
   8623SM  C17S11513   4.162   2.853   4.520  0.2866 -0.3483 -0.4388
   8623SM  H17S11514   4.185   2.749   4.552  1.5878  0.6270  2.0288
   8623SM  H17T11515   4.054   2.855   4.493  0.5997  1.5257 -1.7906
   8623SM  C18S11516   4.194   2.949   4.638 -0.7824 -0.3380 -0.4428
   8623SM  H18S11517   4.301   2.977   4.650 -0.8780 -0.5271  1.0332
   8623SM  H18T11518   4.168   2.901   4.735  1.5382 -0.1719  0.3081
   8623SM  H18U11519   4.132   3.041   4.633 -0.1944  0.2013  1.3360
   8623SM   C1F11520   4.149   2.054   3.380  0.1760  0.6318  0.0099
   8623SM    OF11521   4.230   2.005   3.308 -0.4218  0.1146  0.3117
   8623SM   C2F11522   4.148   2.023   3.524 -0.2517  0.2357 -0.2675
   8623SM   H2F11523   4.076   1.940   3.542  0.9396 -0.2145  3.2030
   8623SM   H2G11524   4.117   2.110   3.585  0.1768 -0.1274  0.4905
   8623SM   C3F11525   4.292   1.982   3.571  0.2860 -0.2534  0.3129
   8623SM   H3F11526   4.356   2.069   3.545  0.9472 -0.4839  1.1471
   8623SM   H3G11527   4.323   1.886   3.524 -1.2205 -0.8929  0.5609
   8623SM   C4F11528   4.310   1.960   3.722  0.0918  0.3680  0.0112
   8623SM   H4F11529   4.420   1.953   3.734  0.7711  2.3310 -3.7195
   8623SM   H4G11530   4.257   1.869   3.757  1.1390 -0.3836 -0.3139
   8623SM   C5F11531   4.263   2.084   3.810 -0.1324  0.6210 -0.7162
   8623SM   H5F11532   4.155   2.094   3.790 -0.1189  0.7492 -0.7238
   8623SM   H5G11533   4.317   2.173   3.768  0.7997  0.5682  0.3181
   8623SM   C6F11534   4.296   2.052   3.964 -0.0314 -0.4288  0.6962
   8623SM   H6F11535   4.401   2.018   3.966 -0.3353 -1.3807  1.0485
   8623SM   H6G11536   4.228   1.970   3.997 -2.6173  1.6793  0.9455
   8623SM   C7F11537   4.272   2.179   4.051  0.6536 -0.2681  0.4035
   8623SM   H7F11538   4.176   2.220   4.013  0.4018 -1.8684 -0.7827
   8623SM   H7G11539   4.349   2.258   4.034  1.4424 -1.1788 -0.4242
   8623SM   C8F11540   4.268   2.150   4.205 -0.3341  0.9796  0.0957
   8623SM   H8F11541   4.188   2.074   4.213  0.8036 -0.5497 -1.9771
   8623SM   H8G11542   4.252   2.241   4.268 -3.1215 -0.1217  1.1227
   8623SM   C9F11543   4.401   2.085   4.246 -0.4325 -0.6845  0.7181
   8623SM   H9F11544   4.483   2.156   4.221  0.8294 -2.5058 -0.5998
   8623SM   H9G11545   4.421   1.998   4.179 -3.1303 -0.2799 -0.7505
   8623SM  C10F11546   4.415   2.055   4.399 -0.7113 -0.1538  0.3723
   8623SM  H10F11547   4.366   2.139   4.452 -0.7700 -0.2783  0.5153
   8623SM  H10G11548   4.523   2.069   4.424 -0.8839  2.6236 -0.1635
   8623SM  C11F11549   4.352   1.924   4.447  0.5119 -0.2316 -0.4558
   8623SM  H11F11550   4.413   1.848   4.392  0.2503 -0.7298 -0.0642
   8623SM  H11G11551   4.248   1.916   4.407  0.5809  1.3355 -1.0274
   8623SM  C12F11552   4.361   1.888   4.599 -0.7326 -0.3883  0.5672
   8623SM  H12F11553   4.349   1.986   4.651  0.3554 -0.8186  1.7099
   8623SM  H12G11554   4.465   1.850   4.611 -0.1397  1.3931  1.5232
   8623SM  C13F11555   4.265   1.787   4.655 -0.3699 -0.0687  0.3711
   8623SM  H13F11556   4.162   1.816   4.626 -0.7261 -0.9880  0.6853
   8623SM  H13G11557   4.277   1.789   4.765  0.6619  0.9584  0.2645
   8623SM  C14F11558   4.285   1.641   4.607 -0.8273 -0.2120  0.1874
   8623SM  H14F11559   4.377   1.606   4.659 -0.0492 -0.6463 -1.4219
   8623SM  H14G11560   4.298   1.644   4.497 -1.0257 -1.9454  0.0945
   8623SM  C15F11561   4.170   1.542   4.640  0.3823 -0.2750 -0.1864
   8623SM  H15F11562   4.075   1.584   4.600  0.7284  0.5354 -0.1709
   8623SM  H15G11563   4.157   1.526   4.749 -0.5296  2.4889  0.2001
   8623SM  C16F11564   4.198   1.410   4.556 -0.2793  0.1934  0.0279
   8623SM  H16F11565   4.155   1.324   4.612  0.6219  0.6996  1.5585
   8623SM  H16G11566   4.306   1.387   4.553 -0.3165 -0.1645  0.9244
   8623SM  C17F11567   4.149   1.421   4.408 -0.6187 -0.1959  0.3751
   8623SM  H17F11568   4.200   1.509   4.362  0.0027 -1.5979 -1.7630
   8623SM  H17G11569   4.041   1.420   4.386 -0.7476  0.4033  0.9364
   8623SM  C18F11570   4.216   1.308   4.331  0.5961 -0.2725  0.5850
   8623SM  H18F11571   4.186   1.209   4.372 -0.4583 -0.5916 -0.8934
   8623SM  H18G11572   4.326   1.317   4.349  1.1451  0.7309 -2.6304
   8623SM  C19F11573   4.204   1.331   4.184  0.5814 -0.5659  0.1151
   8623SM  H19F11574   4.229   1.435   4.154 -2.4247  0.2396  0.0679
   8623SM  H19G11575   4.097   1.322   4.155  0.4905  1.1377 -0.1958
   8623SM  C20F11576   4.289   1.239   4.101 -0.2539  0.1460 -0.1826
   8623SM  H20F11577   4.271   1.134   4.130  2.6887  0.0101  1.5161
   8623SM  H20G11578   4.393   1.256   4.134  0.0305  1.2017 -1.5301
   8623SM  C21F11579   4.267   1.264   3.956 -1.0966 -0.3193 -0.2276
   8623SM  H21F11580   4.323   1.352   3.920 -0.4642  0.2634  2.0088
   8623SM  H21G11581   4.159   1.277   3.936 -1.3914 -1.0946  0.7545
   8623SM  C22F11582   4.313   1.145   3.868 -0.2255  0.5052 -0.6972
   8623SM  H22F11583   4.254   1.061   3.911  0.4410  0.5858  0.4344
   8623SM  H22G11584   4.423   1.127   3.871 -0.2576 -0.4596 -3.1768
   8623SM  C23F11585   4.278   1.156   3.725  0.0444 -0.1834 -0.2279
   8623SM  H23F11586   4.319   1.072   3.665  1.5772 -0.0710  0.5922
   8623SM  H23G11587   4.323   1.254   3.700  1.1767 -0.7098 -0.3379
   8623SM  H23H11588   4.168   1.158   3.711  0.0936  0.1135 -0.5756
   8723SM     N11589   4.319   2.618   2.643  0.3152 -0.6018 -0.0802
   8723SM   C1511590   4.250   2.542   2.530  0.6294 -0.4906  0.1228
   8723SM  H15A11591   4.323   2.497   2.464 -0.8187 -0.6839 -1.4245
   8723SM  H15B11592   4.180   2.607   2.480  0.3555 -0.4970  0.4932
   8723SM  H15C11593   4.188   2.464   2.573 -0.7323  0.6043  0.2118
   8723SM   C1411594   4.412   2.726   2.579  0.8933  0.3809 -0.2243
   8723SM  H14A11595   4.496   2.676   2.533  0.7791 -1.3224  1.3262
   8723SM  H14B11596   4.429   2.793   2.661  0.7273 -0.4149  0.4759
   8723SM  H14C11597   4.358   2.779   2.501  1.0422  1.9353  0.7046
   8723SM   C1311598   4.201   2.682   2.714 -1.0701 -0.2754  0.6803
   8723SM  H13A11599   4.239   2.759   2.780 -0.6454  1.7152 -1.7272
   8723SM  H13B11600   4.146   2.607   2.769 -0.1998 -1.0217  0.5475
   8723SM  H13C11601   4.131   2.734   2.651 -0.6976  0.3705  0.7875
   8723SM   C1211602   4.403   2.528   2.728  0.0379  0.2205  0.1941
   8723SM  H12A11603   4.471   2.581   2.793  0.3052  0.3529 -0.1915
   8723SM  H12B11604   4.475   2.481   2.664  1.3115  2.3737 -0.0607
   8723SM   C1111605   4.338   2.409   2.807 -0.0579 -0.3983 -0.6531
   8723SM  H11A11606   4.242   2.441   2.852 -0.2883  1.0683 -2.1051
   8723SM  H11B11607   4.408   2.382   2.889 -0.2647  2.1090  0.4250
   8723SM     P11608   4.417   2.193   2.681  0.0929 -0.0733 -0.1924
   8723SM   O1311609   4.356   2.074   2.617 -0.1207 -0.0724  0.3106
   8723SM   O1411610   4.518   2.260   2.599  0.7950  0.2381  0.4441
   8723SM   O1111611   4.485   2.144   2.813  0.0005 -0.3324 -0.1740
   8723SM   O1211612   4.312   2.305   2.721 -0.5546  0.3576  0.2794
   8723SM   C1S11613   4.399   2.061   2.896  0.3512 -0.2921  0.1314
   8723SM   H1S11614   4.354   1.982   2.832  0.1880 -0.6009  0.6139
   8723SM   H1T11615   4.309   2.120   2.923  1.0608  0.8981 -0.0376
   8723SM    NF11616   4.413   1.911   3.102  0.1121 -0.0272  0.1777
   8723SM   HNF11617   4.363   1.944   3.182  0.7950  0.2686  0.4912
   8723SM   C2S11618   4.479   2.018   3.024 -0.8283  0.7000 -0.9356
   8723SM   H2S11619   4.570   1.968   2.984 -0.9139 -1.0602  0.8731
   8723SM   C3S11620   4.537   2.138   3.104  0.7181 -0.0551  0.1902
   8723SM   H3S11621   4.442   2.190   3.126 -0.2207 -1.7380  0.2811
   8723SM    O311622   4.612   2.233   3.028 -0.1406 -0.1677  0.5193
   8723SM   HO311623   4.590   2.215   2.936  1.0611  0.6126  0.0471
   8723SM   C4S11624   4.592   2.108   3.241  0.6485  0.2330  0.4756
   8723SM   H4S11625   4.518   2.134   3.318 -1.9717  0.2750 -1.8911
   8723SM   C5S11626   4.725   2.075   3.252 -0.1005  0.5755  0.0629
   8723SM   H5S11627   4.790   2.065   3.163 -0.4721  0.9017 -0.2466
   8723SM   C6S11628   4.795   2.065   3.384 -0.0362  0.3844  0.0781
   8723SM   H6S11629   4.889   2.123   3.379 -0.2025  0.6145 -0.6332
   8723SM   H6T11630   4.805   1.958   3.409 -0.5274  0.7308  1.8639
   8723SM   C7S11631   4.724   2.112   3.511 -0.2091 -0.4272 -0.0803
   8723SM   H7S11632   4.620   2.072   3.509  0.0320 -1.1696  1.1885
   8723SM   H7T11633   4.707   2.222   3.510 -0.7857 -0.4222  2.4869
   8723SM   C8S11634   4.796   2.080   3.636  0.3811  0.4441 -0.3702
   8723SM   H8S11635   4.887   2.143   3.641  0.8715 -0.2968  0.2473
   8723SM   H8T11636   4.841   1.979   3.636 -0.1288  0.2071  0.9402
   8723SM   C9S11637   4.720   2.099   3.758 -0.3592  0.8781 -0.5684
   8723SM   H9S11638   4.639   2.023   3.770  0.2575  0.1069 -1.2239
   8723SM   H9T11639   4.667   2.197   3.769 -2.9596 -0.5953  1.1794
   8723SM  C10S11640   4.809   2.083   3.890 -0.2924 -0.0052 -0.0655
   8723SM  H10S11641   4.897   2.149   3.880 -0.8287  0.4928 -1.9055
   8723SM  H10T11642   4.856   1.983   3.899  1.3683  0.8648  1.4208
   8723SM  C11S11643   4.740   2.095   4.027  0.3380  0.6669 -0.6158
   8723SM  H11S11644   4.670   2.010   4.041  2.8742 -1.4056  0.1946
   8723SM  H11T11645   4.691   2.195   4.025 -0.2359  0.3900 -0.4444
   8723SM  C12S11646   4.835   2.078   4.136  0.4480 -0.4226 -0.0133
   8723SM  H12S11647   4.910   2.161   4.136  2.1875 -1.9283 -1.2704
   8723SM  H12T11648   4.892   1.983   4.133  0.4965 -0.3951  0.0196
   8723SM  C13S11649   4.765   2.078   4.275 -0.0397 -0.3577 -0.2438
   8723SM  H13S11650   4.682   2.004   4.267 -0.6818  0.5550 -3.2832
   8723SM  H13T11651   4.720   2.179   4.285  1.4769  0.4182 -0.9285
   8723SM  C14S11652   4.868   2.060   4.383 -0.1513 -1.0938  0.1497
   8723SM  H14S11653   4.930   2.152   4.380 -0.9993 -0.5145 -2.2069
   8723SM  H14T11654   4.934   1.973   4.363  0.1472 -0.6052 -1.1099
   8723SM  C15S11655   4.805   2.040   4.523 -0.3753 -0.0474  0.6631
   8723SM  H15S11656   4.720   2.106   4.550 -0.5364  0.0875 -0.1490
   8723SM  H15T11657   4.892   2.067   4.588  1.5275  0.3936 -1.8974
   8723SM  C16S11658   4.767   1.899   4.540 -0.3267  0.4947  1.1167
   8723SM  H16S11659   4.854   1.835   4.512  0.3897  0.8609  2.4577
   8723SM  H16T11660   4.683   1.879   4.469  0.2131  0.4265  0.4817
   8723SM  C17S11661   4.741   1.869   4.689 -0.3874  0.4900  0.2116
   8723SM  H17S11662   4.636   1.903   4.703  0.2736  2.7965 -0.0349
   8723SM  H17T11663   4.812   1.923   4.755 -1.4080  0.0011  1.7729
   8723SM  C18S11664   4.744   1.726   4.739 -0.3489  0.1296 -0.1496
   8723SM  H18S11665   4.670   1.667   4.680 -0.9500  1.1168 -0.4049
   8723SM  H18T11666   4.722   1.721   4.848  0.6915 -0.0276  0.0662
   8723SM  H18U11667   4.843   1.677   4.730 -0.0210  0.2911  2.1504
   8723SM   C1F11668   4.380   1.791   3.045  0.2238  0.3809 -0.9992
   8723SM    OF11669   4.415   1.768   2.927  0.8325 -0.3654  0.3256
   8723SM   C2F11670   4.298   1.691   3.131  0.1260 -0.4465 -0.2699
   8723SM   H2F11671   4.242   1.621   3.065 -0.3583  0.4115 -0.8074
   8723SM   H2G11672   4.223   1.742   3.196  1.1465  1.9745 -0.8616
   8723SM   C3F11673   4.390   1.597   3.211 -0.2039 -0.5866  0.2395
   8723SM   H3F11674   4.475   1.568   3.145 -0.6571  1.2081 -1.2195
   8723SM   H3G11675   4.333   1.504   3.235  1.2213 -1.6199 -0.2341
   8723SM   C4F11676   4.446   1.653   3.349 -0.4280 -0.4045  0.1942
   8723SM   H4F11677   4.364   1.672   3.421  1.1051  2.1105  1.3910
   8723SM   H4G11678   4.514   1.740   3.336  0.5335 -1.1761 -0.0957
   8723SM   C5F11679   4.524   1.551   3.439  0.8180 -0.0620 -0.6083
   8723SM   H5F11680   4.625   1.534   3.397  0.6038  0.8225 -1.5035
   8723SM   H5G11681   4.462   1.459   3.430 -1.0563  0.9974  0.6390
   8723SM   C6F11682   4.527   1.585   3.586  0.4786 -0.4111 -0.0255
   8723SM   H6F11683   4.557   1.488   3.632 -0.3845 -0.7104 -0.0753
   8723SM   H6G11684   4.422   1.600   3.620  0.3645 -0.7686 -0.2173
   8723SM   C7F11685   4.622   1.698   3.627 -0.1022  0.2670 -0.0144
   8723SM   H7F11686   4.561   1.787   3.601 -0.1309  0.2834  0.1077
   8723SM   H7G11687   4.714   1.695   3.565 -0.3635  0.7625 -0.4336
   8723SM   C8F11688   4.668   1.705   3.775 -0.0878 -0.6585  0.2009
   8723SM   H8F11689   4.742   1.787   3.778  0.4865 -1.1782  0.2997
   8723SM   H8G11690   4.726   1.612   3.790 -1.1117 -1.4821 -0.7363
   8723SM   C9F11691   4.549   1.731   3.865  0.0693  0.0499  0.1452
   8723SM   H9F11692   4.452   1.696   3.824 -0.9056  2.4226  0.2617
   8723SM   H9G11693   4.535   1.841   3.874 -0.4428  0.2356 -2.3053
   8723SM  C10F11694   4.555   1.665   4.001  0.1241 -0.4753  0.6284
   8723SM  H10F11695   4.536   1.555   4.001 -2.3639 -0.1156 -0.1070
   8723SM  H10G11696   4.476   1.712   4.063  0.9516  1.8517  0.0113
   8723SM  C11F11697   4.694   1.697   4.067 -0.0731  0.0977 -0.6905
   8723SM  H11F11698   4.693   1.801   4.106 -1.3203  0.0065 -0.4237
   8723SM  H11G11699   4.777   1.679   3.996  0.8838  0.7963  0.2273
   8723SM  C12F11700   4.715   1.605   4.192  0.0684  0.1669  0.2237
   8723SM  H12F11701   4.799   1.632   4.259  1.1819 -1.0822 -0.6076
   8723SM  H12G11702   4.731   1.503   4.149  0.0190  0.0893  0.3876
   8723SM  C13F11703   4.594   1.596   4.287 -0.1274  0.4284 -0.4564
   8723SM  H13F11704   4.522   1.521   4.251 -0.5193  0.2735  0.6267
   8723SM  H13G11705   4.539   1.689   4.314  2.4723  1.9418  0.0688
   8723SM  C14F11706   4.638   1.543   4.424 -1.1541  1.0263 -0.1561
   8723SM  H14F11707   4.542   1.545   4.481 -1.5982  0.0278 -0.8348
   8723SM  H14G11708   4.710   1.608   4.477 -0.2582  0.5803 -0.8095
   8723SM  C15F11709   4.674   1.392   4.423  0.4773  0.3953  0.4396
   8723SM  H15F11710   4.767   1.384   4.362 -0.8644 -1.6134 -1.5142
   8723SM  H15G11711   4.593   1.346   4.362  0.6113 -0.4964  0.9297
   8723SM  C16F11712   4.689   1.334   4.566 -0.0002  0.6429 -0.2004
   8723SM  H16F11713   4.583   1.325   4.597  0.4330 -0.4035  1.0471
   8723SM  H16G11714   4.745   1.403   4.633  0.4114  0.0877  0.0405
   8723SM  C17F11715   4.746   1.193   4.569 -0.0487  0.5086  0.0276
   8723SM  H17F11716   4.708   1.140   4.479 -1.8958  0.2169  0.9176
   8723SM  H17G11717   4.706   1.143   4.660 -0.0019 -0.0712 -0.2692
   8723SM  C18F11718   4.900   1.174   4.577 -0.2889  0.5675 -0.3283
   8723SM  H18F11719   4.940   1.247   4.650 -4.0857  1.3350  1.2227
   8723SM  H18G11720   4.944   1.212   4.482  1.5304 -1.2751 -0.2990
   8723SM  C19F11721   4.944   1.034   4.610 -0.0110  0.4347 -0.5479
   8723SM  H19F11722   5.041   1.003   4.567  0.2377  0.5460 -0.0643
   8723SM  H19G11723   4.867   0.959   4.580 -1.4838  0.8221  1.9292
   8723SM  C20F11724   4.948   1.020   4.761  1.1393 -0.4417  0.8956
   8723SM  H20F11725   4.857   1.054   4.813  0.3500 -2.0181  0.5971
   8723SM  H20G11726   5.032   1.083   4.799  0.8267 -0.6562  1.9762
   8723SM  C21F11727   4.974   0.882   4.823 -0.0025  0.2796  1.0524
   8723SM  H21F11728   5.061   0.844   4.766 -0.5862  0.7967 -0.2401
   8723SM  H21G11729   4.889   0.814   4.800 -0.2675  0.4448  1.5374
   8723SM  C22F11730   4.992   0.896   4.975 -0.1502  0.4066  0.0013
   8723SM  H22F11731   5.058   0.979   5.005 -2.7158  2.5483  0.0457
   8723SM  H22G11732   5.021   0.801   5.025  1.3565  0.8619  0.0178
   8723SM  C23F11733   4.853   0.912   5.042 -0.1438 -0.2797 -0.4094
   8723SM  H23F11734   4.793   0.999   5.010  1.5980  2.2964  2.7164
   8723SM  H23G11735   4.871   0.919   5.152 -1.4778  1.0815 -0.2401
   8723SM  H23H11736   4.791   0.822   5.021 -1.3613  0.6720 -1.0044
   8823SM     N11737   2.933   1.561   3.236  0.0985 -0.2062  0.0982
   8823SM   C1511738   2.984   1.476   3.346 -0.0306 -0.1514 -0.0536
   8823SM  H15A11739   2.928   1.493   3.437  0.7251 -0.7313  0.5292
   8823SM  H15B11740   3.085   1.498   3.378  0.9270 -0.3331 -2.6929
   8823SM  H15C11741   2.973   1.369   3.340 -0.6975 -0.0772 -0.2726
   8823SM   C1411742   2.902   1.696   3.298 -0.8821  0.4010  0.3281
   8823SM  H14A11743   2.886   1.769   3.220  1.5805  0.8205  0.1337
   8823SM  H14B11744   2.989   1.725   3.355 -0.1186  1.8478 -1.4525
   8823SM  H14C11745   2.809   1.690   3.352 -1.3899  1.6476 -0.3615
   8823SM   C1311746   3.047   1.576   3.141  0.5116 -0.1503  0.6920
   8823SM  H13A11747   3.133   1.598   3.202 -0.6585 -1.7004  3.0456
   8823SM  H13B11748   3.021   1.663   3.082 -2.2322 -0.8733  0.7062
   8823SM  H13C11749   3.071   1.487   3.084  0.4075 -0.7208  1.5204
   8823SM   C1211750   2.814   1.498   3.166 -0.0386  0.8653  0.0719
   8823SM  H12A11751   2.856   1.414   3.113  0.5797 -0.6053  2.6986
   8823SM  H12B11752   2.780   1.570   3.093 -0.9314  1.0698  0.6657
   8823SM   C1111753   2.690   1.462   3.249 -0.5328  0.2464  0.1466
   8823SM  H11A11754   2.714   1.372   3.310 -1.0776  0.8111  1.2228
   8823SM  H11B11755   2.602   1.437   3.186 -0.2301  0.9397 -0.5724
   8823SM     P11756   2.555   1.524   3.470 -0.2224  0.3018 -0.3604
   8823SM   O1311757   2.544   1.640   3.561  0.1739 -0.5565  0.3999
   8823SM   O1411758   2.426   1.472   3.414  0.3772  0.1968  0.5971
   8823SM   O1111759   2.621   1.402   3.550 -0.3223  0.2486 -0.3526
   8823SM   O1211760   2.654   1.556   3.351  0.3207 -0.3409 -0.3285
   8823SM   C1S11761   2.618   1.375   3.690 -0.4847  0.3408 -0.7896
   8823SM   H1S11762   2.529   1.417   3.741 -0.1092 -0.2585  0.3969
   8823SM   H1T11763   2.704   1.427   3.739 -1.7961  1.8836 -0.0221
   8823SM    NF11764   2.557   1.174   3.836 -0.0641  0.0840 -0.1266
   8823SM   HNF11765   2.612   1.119   3.899  1.3487 -1.4055 -2.5054
   8823SM   C2S11766   2.629   1.220   3.713 -0.0509  0.7345  0.1426
   8823SM   H2S11767   2.570   1.170   3.633 -0.1148 -2.0861  1.7809
   8823SM   C3S11768   2.778   1.168   3.688  0.4902  0.5356 -0.3245
   8823SM   H3S11769   2.833   1.207   3.776 -1.4630  1.4447  0.5633
   8823SM    O311770   2.857   1.240   3.594  0.2150  0.2152  0.3200
   8823SM   HO311771   2.810   1.319   3.567 -0.3617  0.1935  1.1974
   8823SM   C4S11772   2.792   1.015   3.669  0.3647 -0.5185  0.3514
   8823SM   H4S11773   2.842   0.957   3.748  3.5773 -0.2629 -1.3023
   8823SM   C5S11774   2.766   0.944   3.560  0.1833  0.0788 -0.2803
   8823SM   H5S11775   2.712   0.985   3.473  0.1129 -1.0128 -0.7721
   8823SM   C6S11776   2.794   0.798   3.548 -0.0387  0.9116  0.3093
   8823SM   H6S11777   2.807   0.774   3.441 -1.1083 -2.1471  0.7723
   8823SM   H6T11778   2.711   0.745   3.600 -0.8279  0.5906 -1.2373
   8823SM   C7S11779   2.928   0.751   3.615 -0.6634 -0.0458  0.4772
   8823SM   H7S11780   2.925   0.789   3.719 -2.1637  0.1167  0.4031
   8823SM   H7T11781   3.010   0.794   3.554 -1.1120  0.5776  0.3082
   8823SM   C8S11782   2.949   0.598   3.603 -0.1279 -0.1237 -0.3921
   8823SM   H8S11783   2.965   0.577   3.495  0.1308  1.8877 -0.7798
   8823SM   H8T11784   2.863   0.537   3.641 -0.7083  0.5704 -0.5714
   8823SM   C9S11785   3.083   0.561   3.670  0.6940 -0.3210  0.0024
   8823SM   H9S11786   3.075   0.602   3.773 -0.6067  1.4921 -0.7817
   8823SM   H9T11787   3.165   0.629   3.637 -0.0529  0.9150  0.6183
   8823SM  C10S11788   3.100   0.404   3.663 -0.0710 -0.4286 -0.8193
   8823SM  H10S11789   3.087   0.372   3.557  1.8421  3.1079 -2.3033
   8823SM  H10T11790   3.022   0.358   3.726 -0.3646  0.5888 -0.4160
   8823SM  C11S11791   3.239   0.374   3.722 -0.2174 -0.2627 -0.1340
   8823SM  H11S11792   3.321   0.442   3.690 -1.3052  1.0628 -0.1576
   8823SM  H11T11793   3.265   0.277   3.673  0.5684  0.6899 -1.6938
   8823SM  C12S11794   3.223   0.351   3.874  0.0895 -0.1170  0.2106
   8823SM  H12S11795   3.119   0.361   3.911 -0.3006 -1.3725 -0.4696
   8823SM  H12T11796   3.279   0.434   3.922  0.5132  0.0014 -0.4734
   8823SM  C13S11797   3.261   0.210   3.917  0.4366  0.3543  0.3607
   8823SM  H13S11798   3.274   0.204   4.027  1.9992  1.7177  0.3080
   8823SM  H13T11799   3.358   0.189   3.866 -0.2438 -1.2435 -0.3176
   8823SM  C14S11800   3.152   0.107   3.879  0.2760  0.3277 -0.6706
   8823SM  H14S11801   3.131   0.113   3.770  1.5570 -0.8143 -1.0056
   8823SM  H14T11802   3.059   0.144   3.928 -0.7170 -0.9606 -1.5302
   8823SM  C15S11803   3.174  -0.034   3.931 -0.5484 -0.1996 -0.6514
   8823SM  H15S11804   3.209  -0.036   4.037 -0.1287  2.3101 -0.6830
   8823SM  H15T11805   3.257  -0.086   3.878 -1.1080 -0.6337 -1.1082
   8823SM  C16S11806   3.054  -0.122   3.909  0.4078  0.4067 -0.6205
   8823SM  H16S11807   3.015  -0.092   3.810  0.1407  0.2343 -0.5677
   8823SM  H16T11808   2.974  -0.107   3.983  0.5970  0.7581 -0.4875
   8823SM  C17S11809   3.084  -0.276   3.888 -0.2302 -1.1960 -0.0108
   8823SM  H17S11810   3.160  -0.281   3.806 -1.8502  0.8275 -1.7491
   8823SM  H17T11811   2.990  -0.323   3.852  0.6892 -2.2219 -1.2296
   8823SM  C18S11812   3.134  -0.344   4.015  0.5773 -0.0229  0.1001
   8823SM  H18S11813   3.192  -0.283   4.087 -0.5499 -0.6500  1.5696
   8823SM  H18T11814   3.217  -0.416   3.997  0.3872 -0.0511 -0.7489
   8823SM  H18U11815   3.054  -0.386   4.079 -0.5333  2.3935  0.3939
   8823SM   C1F11816   2.422   1.202   3.849  0.2012  0.3136 -0.3631
   8823SM    OF11817   2.350   1.247   3.760  0.2352 -0.4735  0.4285
   8823SM   C2F11818   2.355   1.164   3.977  0.0042  0.1270 -0.0874
   8823SM   H2F11819   2.316   1.063   3.952  0.3608  0.1197 -0.6221
   8823SM   H2G11820   2.263   1.226   3.986  0.1222  0.5214 -1.4834
   8823SM   C3F11821   2.449   1.171   4.096 -0.3508 -0.1364 -0.1383
   8823SM   H3F11822   2.538   1.110   4.069 -0.2643  0.7359 -1.9422
   8823SM   H3G11823   2.397   1.125   4.183  1.5466 -0.5006  0.8500
   8823SM   C4F11824   2.497   1.311   4.135  0.0133 -0.4439  0.9892
   8823SM   H4F11825   2.404   1.371   4.149  1.4971  2.2966 -0.1991
   8823SM   H4G11826   2.561   1.345   4.051  0.6249 -0.8537  1.2848
   8823SM   C5F11827   2.567   1.327   4.269 -0.3656  0.2729 -0.1648
   8823SM   H5F11828   2.659   1.263   4.273  1.5276  2.9144  2.2637
   8823SM   H5G11829   2.491   1.284   4.337  0.5964 -0.1335  0.6815
   8823SM   C6F11830   2.600   1.463   4.326 -0.3494 -0.3436  0.8118
   8823SM   H6F11831   2.699   1.500   4.292 -1.6988  2.5579 -0.3191
   8823SM   H6G11832   2.591   1.464   4.436  0.7846  1.6995  0.9447
   8823SM   C7F11833   2.507   1.574   4.268  0.1625 -0.2835  0.2977
   8823SM   H7F11834   2.400   1.561   4.294  0.1206  0.5236  0.5545
   8823SM   H7G11835   2.520   1.559   4.158  0.1512 -3.3495  0.6188
   8823SM   C8F11836   2.548   1.721   4.317 -0.1205 -0.1363  0.4606
   8823SM   H8F11837   2.473   1.782   4.262  1.5483  1.7885  0.2129
   8823SM   H8G11838   2.653   1.740   4.287  0.3689 -0.7140  1.7156
   8823SM   C9F11839   2.507   1.744   4.460 -0.2552 -0.0234 -0.2796
   8823SM   H9F11840   2.551   1.669   4.529 -1.2513  0.3321  0.7689
   8823SM   H9G11841   2.398   1.727   4.455 -0.1871 -0.2830 -0.9894
   8823SM  C10F11842   2.531   1.885   4.516  0.1056 -0.2609  0.2185
   8823SM  H10F11843   2.498   1.954   4.436 -0.8936  0.0129  0.8424
   8823SM  H10G11844   2.639   1.907   4.533 -0.1011  0.7195  0.3575
   8823SM  C11F11845   2.439   1.904   4.638  0.0551  0.0030 -0.4397
   8823SM  H11F11846   2.334   1.878   4.613 -0.1052 -1.9295  1.8651
   8823SM  H11G11847   2.446   2.008   4.676 -0.5190 -0.8739  2.3169
   8823SM  C12F11848   2.481   1.811   4.757  0.1378  0.3195 -0.5202
   8823SM  H12F11849   2.592   1.814   4.764  0.1330  0.8181 -0.5618
   8823SM  H12G11850   2.445   1.709   4.731  3.2768 -1.3001  0.9338
   8823SM  C13F11851   2.418   1.845   4.898 -0.0755  0.2281  0.2375
   8823SM  H13F11852   2.307   1.841   4.891  0.0196 -1.3333 -0.6983
   8823SM  H13G11853   2.456   1.945   4.929  1.0847 -0.4120  0.9435
   8823SM  C14F11854   2.470   1.750   5.007  0.7861  0.3902  0.3045
   8823SM  H14F11855   2.576   1.779   5.027  0.9883 -0.4605  0.5051
   8823SM  H14G11856   2.476   1.647   4.965  1.6483  0.6448 -0.2288
   8823SM  C15F11857   2.372   1.750   5.129 -0.1460  0.1698 -0.0068
   8823SM  H15F11858   2.398   1.663   5.193  1.8903  0.8298  0.1155
   8823SM  H15G11859   2.269   1.730   5.092 -0.2892 -0.9283  0.8960
   8823SM  C16F11860   2.370   1.870   5.225 -0.3455 -0.1788 -0.0631
   8823SM  H16F11861   2.338   1.956   5.162 -1.9691  1.2338  2.5226
   8823SM  H16G11862   2.469   1.890   5.273 -1.1918  1.1548  1.2348
   8823SM  C17F11863   2.266   1.858   5.337  0.2429  0.0082 -0.2820
   8823SM  H17F11864   2.292   1.775   5.407 -1.1995 -0.6935 -0.5517
   8823SM  H17G11865   2.171   1.816   5.299 -0.1848 -1.4829  2.1894
   8823SM  C18F11866   2.263   1.986   5.414 -0.4018 -0.1949  0.6172
   8823SM  H18F11867   2.188   1.972   5.495  1.3268  2.3097  2.8168
   8823SM  H18G11868   2.244   2.074   5.348  0.2611 -1.3528 -1.1975
   8823SM  C19F11869   2.399   2.010   5.486  0.0800 -0.2992 -0.0783
   8823SM  H19F11870   2.475   2.008   5.405  0.1898  1.9718 -0.0872
   8823SM  H19G11871   2.415   1.924   5.556 -1.0161  0.1811  0.8000
   8823SM  C20F11872   2.410   2.151   5.564 -0.1188  0.6308  0.7244
   8823SM  H20F11873   2.333   2.146   5.644 -0.1164 -1.3318  0.6416
   8823SM  H20G11874   2.395   2.232   5.489 -0.4701  1.9356  2.1548
   8823SM  C21F11875   2.545   2.160   5.630 -0.6576  0.0560  0.2708
   8823SM  H21F11876   2.550   2.258   5.683 -0.9764  0.3988 -0.3271
   8823SM  H21G11877   2.605   2.161   5.536 -1.4044  1.6290 -0.2200
   8823SM  C22F11878   2.587   2.052   5.727  0.6921 -1.0321  0.4079
   8823SM  H22F11879   2.595   1.950   5.682 -0.6595 -1.0254  0.1041
   8823SM  H22G11880   2.507   2.051   5.804  0.8787 -3.0400  0.6269
   8823SM  C23F11881   2.725   2.064   5.799  1.0230  0.0094  0.3090
   8823SM  H23F11882   2.806   2.075   5.725  2.5202 -1.1264  1.7120
   8823SM  H23G11883   2.740   1.973   5.862  0.5970 -0.0580  0.3218
   8823SM  H23H11884   2.711   2.156   5.859  1.1296  0.7741 -0.8065
   8923SM     N11885   6.077   2.112   2.168  0.1718  0.6889  0.1752
   8923SM   C1511886   5.971   2.197   2.103 -0.3234  0.1891 -0.3961
   8923SM  H15A11887   5.947   2.151   2.009  0.6738 -0.9283 -0.1363
   8923SM  H15B11888   6.014   2.292   2.074 -3.4450  2.2872  1.3310
   8923SM  H15C11889   5.889   2.206   2.173  2.1013  1.6177  2.5137
   8923SM   C1411890   6.027   1.973   2.169  0.3535  0.0988  0.1224
   8923SM  H14A11891   6.089   1.909   2.230 -1.5334 -1.5015  0.4688
   8923SM  H14B11892   6.025   1.929   2.070 -1.5669 -0.5934  0.4197
   8923SM  H14C11893   5.924   1.965   2.203 -0.2463 -1.2771 -1.8599
   8923SM   C1311894   6.193   2.114   2.088 -0.4403  0.4720 -0.0757
   8923SM  H13A11895   6.167   2.130   1.984 -0.8951  1.4362  0.1754
   8923SM  H13B11896   6.252   2.024   2.097  0.8212  1.3631  0.8745
   8923SM  H13C11897   6.256   2.195   2.121  0.5681 -0.7656  1.1734
   8923SM   C1211898   6.111   2.166   2.307 -0.0479  0.2557 -0.5760
   8923SM  H12A11899   6.027   2.153   2.373  2.6078  1.8234  3.5220
   8923SM  H12B11900   6.122   2.273   2.310  1.5623  0.0980  1.1020
   8923SM   C1111901   6.237   2.108   2.386  0.1025 -0.0837 -0.7393
   8923SM  H11A11902   6.211   2.000   2.395 -0.3543  0.0908  0.1976
   8923SM  H11B11903   6.247   2.162   2.482  2.2352  0.9463 -1.4857
   8923SM     P11904   6.478   2.053   2.399 -0.0635 -0.1427  0.4490
   8923SM   O1311905   6.509   1.923   2.336 -0.0178  0.5224  0.5179
   8923SM   O1411906   6.591   2.148   2.417 -0.0386  0.5999  0.2170
   8923SM   O1111907   6.429   2.017   2.543  0.2767 -0.5670  0.2453
   8923SM   O1211908   6.358   2.122   2.318 -0.0908 -0.4540 -0.6200
   8923SM   C1S11909   6.497   1.908   2.612 -0.1421  0.3458  0.3503
   8923SM   H1S11910   6.606   1.925   2.612 -0.2991  1.4107  0.5443
   8923SM   H1T11911   6.476   1.811   2.562 -0.9723 -0.6698  2.5389
   8923SM    NF11912   6.555   1.865   2.864 -0.1196  1.1400 -0.2232
   8923SM   HNF11913   6.527   1.785   2.916 -0.1272  0.1126 -1.7348
   8923SM   C2S11914   6.460   1.901   2.766  0.2470 -0.3265  0.5484
   8923SM   H2S11915   6.440   2.009   2.783  1.0443 -0.2176  0.8505
   8923SM   C3S11916   6.320   1.830   2.767  0.4821 -0.1635  0.1090
   8923SM   H3S11917   6.324   1.721   2.745 -3.0922  0.0247 -2.3133
   8923SM    O311918   6.225   1.880   2.673  1.0125 -0.3541  0.5076
   8923SM   HO311919   6.285   1.931   2.619 -1.2437  1.2205 -0.6659
   8923SM   C4S11920   6.253   1.833   2.905 -0.1515 -0.6828  1.0349
   8923SM   H4S11921   6.278   1.748   2.970 -1.5713 -0.8177  1.4282
   8923SM   C5S11922   6.171   1.936   2.942  0.5978 -0.2285 -0.8894
   8923SM   H5S11923   6.161   2.020   2.871  0.6054  0.7344  0.2049
   8923SM   C6S11924   6.117   1.965   3.086 -0.3409  0.4107 -0.2224
   8923SM   H6S11925   6.008   1.942   3.096 -0.7175  2.1903  0.0293
   8923SM   H6T11926   6.116   2.075   3.103 -0.3779  0.6743 -1.8222
   8923SM   C7S11927   6.197   1.907   3.202  0.2858 -0.2944 -0.1447
   8923SM   H7S11928   6.303   1.937   3.186  0.4671 -0.8345  0.0199
   8923SM   H7T11929   6.187   1.798   3.218  0.5404 -0.1426  1.0985
   8923SM   C8S11930   6.159   1.969   3.334 -0.7642 -0.1231 -0.0463
   8923SM   H8S11931   6.053   1.937   3.342 -0.3247 -2.0136 -1.0553
   8923SM   H8T11932   6.158   2.080   3.325 -0.9163 -0.1877 -1.0085
   8923SM   C9S11933   6.246   1.924   3.452  0.6557  0.1209  0.1586
   8923SM   H9S11934   6.355   1.939   3.439  1.0037 -2.0488  0.3560
   8923SM   H9T11935   6.229   1.815   3.465  0.1492  0.2613  0.7331
   8923SM  C10S11936   6.200   2.004   3.577  0.2630 -0.4833  0.7912
   8923SM  H10S11937   6.093   1.976   3.588  0.0722  0.5617  1.7119
   8923SM  H10T11938   6.213   2.114   3.578 -1.3134 -0.2396  3.3364
   8923SM  C11S11939   6.276   1.962   3.704  0.8546 -0.3962 -0.0538
   8923SM  H11S11940   6.384   1.973   3.682  0.7588  1.4256  0.3014
   8923SM  H11T11941   6.248   1.855   3.720 -0.7291 -0.3862 -2.2154
   8923SM  C12S11942   6.235   2.038   3.834 -0.8992 -0.1427  0.4107
   8923SM  H12S11943   6.243   2.147   3.817  1.6719 -0.5092 -1.3193
   8923SM  H12T11944   6.306   2.003   3.911 -0.9615 -1.9468 -0.2964
   8923SM  C13S11945   6.092   2.003   3.883 -0.7286  0.3426 -0.0230
   8923SM  H13S11946   6.046   1.967   3.789 -0.1599  0.9410 -0.5436
   8923SM  H13T11947   6.029   2.092   3.904 -3.4940 -0.3275 -4.2581
   8923SM  C14S11948   6.078   1.901   3.996 -0.3718  0.1888  0.9981
   8923SM  H14S11949   6.123   1.941   4.089  0.4884  0.2074  0.5812
   8923SM  H14T11950   6.130   1.808   3.966 -2.0560 -0.2755 -0.6468
   8923SM  C15S11951   5.928   1.873   4.025 -0.1552  0.2542  0.4246
   8923SM  H15S11952   5.869   1.848   3.935  2.3379 -0.5120 -1.1053
   8923SM  H15T11953   5.879   1.956   4.080 -2.1351 -0.4890 -0.1468
   8923SM  C16S11954   5.918   1.741   4.114  0.4860 -0.2670 -0.0690
   8923SM  H16S11955   5.988   1.663   4.077  1.0614 -0.3650  1.1754
   8923SM  H16T11956   5.818   1.697   4.094  0.1997 -0.5643  1.8448
   8923SM  C17S11957   5.952   1.766   4.257 -0.5766  0.3312 -0.1931
   8923SM  H17S11958   5.890   1.852   4.291 -2.5915 -0.7012 -1.1121
   8923SM  H17T11959   6.060   1.792   4.261 -0.6767  1.3998 -2.5329
   8923SM  C18S11960   5.937   1.642   4.341 -0.2522 -0.2831 -0.0593
   8923SM  H18S11961   5.997   1.567   4.286 -0.2705  0.2480 -0.8134
   8923SM  H18T11962   5.834   1.600   4.338  0.2615 -1.5433 -0.5042
   8923SM  H18U11963   5.982   1.650   4.442  0.3604 -1.5176 -0.2174
   8923SM   C1F11964   6.681   1.912   2.878  0.5024  0.2942 -0.7130
   8923SM    OF11965   6.717   2.003   2.810  0.0940 -0.0951  0.2394
   8923SM   C2F11966   6.774   1.851   2.979  0.4562  0.9764  0.4871
   8923SM   H2F11967   6.881   1.865   2.952  0.3551  0.8665  0.0300
   8923SM   H2G11968   6.749   1.743   2.985  0.6063  0.8766 -0.5571
   8923SM   C3F11969   6.757   1.914   3.118 -0.6308 -0.2208  0.2795
   8923SM   H3F11970   6.650   1.901   3.148 -1.1898  1.0877 -1.0235
   8923SM   H3G11971   6.770   2.023   3.102  1.5043 -0.0651  2.5610
   8923SM   C4F11972   6.876   1.881   3.215 -0.4624  1.0231  0.1618
   8923SM   H4F11973   6.970   1.869   3.157 -0.9026  0.6510 -0.4800
   8923SM   H4G11974   6.856   1.776   3.245  1.4655  0.8106  0.9086
   8923SM   C5F11975   6.887   1.958   3.346 -0.3771  0.1681 -0.0159
   8923SM   H5F11976   6.892   2.061   3.305 -0.9802 -0.4596 -1.7382
   8923SM   H5G11977   6.988   1.938   3.388  1.2106  2.7444 -2.2450
   8923SM   C6F11978   6.768   1.946   3.432  0.2342  0.2104 -1.0148
   8923SM   H6F11979   6.773   1.840   3.466  2.0746 -0.1330 -2.2342
   8923SM   H6G11980   6.675   1.970   3.376 -0.2043 -1.2030 -0.9281
   8923SM   C7F11981   6.791   2.042   3.555  0.1081  0.4136 -0.6165
   8923SM   H7F11982   6.799   2.147   3.520 -2.1366  0.6999 -0.4237
   8923SM   H7G11983   6.882   1.996   3.600  0.8043  1.2273 -1.1628
   8923SM   C8F11984   6.685   2.020   3.665  0.2468  0.5058  0.0991
   8923SM   H8F11985   6.687   1.913   3.693 -1.6065  0.8123  1.6627
   8923SM   H8G11986   6.590   2.055   3.618 -0.8224 -0.4861  1.4455
   8923SM   C9F11987   6.718   2.091   3.795  0.2083 -0.0951 -0.4294
   8923SM   H9F11988   6.710   2.201   3.778  1.7460  0.1355  0.1519
   8923SM   H9G11989   6.823   2.072   3.824 -0.1415 -2.8238 -0.7012
   8923SM  C10F11990   6.621   2.058   3.903  0.1974  0.7034 -0.3656
   8923SM  H10F11991   6.633   1.951   3.930  0.5224  0.3142 -1.9347
   8923SM  H10G11992   6.522   2.065   3.853 -0.1246 -0.4533  0.0748
   8923SM  C11F11993   6.626   2.147   4.026 -1.2145 -0.1240  0.1245
   8923SM  H11F11994   6.613   2.252   3.992  0.2101  0.4314  1.2085
   8923SM  H11G11995   6.730   2.133   4.062 -0.6222  1.0818 -1.0213
   8923SM  C12F11996   6.528   2.124   4.134  0.7249 -0.2718  0.0876
   8923SM  H12F11997   6.424   2.149   4.103  0.1861  0.6852  2.4864
   8923SM  H12G11998   6.542   2.201   4.212  0.5043 -1.2415  1.1056
   8923SM  C13F11999   6.547   1.987   4.199  0.7186  0.2884  0.4699
   8923SM  H13F12000   6.653   1.955   4.190  0.5010 -0.1871 -0.6613
   8923SM  H13G12001   6.496   1.916   4.130  2.2344  1.6497 -2.2191
   8923SM  C14F12002   6.496   1.964   4.344 -0.6755  0.1951  0.0066
   8923SM  H14F12003   6.553   2.030   4.412  0.6793 -0.5186 -0.4119
   8923SM  H14G12004   6.511   1.859   4.377  1.0549  0.6400  0.7028
   8923SM  C15F12005   6.342   1.994   4.362  0.5561  0.6115 -0.1028
   8923SM  H15F12006   6.301   1.949   4.269  3.0027 -0.4288 -0.7556
   8923SM  H15G12007   6.312   2.101   4.361  0.3271  0.5654 -1.6349
   8923SM  C16F12008   6.272   1.911   4.470 -0.5212  0.1798 -0.4614
   8923SM  H16F12009   6.297   1.803   4.465 -1.3650 -0.0567  0.3046
   8923SM  H16G12010   6.163   1.917   4.448 -0.7506  0.1035  0.5855
   8923SM  C17F12011   6.279   1.974   4.608  0.0761  0.1074  0.5374
   8923SM  H17F12012   6.269   2.085   4.614 -0.7755  0.0781 -0.1236
   8923SM  H17G12013   6.379   1.952   4.650  0.4407 -0.0160 -0.3712
   8923SM  C18F12014   6.174   1.901   4.697 -0.4235 -0.1213  1.1089
   8923SM  H18F12015   6.198   1.793   4.689 -0.4633 -0.1069  0.7583
   8923SM  H18G12016   6.072   1.924   4.658  0.4809 -1.5050 -2.4269
   8923SM  C19F12017   6.175   1.958   4.845 -0.2433 -0.0143  0.0476
   8923SM  H19F12018   6.077   1.941   4.893 -1.0166  0.1213 -1.4101
   8923SM  H19G12019   6.187   2.067   4.824 -0.6673 -0.2656 -1.6782
   8923SM  C20F12020   6.293   1.907   4.932  0.0463  0.2059 -0.1764
   8923SM  H20F12021   6.390   1.911   4.878  0.0084 -1.8004 -0.4873
   8923SM  H20G12022   6.279   1.803   4.969  2.8719  0.7224  2.7377
   8923SM  C21F12023   6.316   1.991   5.060  0.6870  0.1095 -0.2108
   8923SM  H21F12024   6.350   2.094   5.036  1.0571  0.2222  0.7356
   8923SM  H21G12025   6.413   1.951   5.097  0.1576 -0.0054  1.1058
   8923SM  C22F12026   6.198   1.996   5.164 -0.4706 -0.2825  0.0581
   8923SM  H22F12027   6.196   1.898   5.217 -0.4592 -0.3273 -0.0248
   8923SM  H22G12028   6.107   1.990   5.101  0.5134 -2.3389 -1.2695
   8923SM  C23F12029   6.196   2.102   5.271 -0.0087  0.8166 -0.3670
   8923SM  H23F12030   6.109   2.081   5.337 -0.7435  0.7975 -1.3329
   8923SM  H23G12031   6.203   2.205   5.232  0.0857  0.9175 -0.0861
   8923SM  H23H12032   6.292   2.091   5.327  1.8458 -0.3352 -3.5174
   9023SM     N12033   6.755   1.330   2.315 -0.4059  0.0497  0.1477
   9023SM   C1512034   6.790   1.183   2.309 -0.1010 -0.7185 -0.2139
   9023SM  H15A12035   6.894   1.164   2.330  0.4039  1.3808 -0.5937
   9023SM  H15B12036   6.761   1.150   2.210  0.0695  0.7618 -0.7824
   9023SM  H15C12037   6.733   1.130   2.384  1.0359 -2.0130 -0.2254
   9023SM   C1412038   6.809   1.406   2.198  0.1641  0.6317 -0.2820
   9023SM  H14A12039   6.786   1.512   2.197  1.9501  1.0456 -1.0677
   9023SM  H14B12040   6.768   1.370   2.105  1.4307 -3.7089  0.6195
   9023SM  H14C12041   6.914   1.387   2.181 -0.1630  0.2337 -2.0127
   9023SM   C1312042   6.608   1.355   2.315  0.5262 -0.3234 -0.1911
   9023SM  H13A12043   6.582   1.458   2.335 -1.4324 -0.9822  0.9943
   9023SM  H13B12044   6.562   1.304   2.399 -1.0475  0.0353 -0.7836
   9023SM  H13C12045   6.559   1.302   2.235  0.5346 -3.3832  1.6617
   9023SM   C1212046   6.816   1.392   2.446  0.4726  0.3445  0.1837
   9023SM  H12A12047   6.785   1.495   2.456 -0.4364  0.0664  0.3033
   9023SM  H12B12048   6.923   1.392   2.433  0.2417  0.2318 -2.1883
   9023SM   C1112049   6.773   1.320   2.577  0.0409 -0.3705  0.2350
   9023SM  H11A12050   6.841   1.366   2.652  1.1508 -1.7433  0.1143
   9023SM  H11B12051   6.813   1.218   2.596  0.1270 -0.3046  0.4127
   9023SM     P12052   6.578   1.468   2.664  0.1881  0.0335 -0.1427
   9023SM   O1312053   6.640   1.588   2.603 -1.0013  0.0384  0.4333
   9023SM   O1412054   6.429   1.461   2.666 -0.2325  0.2860 -0.2083
   9023SM   O1112055   6.634   1.453   2.812  0.2795 -0.6155 -0.3969
   9023SM   O1212056   6.632   1.331   2.604  0.4593  0.4395  0.4161
   9023SM   C1S12057   6.616   1.330   2.881  0.5347  0.6025 -0.1909
   9023SM   H1S12058   6.693   1.254   2.858  0.3145  0.0938  0.7299
   9023SM   H1T12059   6.515   1.289   2.860  1.2484 -1.4285  0.1606
   9023SM    NF12060   6.646   1.244   3.122 -1.0360 -0.2614  0.1566
   9023SM   HNF12061   6.571   1.202   3.173 -0.3619 -4.2550 -1.8125
   9023SM   C2S12062   6.627   1.365   3.035  0.7079  0.2360 -0.1181
   9023SM   H2S12063   6.723   1.422   3.034  2.3374 -2.3369 -1.6351
   9023SM   C3S12064   6.522   1.473   3.069  0.6869  0.5143 -0.5948
   9023SM   H3S12065   6.422   1.425   3.062  0.8083  0.1183  0.3034
   9023SM    O312066   6.514   1.589   2.989 -0.9425  0.0706  0.3994
   9023SM   HO312067   6.572   1.570   2.915 -0.9478 -1.4638  0.7531
   9023SM   C4S12068   6.535   1.515   3.212  0.0137 -0.1823 -0.3592
   9023SM   H4S12069   6.620   1.585   3.220 -0.0596 -0.2693  1.9391
   9023SM   C5S12070   6.458   1.495   3.327 -0.2321 -0.3565  0.3418
   9023SM   H5S12071   6.353   1.468   3.312 -1.0035  3.2030 -1.8608
   9023SM   C6S12072   6.523   1.538   3.458  0.2935  0.0119  0.6618
   9023SM   H6S12073   6.587   1.628   3.448 -3.2601  2.8244  1.2034
   9023SM   H6T12074   6.581   1.455   3.504  0.1275  1.2291  3.2528
   9023SM   C7S12075   6.425   1.564   3.570 -0.0606  0.5905 -0.3338
   9023SM   H7S12076   6.359   1.477   3.592  0.8450  0.0220  0.1961
   9023SM   H7T12077   6.362   1.655   3.563  2.3553  2.3116 -0.7003
   9023SM   C8S12078   6.517   1.573   3.693  0.3057 -0.0917 -0.2465
   9023SM   H8S12079   6.597   1.649   3.678 -0.1278  0.7901  1.6526
   9023SM   H8T12080   6.557   1.471   3.710  0.8705 -0.0222 -1.1163
   9023SM   C9S12081   6.430   1.612   3.820  0.2278  0.1470 -0.0426
   9023SM   H9S12082   6.348   1.539   3.833  0.5880 -0.1138  0.7916
   9023SM   H9T12083   6.385   1.712   3.804 -1.6319 -1.0150 -3.0278
   9023SM  C10S12084   6.505   1.596   3.956  0.1071 -0.0559  0.1426
   9023SM  H10S12085   6.572   1.684   3.971 -0.4824  0.8416 -1.9691
   9023SM  H10T12086   6.563   1.502   3.944 -1.1503 -0.8528  0.1550
   9023SM  C11S12087   6.402   1.587   4.063  0.6075 -0.7003 -0.1952
   9023SM  H11S12088   6.329   1.505   4.050  0.2249 -0.2598 -0.8980
   9023SM  H11T12089   6.340   1.680   4.065 -1.1718 -1.8450  0.6911
   9023SM  C12S12090   6.461   1.570   4.201  0.5367  0.7540  0.2189
   9023SM  H12S12091   6.514   1.666   4.222  0.9572  0.5067  0.2934
   9023SM  H12T12092   6.526   1.480   4.204 -1.0283 -0.4280 -0.0126
   9023SM  C13S12093   6.358   1.547   4.312  0.2266  0.2070 -0.4273
   9023SM  H13S12094   6.300   1.454   4.292  0.0917 -0.0644  1.0865
   9023SM  H13T12095   6.277   1.623   4.314 -2.1332 -2.1585  0.6622
   9023SM  C14S12096   6.428   1.532   4.448  0.2315  0.3286  0.9304
   9023SM  H14S12097   6.467   1.632   4.476 -1.4829  0.9127  1.3399
   9023SM  H14T12098   6.509   1.458   4.428 -0.3386 -0.3001  0.8792
   9023SM  C15S12099   6.339   1.486   4.562  0.1685 -0.1733  0.0689
   9023SM  H15S12100   6.298   1.387   4.533  1.3672 -0.1588 -1.8525
   9023SM  H15T12101   6.263   1.566   4.581  1.4817  0.3037  4.2883
   9023SM  C16S12102   6.416   1.480   4.698 -0.3974  0.7019 -0.1393
   9023SM  H16S12103   6.337   1.467   4.775 -1.4186  0.3445 -1.2102
   9023SM  H16T12104   6.462   1.580   4.713  2.3593 -0.1629 -2.0299
   9023SM  C17S12105   6.545   1.392   4.700  0.8985  0.0154  1.0146
   9023SM  H17S12106   6.602   1.410   4.607  1.7813  3.1563  2.0334
   9023SM  H17T12107   6.501   1.291   4.685 -1.2010  0.7729  1.5857
   9023SM  C18S12108   6.622   1.401   4.826  0.5904  0.2232  0.7483
   9023SM  H18S12109   6.695   1.317   4.820 -0.7224 -0.8715 -1.0739
   9023SM  H18T12110   6.561   1.385   4.917  0.4094  0.3191  0.6446
   9023SM  H18U12111   6.689   1.489   4.833  2.0171 -0.8584  1.0453
   9023SM   C1F12112   6.763   1.180   3.121 -0.3684  0.1449 -0.1402
   9023SM    OF12113   6.856   1.221   3.050 -0.6978  0.2244 -0.6173
   9023SM   C2F12114   6.764   1.054   3.212 -0.4725  0.5954  0.0061
   9023SM   H2F12115   6.806   0.965   3.161 -1.8322 -1.4649  2.2430
   9023SM   H2G12116   6.660   1.022   3.235 -0.7953  2.3332  1.2279
   9023SM   C3F12117   6.852   1.069   3.346  0.2129 -1.0647  0.2948
   9023SM   H3F12118   6.950   1.110   3.314 -0.1586 -0.8391 -0.6068
   9023SM   H3G12119   6.862   0.970   3.396  0.5953 -1.2972 -0.2335
   9023SM   C4F12120   6.784   1.172   3.444  0.5310  0.5622 -0.6401
   9023SM   H4F12121   6.742   1.259   3.389 -0.0976 -0.1219 -1.2697
   9023SM   H4G12122   6.856   1.207   3.520  0.3954 -1.7932  0.6716
   9023SM   C5F12123   6.666   1.109   3.523  0.7640 -0.1607 -0.3043
   9023SM   H5F12124   6.692   1.008   3.562 -1.5926 -0.6664  0.1028
   9023SM   H5G12125   6.584   1.084   3.452  0.2169  1.9075 -0.4816
   9023SM   C6F12126   6.601   1.190   3.635  0.0708 -0.1301 -0.2782
   9023SM   H6F12127   6.531   1.265   3.593 -0.4836 -0.0801  0.7202
   9023SM   H6G12128   6.690   1.242   3.677 -0.0011  0.6034 -1.0047
   9023SM   C7F12129   6.526   1.104   3.738 -0.1858  0.0371  0.6215
   9023SM   H7F12130   6.597   1.029   3.777  0.0908 -0.1777 -0.2664
   9023SM   H7G12131   6.443   1.053   3.684  0.1039  1.1610 -0.9618
   9023SM   C8F12132   6.454   1.187   3.850 -0.2245  0.5296 -0.5299
   9023SM   H8F12133   6.349   1.150   3.857 -0.3683  1.1470  0.7771
   9023SM   H8G12134   6.462   1.289   3.806  2.2279  0.2245 -0.9245
   9023SM   C9F12135   6.527   1.163   3.984  0.1449  0.4902  0.2155
   9023SM   H9F12136   6.621   1.222   3.974 -0.7947  1.6576 -3.3997
   9023SM   H9G12137   6.556   1.056   3.990  0.2510  0.5200  0.2357
   9023SM  C10F12138   6.448   1.204   4.108 -0.3095 -0.0784 -0.1621
   9023SM  H10F12139   6.342   1.188   4.080 -0.1792 -1.1501 -0.0560
   9023SM  H10G12140   6.467   1.313   4.124  1.5254 -0.5777  1.4765
   9023SM  C11F12141   6.486   1.130   4.243 -0.1312 -0.5281 -0.3695
   9023SM  H11F12142   6.494   1.020   4.228 -0.7429 -0.6408  0.0552
   9023SM  H11G12143   6.410   1.151   4.322  1.3063  1.0843  0.6535
   9023SM  C12F12144   6.620   1.184   4.294  0.1924  0.3294  0.4039
   9023SM  H12F12145   6.622   1.290   4.262  0.1746  0.5070  0.9790
   9023SM  H12G12146   6.700   1.130   4.240  1.8201  2.1763  0.8765
   9023SM  C13F12147   6.632   1.164   4.442 -0.2595  0.0434  0.0248
   9023SM  H13F12148   6.535   1.177   4.494  0.3413  2.1271  0.7265
   9023SM  H13G12149   6.700   1.243   4.482  1.1915 -1.4387  0.6186
   9023SM  C14F12150   6.674   1.023   4.481 -0.2994 -0.4606 -0.1455
   9023SM  H14F12151   6.754   0.991   4.412 -1.0457  0.8922 -1.7199
   9023SM  H14G12152   6.586   0.955   4.470 -0.3212 -0.3559 -0.6390
   9023SM  C15F12153   6.728   1.019   4.626  0.3343  0.2717  0.1630
   9023SM  H15F12154   6.655   1.051   4.703 -0.9140 -2.7708  0.3820
   9023SM  H15G12155   6.810   1.094   4.631  0.0906  0.5061  0.7040
   9023SM  C16F12156   6.790   0.885   4.674 -0.3165 -0.1230  0.1310
   9023SM  H16F12157   6.862   0.845   4.600  0.1650  0.0924  0.4759
   9023SM  H16G12158   6.710   0.810   4.695 -0.4076  0.2192  1.0681
   9023SM  C17F12159   6.861   0.910   4.805 -0.5965 -0.4265 -0.1786
   9023SM  H17F12160   6.783   0.954   4.871 -1.0930 -1.0755 -0.3205
   9023SM  H17G12161   6.946   0.980   4.792  1.4982 -3.0845 -1.9492
   9023SM  C18F12162   6.905   0.772   4.857 -0.7478  0.3931 -0.0275
   9023SM  H18F12163   6.841   0.688   4.822 -0.4307  0.8426 -1.8041
   9023SM  H18G12164   6.887   0.782   4.966 -0.5316  0.7241 -0.0197
   9023SM  C19F12165   7.053   0.745   4.829  0.7998  0.7783 -0.4735
   9023SM  H19F12166   7.118   0.828   4.863  2.6516 -0.4051 -0.9405
   9023SM  H19G12167   7.067   0.735   4.720  2.4850 -2.1318 -0.0949
   9023SM  C20F12168   7.096   0.613   4.906 -0.1309 -0.1567 -0.0253
   9023SM  H20F12169   7.086   0.638   5.014  1.0190 -1.3713  0.3794
   9023SM  H20G12170   7.200   0.596   4.872  0.6984  0.4068  2.0978
   9023SM  C21F12171   7.004   0.495   4.871  0.0621  0.5902 -0.0242
   9023SM  H21F12172   6.990   0.487   4.761 -1.1511  0.3987  0.1382
   9023SM  H21G12173   6.900   0.515   4.903 -0.0958 -0.2016 -0.0058
   9023SM  C22F12174   7.055   0.355   4.929 -0.6277 -0.0754  0.0450
   9023SM  H22F12175   7.100   0.382   5.027  1.9513 -1.9806 -0.5014
   9023SM  H22G12176   7.139   0.314   4.869 -1.1387 -0.4739 -0.4100
   9023SM  C23F12177   6.946   0.247   4.939 -0.0759  0.0034 -0.8435
   9023SM  H23F12178   6.881   0.280   5.023 -1.4974 -0.0738 -1.8775
   9023SM  H23G12179   6.991   0.150   4.971 -0.0297  0.1306 -0.5186
   9023SM  H23H12180   6.893   0.243   4.842  0.0324  1.5487 -0.9962
   9123SM     N12181   0.050   4.698   2.727  0.1516  0.2044  0.1453
   9123SM   C1512182   0.127   4.798   2.643 -0.2174  0.3897  0.2670
   9123SM  H15A12183   0.232   4.773   2.636 -0.8223 -2.5221  0.6024
   9123SM  H15B12184   0.121   4.898   2.685  2.5083  0.6393  0.2341
   9123SM  H15C12185   0.092   4.808   2.541 -0.8966  0.6220  0.5163
   9123SM   C1412186   0.065   4.565   2.659 -0.3221 -0.0533 -0.2848
   9123SM  H14A12187   0.170   4.544   2.648 -0.0190  1.4660 -0.4691
   9123SM  H14B12188   0.005   4.555   2.569 -0.3200 -0.6221 -0.2281
   9123SM  H14C12189   0.024   4.495   2.730 -1.1317  2.3043  1.6922
   9123SM   C1312190   0.124   4.706   2.858 -0.6294  0.5787  0.4290
   9123SM  H13A12191   0.221   4.658   2.856 -0.9434 -0.2584  2.3445
   9123SM  H13B12192   0.063   4.647   2.926  0.7819 -1.1324  0.2982
   9123SM  H13C12193   0.139   4.806   2.894  1.2588  1.0701 -1.5705
   9123SM   C1212194  -0.096   4.744   2.734 -0.7238  0.0409 -0.6317
   9123SM  H12A12195  -0.145   4.745   2.638 -0.3838  1.1079 -0.8119
   9123SM  H12B12196  -0.099   4.850   2.758 -2.5095  0.3445 -1.9303
   9123SM   C1112197  -0.180   4.669   2.835  0.2849 -0.1239 -0.1960
   9123SM  H11A12198  -0.284   4.709   2.844  0.5758  0.5670  0.1139
   9123SM  H11B12199  -0.124   4.672   2.931 -0.4428  0.3648  0.2212
   9123SM     P12200  -0.287   4.492   2.684 -0.3779  0.0022  0.0780
   9123SM   O1312201  -0.348   4.612   2.622  0.1494  0.5986  0.3551
   9123SM   O1412202  -0.229   4.393   2.595 -0.4573 -0.3149 -0.0445
   9123SM   O1112203  -0.402   4.417   2.759 -0.0895 -0.0753 -0.2755
   9123SM   O1212204  -0.183   4.529   2.793 -0.1655  0.3114  0.0548
   9123SM   C1S12205  -0.366   4.300   2.841 -0.4790  0.3115 -0.0709
   9123SM   H1S12206  -0.261   4.297   2.876 -0.5064 -1.1876 -0.0822
   9123SM   H1T12207  -0.383   4.207   2.783  0.7154 -0.7071  1.1439
   9123SM    NF12208  -0.403   4.188   3.053  0.0252 -0.1555  0.3095
   9123SM   HNF12209  -0.449   4.101   3.064 -0.3124 -0.1468 -0.8628
   9123SM   C2S12210  -0.454   4.291   2.964  0.2639 -0.1020 -0.7391
   9123SM   H2S12211  -0.448   4.386   3.022 -2.1705  1.4146 -2.7617
   9123SM   C3S12212  -0.603   4.269   2.915 -0.4354  0.6085  0.4110
   9123SM   H3S12213  -0.605   4.169   2.867  4.0354  0.7243 -0.4578
   9123SM    O312214  -0.642   4.357   2.804 -0.4527 -0.2783  0.4688
   9123SM   HO312215  -0.557   4.390   2.776 -1.0293  1.0760  0.2432
   9123SM   C4S12216  -0.701   4.258   3.027  0.5701  0.4524  0.0121
   9123SM   H4S12217  -0.718   4.155   3.061  0.9485  0.0800 -0.8854
   9123SM   C5S12218  -0.781   4.348   3.078 -0.2079 -0.3633 -0.3308
   9123SM   H5S12219  -0.770   4.448   3.033  0.5681 -0.6105 -0.7198
   9123SM   C6S12220  -0.886   4.329   3.182  0.2327 -0.9396  0.1525
   9123SM   H6S12221  -0.939   4.231   3.179 -0.3814 -0.6879  1.9455
   9123SM   H6T12222  -0.967   4.400   3.155 -0.0002 -1.7288 -1.4087
   9123SM   C7S12223  -0.848   4.356   3.325 -0.4384  0.0600  0.3967
   9123SM   H7S12224  -0.832   4.465   3.337 -0.8120  0.2054 -0.3629
   9123SM   H7T12225  -0.753   4.300   3.343 -0.1277  0.5262  0.2437
   9123SM   C8S12226  -0.965   4.321   3.418 -0.5359 -0.2260  0.5829
   9123SM   H8S12227  -0.951   4.212   3.435 -0.8702 -0.5076 -0.8025
   9123SM   H8T12228  -1.062   4.352   3.374  0.4849  1.2536 -0.7739
   9123SM   C9S12229  -0.948   4.404   3.545  0.4939  0.1702 -0.1628
   9123SM   H9S12230  -1.018   4.376   3.627 -1.1465  0.7824 -1.2938
   9123SM   H9T12231  -0.968   4.510   3.518  2.6233 -0.0004 -2.7418
   9123SM  C10S12232  -0.811   4.396   3.611 -0.0766  0.1281 -0.0134
   9123SM  H10S12233  -0.727   4.440   3.554  0.6444 -0.8580  0.2556
   9123SM  H10T12234  -0.782   4.289   3.620  0.9218  0.1491 -2.3980
   9123SM  C11S12235  -0.813   4.462   3.751 -0.1380  0.3729  0.1837
   9123SM  H11S12236  -0.744   4.400   3.812  0.0523 -0.4750 -0.8737
   9123SM  H11T12237  -0.917   4.455   3.789 -0.3573 -1.4149 -0.6393
   9123SM  C12S12238  -0.775   4.613   3.748  0.6714 -0.3949 -0.1740
   9123SM  H12S12239  -0.824   4.661   3.661 -1.4732  1.1425  1.7454
   9123SM  H12T12240  -0.664   4.614   3.742  0.8070 -3.8269  0.0365
   9123SM  C13S12241  -0.834   4.674   3.878  0.1371 -0.1293  0.4178
   9123SM  H13S12242  -0.815   4.609   3.966 -1.3369 -2.1310 -0.6537
   9123SM  H13T12243  -0.942   4.696   3.866  0.5234  2.9568  1.7912
   9123SM  C14S12244  -0.776   4.814   3.895  0.8981  0.1941  0.1725
   9123SM  H14S12245  -0.813   4.877   3.812 -1.2825  0.6557  1.4147
   9123SM  H14T12246  -0.666   4.828   3.892  0.6791  1.8678 -0.9763
   9123SM  C15S12247  -0.817   4.870   4.035 -0.2774 -0.1548  0.0585
   9123SM  H15S12248  -0.925   4.848   4.048 -0.5726 -0.1699 -2.1617
   9123SM  H15T12249  -0.801   4.980   4.040 -1.5183 -0.0043  2.5386
   9123SM  C16S12250  -0.756   4.804   4.156  0.5420 -0.5601 -0.4575
   9123SM  H16S12251  -0.645   4.811   4.154  0.6080 -1.0053  0.7513
   9123SM  H16T12252  -0.780   4.696   4.156  2.0419 -0.9334  0.4849
   9123SM  C17S12253  -0.803   4.860   4.296 -0.3542  0.2754  0.4618
   9123SM  H17S12254  -0.913   4.846   4.304 -0.4164 -0.1475 -0.8918
   9123SM  H17T12255  -0.770   4.966   4.301  2.4920 -0.5749  1.7182
   9123SM  C18S12256  -0.732   4.793   4.406  1.1566 -0.1580 -0.5642
   9123SM  H18S12257  -0.758   4.685   4.402 -2.5539  0.5325  0.8975
   9123SM  H18T12258  -0.755   4.835   4.506  2.1096  0.8658 -0.7597
   9123SM  H18U12259  -0.624   4.817   4.402  0.9167  1.0032 -0.3320
   9123SM   C1F12260  -0.291   4.193   3.128 -0.9364 -0.3341  0.2095
   9123SM    OF12261  -0.234   4.297   3.160 -0.2096  0.1777 -0.1813
   9123SM   C2F12262  -0.261   4.069   3.196  0.1956  0.6978 -0.6963
   9123SM   H2F12263  -0.156   4.047   3.167  0.0080 -0.4874 -0.5268
   9123SM   H2G12264  -0.321   3.982   3.165 -0.5608  0.8530  0.2863
   9123SM   C3F12265  -0.272   4.089   3.350  0.3790  0.3449  0.5589
   9123SM   H3F12266  -0.207   4.176   3.377 -1.1956  1.1336  2.0154
   9123SM   H3G12267  -0.229   4.000   3.401  0.1221 -1.5032 -2.2367
   9123SM   C4F12268  -0.420   4.111   3.392 -0.3874  0.0478 -0.1669
   9123SM   H4F12269  -0.471   4.024   3.346  0.2918 -0.5284  0.1577
   9123SM   H4G12270  -0.456   4.209   3.354 -0.8735 -0.0403  0.0586
   9123SM   C5F12271  -0.434   4.110   3.546  0.3606  0.5391 -0.7887
   9123SM   H5F12272  -0.371   4.029   3.590  0.5133  1.7608  1.3936
   9123SM   H5G12273  -0.541   4.090   3.569  0.5970 -0.9970 -0.8616
   9123SM   C6F12274  -0.392   4.235   3.625  0.8933 -0.5679  0.1769
   9123SM   H6F12275  -0.458   4.316   3.586  0.1471 -1.5537 -0.6824
   9123SM   H6G12276  -0.283   4.253   3.614  1.0899 -1.0267  1.2362
   9123SM   C7F12277  -0.415   4.214   3.773 -0.1251 -0.4550 -0.5517
   9123SM   H7F12278  -0.325   4.168   3.820 -1.1117 -0.1803  1.7348
   9123SM   H7G12279  -0.504   4.147   3.775  0.8480 -1.7919 -0.3924
   9123SM   C8F12280  -0.427   4.352   3.839  0.7979 -0.3710  0.3014
   9123SM   H8F12281  -0.501   4.418   3.787  0.8432 -1.2477 -0.9184
   9123SM   H8G12282  -0.333   4.411   3.843  0.3050  0.6768 -1.7761
   9123SM   C9F12283  -0.477   4.335   3.980  0.6211 -0.6415  0.0712
   9123SM   H9F12284  -0.407   4.279   4.044 -0.8442 -1.6248  0.8759
   9123SM   H9G12285  -0.566   4.270   3.964 -1.8022  1.9846  1.7567
   9123SM  C10F12286  -0.517   4.462   4.051  0.3835 -0.4053 -0.7414
   9123SM  H10F12287  -0.587   4.506   3.977 -1.2273 -2.1677 -0.3256
   9123SM  H10G12288  -0.435   4.536   4.063 -0.5951  0.5620  0.2596
   9123SM  C11F12289  -0.592   4.439   4.182  0.5702 -0.1640  0.0866
   9123SM  H11F12290  -0.656   4.349   4.167 -0.2854  0.3714  0.4363
   9123SM  H11G12291  -0.674   4.508   4.211  0.5335 -0.6536  1.1969
   9123SM  C12F12292  -0.501   4.417   4.306 -0.3122 -0.1301  0.2083
   9123SM  H12F12293  -0.442   4.509   4.326  0.0029  0.0940 -1.5426
   9123SM  H12G12294  -0.428   4.339   4.274 -1.1357 -0.7142 -0.2932
   9123SM  C13F12295  -0.573   4.391   4.435 -0.1172  0.1595 -0.3669
   9123SM  H13F12296  -0.637   4.299   4.431  0.4623 -0.4393  2.3968
   9123SM  H13G12297  -0.650   4.469   4.451 -1.1710 -0.7313 -0.9548
   9123SM  C14F12298  -0.487   4.365   4.561 -0.1386 -0.2286 -0.3516
   9123SM  H14F12299  -0.391   4.419   4.545  0.7678 -1.8880 -0.6965
   9123SM  H14G12300  -0.474   4.258   4.587  2.5080  0.6000  2.3804
   9123SM  C15F12301  -0.556   4.421   4.683  0.5948 -0.4975 -0.6161
   9123SM  H15F12302  -0.645   4.356   4.696  0.6662 -0.2032  1.8708
   9123SM  H15G12303  -0.595   4.525   4.673 -1.3187 -0.9923  1.0530
   9123SM  C16F12304  -0.473   4.412   4.819 -0.6986 -0.1612  0.1070
   9123SM  H16F12305  -0.544   4.445   4.897 -0.8988 -1.5401  0.5194
   9123SM  H16G12306  -0.387   4.480   4.802 -1.5832  0.8505 -0.4400
   9123SM  C17F12307  -0.424   4.268   4.866  0.3754 -1.3941  0.2156
   9123SM  H17F12308  -0.379   4.287   4.965  0.0676  2.2625 -0.2257
   9123SM  H17G12309  -0.344   4.233   4.796  2.3325  1.5855  0.7851
   9123SM  C18F12310  -0.533   4.162   4.877 -0.0790  0.8762 -0.2150
   9123SM  H18F12311  -0.590   4.158   4.781 -1.5142 -0.0329  0.6345
   9123SM  H18G12312  -0.601   4.189   4.961 -0.8387  0.5401 -0.7146
   9123SM  C19F12313  -0.465   4.029   4.916  0.4493  0.2852  0.2009
   9123SM  H19F12314  -0.416   4.032   5.016  3.5453 -1.1528 -1.1468
   9123SM  H19G12315  -0.388   3.999   4.842 -0.8462 -1.1614 -0.6361
   9123SM  C20F12316  -0.585   3.924   4.922 -0.0267 -0.4625  0.3671
   9123SM  H20F12317  -0.650   3.940   4.833  2.8010  2.9228 -1.3306
   9123SM  H20G12318  -0.646   3.962   5.007 -1.2325  0.1633 -0.7357
   9123SM  C21F12319  -0.536   3.782   4.925  1.0255 -0.4275 -0.1656
   9123SM  H21F12320  -0.607   3.723   4.986  0.0478 -0.0170 -0.8692
   9123SM  H21G12321  -0.446   3.789   4.990  1.3060  1.4269 -0.6778
   9123SM  C22F12322  -0.516   3.723   4.783 -0.5556 -0.2191 -1.0693
   9123SM  H22F12323  -0.450   3.634   4.791  0.2115  0.4984  1.2288
   9123SM  H22G12324  -0.458   3.797   4.724  1.9476 -1.2425 -0.0536
   9123SM  C23F12325  -0.637   3.664   4.713 -0.0537 -0.6283 -0.1184
   9123SM  H23F12326  -0.607   3.604   4.625  0.6167 -2.8631  1.5560
   9123SM  H23G12327  -0.709   3.740   4.675 -1.4569 -2.0596 -0.4350
   9123SM  H23H12328  -0.695   3.598   4.780 -0.9109  0.6311  0.4230
   9223SM     N12329   4.697   1.624   2.142 -0.1494 -0.4377  0.2309
   9223SM   C1512330   4.605   1.735   2.176 -0.2278  0.1054 -0.1072
   9223SM  H15A12331   4.500   1.712   2.165 -0.7045  1.1489  1.6988
   9223SM  H15B12332   4.625   1.824   2.119  0.6725 -0.7976 -1.2405
   9223SM  H15C12333   4.625   1.768   2.277  2.6171 -0.5372 -0.3948
   9223SM   C1412334   4.652   1.569   2.011 -0.4779  0.4077 -0.1381
   9223SM  H14A12335   4.563   1.509   2.023 -0.2389 -0.0765 -0.7275
   9223SM  H14B12336   4.722   1.497   1.971  0.0050 -0.6270  2.4190
   9223SM  H14C12337   4.653   1.650   1.940 -0.7561  0.0872 -0.5126
   9223SM   C1312338   4.839   1.693   2.124  0.3884 -0.2061  0.0162
   9223SM  H13A12339   4.849   1.768   2.047  0.2435  0.7424  0.9165
   9223SM  H13B12340   4.913   1.620   2.093  0.4659 -0.4381  0.7267
   9223SM  H13C12341   4.872   1.739   2.216 -1.1083 -0.7528  0.8524
   9223SM   C1212342   4.703   1.516   2.248  0.7804 -0.3055  0.1543
   9223SM  H12A12343   4.771   1.443   2.207 -1.5848 -0.6903 -3.6570
   9223SM  H12B12344   4.606   1.469   2.253 -0.3489  1.7944 -0.5401
   9223SM   C1112345   4.729   1.555   2.394  0.2806  0.2127  0.2802
   9223SM  H11A12346   4.698   1.472   2.461  0.6728 -0.6331 -0.5768
   9223SM  H11B12347   4.661   1.639   2.421  1.3756  1.0120  0.6178
   9223SM     P12348   4.978   1.501   2.405 -0.1409 -0.0246 -0.7183
   9223SM   O1312349   4.930   1.379   2.337 -0.4198 -0.2904 -0.3847
   9223SM   O1412350   5.105   1.563   2.359 -0.3344 -0.0974  0.9332
   9223SM   O1112351   4.991   1.457   2.564  0.1511 -0.2272  0.0735
   9223SM   O1212352   4.864   1.610   2.415  0.0738 -0.3939 -0.0398
   9223SM   C1S12353   4.955   1.551   2.666 -0.2137  0.3042 -0.4586
   9223SM   H1S12354   4.845   1.547   2.683 -0.2554  0.1769 -0.7490
   9223SM   H1T12355   4.984   1.655   2.641  3.8045 -0.2650  1.0946
   9223SM    NF12356   4.951   1.610   2.902  0.2206  0.4090 -0.0544
   9223SM   HNF12357   4.999   1.697   2.908  0.7150  0.3182 -2.0722
   9223SM   C2S12358   5.016   1.518   2.807  0.2106 -0.0924 -0.0990
   9223SM   H2S12359   4.991   1.413   2.833  1.6496 -0.4271  0.0091
   9223SM   C3S12360   5.173   1.537   2.799  0.5661 -0.2954 -0.1447
   9223SM   H3S12361   5.185   1.635   2.747  0.7049 -0.8235 -1.1407
   9223SM    O312362   5.238   1.449   2.713 -0.2604  0.5476 -0.0307
   9223SM   HO312363   5.163   1.400   2.678 -2.1349 -0.4136  4.5737
   9223SM   C4S12364   5.242   1.531   2.933  0.7101 -0.5171  0.5345
   9223SM   H4S12365   5.247   1.433   2.984  0.5008 -0.8573 -0.0918
   9223SM   C5S12366   5.293   1.642   2.992 -0.7328 -0.5371  1.2354
   9223SM   H5S12367   5.290   1.739   2.942  0.5585  0.0759  2.2560
   9223SM   C6S12368   5.371   1.656   3.119  0.3714 -0.3671 -0.5119
   9223SM   H6S12369   5.313   1.699   3.204  0.7706 -3.2973  1.4037
   9223SM   H6T12370   5.456   1.727   3.119  0.8184 -0.8279  1.4023
   9223SM   C7S12371   5.433   1.522   3.177  0.0556  0.0633 -0.3154
   9223SM   H7S12372   5.491   1.473   3.096 -0.6992  0.4844 -1.1177
   9223SM   H7T12373   5.351   1.451   3.199 -0.4011  0.5213 -0.5439
   9223SM   C8S12374   5.516   1.542   3.309  0.3394 -0.0738 -0.1505
   9223SM   H8S12375   5.597   1.617   3.295 -0.6167  1.1560  0.6875
   9223SM   H8T12376   5.556   1.440   3.332 -0.3107 -0.1081  0.9208
   9223SM   C9S12377   5.439   1.587   3.434 -0.3128 -1.4125 -0.4619
   9223SM   H9S12378   5.376   1.503   3.470 -2.1925  0.0124 -0.2721
   9223SM   H9T12379   5.368   1.670   3.417 -0.9632 -1.5392  1.4420
   9223SM  C10S12380   5.528   1.609   3.548 -0.3033 -0.7591 -0.1484
   9223SM  H10S12381   5.608   1.682   3.525 -1.9733  1.4313  0.5545
   9223SM  H10T12382   5.554   1.509   3.590 -1.9792 -1.8744 -1.6501
   9223SM  C11S12383   5.454   1.680   3.666 -0.1717  0.3027  0.2733
   9223SM  H11S12384   5.375   1.618   3.715  1.2221 -0.5215  1.5645
   9223SM  H11T12385   5.404   1.773   3.630 -0.0511  0.5105  0.6354
   9223SM  C12S12386   5.550   1.723   3.777 -0.9860  0.2093  0.1431
   9223SM  H12S12387   5.614   1.811   3.757  2.5400 -2.4651 -1.4147
   9223SM  H12T12388   5.613   1.631   3.781 -1.9354 -0.6073 -2.1446
   9223SM  C13S12389   5.474   1.739   3.908 -0.1268  0.3053  0.2557
   9223SM  H13S12390   5.410   1.649   3.920  1.4609 -1.0599 -0.9547
   9223SM  H13T12391   5.395   1.817   3.912  0.7178  1.1228  3.4564
   9223SM  C14S12392   5.565   1.736   4.031 -0.3076  0.5134  0.1377
   9223SM  H14S12393   5.651   1.804   4.013 -0.4184  0.7212  0.3990
   9223SM  H14T12394   5.604   1.632   4.036 -0.8231  0.3924  2.3929
   9223SM  C15S12395   5.494   1.772   4.170 -0.7450  0.4407  0.4360
   9223SM  H15S12396   5.408   1.703   4.177 -0.8170  0.3811 -0.8127
   9223SM  H15T12397   5.459   1.878   4.173  0.9675  1.0458  0.3017
   9223SM  C16S12398   5.578   1.731   4.296  0.3085 -0.2828  0.9904
   9223SM  H16S12399   5.656   1.809   4.310  0.3850 -0.1405 -0.1283
   9223SM  H16T12400   5.635   1.641   4.264 -1.3487 -0.3666 -2.1903
   9223SM  C17S12401   5.492   1.700   4.415 -0.1439 -0.1124 -0.8671
   9223SM  H17S12402   5.414   1.626   4.388  1.7249 -2.8905  0.8361
   9223SM  H17T12403   5.436   1.792   4.444  0.7898 -0.2503  1.6950
   9223SM  C18S12404   5.574   1.657   4.536  0.1714  0.2440  0.2856
   9223SM  H18S12405   5.511   1.635   4.626 -0.0738  0.9081  0.2779
   9223SM  H18T12406   5.647   1.735   4.564  1.4697 -0.0709 -2.0042
   9223SM  H18U12407   5.631   1.565   4.510  1.7049  1.8998 -2.6277
   9223SM   C1F12408   4.825   1.602   2.953 -0.2689  0.5620  0.3920
   9223SM    OF12409   4.737   1.527   2.908 -0.0895  0.0857  0.5062
   9223SM   C2F12410   4.793   1.699   3.067 -0.2640  0.6844 -0.1149
   9223SM   H2F12411   4.684   1.678   3.078 -0.6310  2.1832 -0.6116
   9223SM   H2G12412   4.806   1.805   3.036  0.5915 -0.0781 -2.6973
   9223SM   C3F12413   4.853   1.678   3.209  0.1889  0.5700 -0.7485
   9223SM   H3F12414   4.833   1.578   3.252 -1.6263  1.5517  0.8935
   9223SM   H3G12415   4.796   1.748   3.274 -2.0279  0.2289 -2.2029
   9223SM   C4F12416   4.996   1.721   3.224  0.6702  0.4156 -0.3940
   9223SM   H4F12417   5.006   1.812   3.161 -1.2609  0.2377 -1.0113
   9223SM   H4G12418   5.060   1.650   3.167 -1.8802 -1.1096 -1.5375
   9223SM   C5F12419   5.038   1.760   3.369  0.2558 -0.1013  0.1514
   9223SM   H5F12420   4.976   1.845   3.402  1.3767  0.7987  0.0154
   9223SM   H5G12421   5.145   1.789   3.373  0.3534 -0.2528 -1.0089
   9223SM   C6F12422   5.004   1.671   3.489  0.3994  0.9745 -0.1349
   9223SM   H6F12423   5.074   1.585   3.477  1.2523  1.7837 -1.0782
   9223SM   H6G12424   4.897   1.640   3.491  0.0472  2.2034  0.8292
   9223SM   C7F12425   5.036   1.731   3.620 -0.2834 -0.3361 -0.4356
   9223SM   H7F12426   4.966   1.812   3.649 -0.1026  0.6210 -2.4877
   9223SM   H7G12427   5.135   1.779   3.610  0.3469 -0.7968  2.5257
   9223SM   C8F12428   5.039   1.635   3.742 -0.3791  0.3849  0.1350
   9223SM   H8F12429   5.111   1.551   3.728 -0.4949  0.1877  0.7018
   9223SM   H8G12430   4.943   1.583   3.724  0.2939 -0.6510 -0.6235
   9223SM   C9F12431   5.056   1.704   3.872 -0.6132  0.5160  0.0582
   9223SM   H9F12432   4.974   1.778   3.885 -0.4219  0.4010  2.4405
   9223SM   H9G12433   5.149   1.765   3.870 -0.4461  0.3478  1.5289
   9223SM  C10F12434   5.061   1.612   3.991  0.5468 -0.8080 -0.7169
   9223SM  H10F12435   5.140   1.534   3.986  0.9199 -0.4468 -0.5628
   9223SM  H10G12436   4.974   1.545   4.005 -0.0414  0.4100  2.0512
   9223SM  C11F12437   5.086   1.688   4.125  0.6690 -0.3239  0.2403
   9223SM  H11F12438   4.998   1.754   4.139 -1.2077 -2.7152  0.3078
   9223SM  H11G12439   5.167   1.763   4.109  1.9568 -1.5257  0.9202
   9223SM  C12F12440   5.106   1.592   4.253  0.4390 -0.2114  0.8841
   9223SM  H12F12441   5.212   1.559   4.256  0.3301 -0.5498  1.0702
   9223SM  H12G12442   5.044   1.500   4.252  0.4520 -0.2483  2.1270
   9223SM  C13F12443   5.089   1.672   4.384  0.1007 -0.3254 -0.7897
   9223SM  H13F12444   4.981   1.696   4.398  0.1419 -0.7287  0.3076
   9223SM  H13G12445   5.141   1.769   4.376  1.2029 -0.9965 -2.2100
   9223SM  C14F12446   5.138   1.591   4.508  0.2389 -1.2490  0.4778
   9223SM  H14F12447   5.235   1.545   4.479  1.1132 -0.4595  2.0273
   9223SM  H14G12448   5.072   1.505   4.533 -0.5331 -0.4143  1.3828
   9223SM  C15F12449   5.162   1.682   4.628  0.1533 -0.3199 -0.2127
   9223SM  H15F12450   5.073   1.745   4.651  0.8011 -0.4070  2.9595
   9223SM  H15G12451   5.248   1.749   4.607  0.3098  0.6746  2.9830
   9223SM  C16F12452   5.204   1.609   4.756  0.8224  0.0070  0.0070
   9223SM  H16F12453   5.240   1.680   4.834  0.8673 -0.7052  0.6470
   9223SM  H16G12454   5.279   1.531   4.731 -0.0047 -0.4945 -0.9657
   9223SM  C17F12455   5.087   1.533   4.819 -0.7635  0.2933  0.5501
   9223SM  H17F12456   5.041   1.483   4.731  1.5572  1.4662 -1.4343
   9223SM  H17G12457   5.015   1.605   4.862 -0.4255  1.6856 -1.1272
   9223SM  C18F12458   5.138   1.437   4.925  0.1547  0.3131 -0.2561
   9223SM  H18F12459   5.183   1.482   5.015 -0.2212  0.2767 -0.0489
   9223SM  H18G12460   5.217   1.379   4.872 -0.9903 -1.4460 -0.1115
   9223SM  C19F12461   5.022   1.347   4.977 -0.0921 -0.5511 -0.3178
   9223SM  H19F12462   5.070   1.268   5.038 -0.0411  0.7685  1.4211
   9223SM  H19G12463   4.958   1.303   4.898 -1.4782 -1.4003  1.2197
   9223SM  C20F12464   4.927   1.430   5.064  0.6964 -0.3087 -0.9299
   9223SM  H20F12465   4.887   1.520   5.013 -0.8648 -0.8567 -0.7488
   9223SM  H20G12466   4.995   1.464   5.145 -1.9581 -1.3968  1.9687
   9223SM  C21F12467   4.824   1.348   5.143 -0.3244 -0.8630 -0.0180
   9223SM  H21F12468   4.785   1.394   5.236  0.4364 -0.9643  0.3591
   9223SM  H21G12469   4.888   1.266   5.184  3.1553  1.2534 -0.8570
   9223SM  C22F12470   4.698   1.298   5.064  0.1334 -0.6546 -1.2479
   9223SM  H22F12471   4.727   1.221   4.990  0.9826 -3.0356  1.3799
   9223SM  H22G12472   4.663   1.380   4.997  2.2917 -0.6894 -2.4984
   9223SM  C23F12473   4.602   1.239   5.168 -0.2013  0.1098  0.1679
   9223SM  H23F12474   4.652   1.161   5.229 -1.9787 -0.6384  0.7331
   9223SM  H23G12475   4.510   1.201   5.118  0.0672 -0.5925  0.2025
   9223SM  H23H12476   4.577   1.321   5.239  2.5834 -0.5356  2.0252
   9323SM     N12477   0.722   3.378   2.361 -0.2171 -0.4733 -0.2526
   9323SM   C1512478   0.752   3.236   2.382  0.0673  0.0334  0.6809
   9323SM  H15A12479   0.783   3.215   2.483 -0.7337 -2.3335  0.4950
   9323SM  H15B12480   0.833   3.207   2.317  1.8464  1.6693  2.0406
   9323SM  H15C12481   0.665   3.174   2.362  0.9732 -0.9321 -0.4139
   9323SM   C1412482   0.846   3.457   2.407 -0.0683 -0.2825  0.1039
   9323SM  H14A12483   0.832   3.558   2.370 -2.3102 -1.3501 -2.3571
   9323SM  H14B12484   0.936   3.417   2.364 -0.3448 -0.9129  0.0964
   9323SM  H14C12485   0.842   3.460   2.515  2.1352  0.8432  0.2210
   9323SM   C1312486   0.709   3.403   2.214  0.6675  0.0885  0.6935
   9323SM  H13A12487   0.777   3.345   2.154 -1.4018  0.3988 -2.1820
   9323SM  H13B12488   0.699   3.506   2.182  1.4275  0.3133  1.1731
   9323SM  H13C12489   0.613   3.363   2.184 -0.3275  3.0823 -0.5602
   9323SM   C1212490   0.599   3.434   2.435  0.2624 -0.1412  0.6160
   9323SM  H12A12491   0.512   3.372   2.420  1.2772 -1.6606  0.8301
   9323SM  H12B12492   0.566   3.522   2.381  0.3286 -1.6765 -2.1281
   9323SM   C1112493   0.611   3.473   2.585 -0.3759  0.3587  0.2643
   9323SM  H11A12494   0.629   3.371   2.624 -1.2058 -0.5705 -1.6744
   9323SM  H11B12495   0.509   3.509   2.608 -0.4802  1.3013 -1.4839
   9323SM     P12496   0.662   3.727   2.603  0.2709 -0.2910 -0.2402
   9323SM   O1312497   0.769   3.814   2.655  0.2592  0.0375  0.0628
   9323SM   O1412498   0.595   3.764   2.482  0.7079 -0.4113 -0.1344
   9323SM   O1112499   0.547   3.728   2.714 -0.0626 -0.1657  0.7388
   9323SM   O1212500   0.710   3.574   2.606  0.6263  0.0715 -0.0067
   9323SM   C1S12501   0.574   3.681   2.849 -0.8675  0.0223  0.0147
   9323SM   H1S12502   0.683   3.668   2.868 -0.7139 -0.1953 -0.9628
   9323SM   H1T12503   0.529   3.580   2.859  0.3040 -0.5102 -0.0033
   9323SM    NF12504   0.568   3.732   3.090  0.3893  0.1746  0.5247
   9323SM   HNF12505   0.501   3.689   3.150 -0.3658  1.5566  0.6975
   9323SM   C2S12506   0.525   3.779   2.960 -0.2677 -0.3538  0.2276
   9323SM   H2S12507   0.571   3.876   2.932 -1.2781 -0.3126 -1.4088
   9323SM   C3S12508   0.378   3.787   2.942 -0.4903 -0.0998  1.0044
   9323SM   H3S12509   0.337   3.684   2.944 -1.9631  0.4534  0.8125
   9323SM    O312510   0.333   3.837   2.818 -0.8006  0.4368  0.5348
   9323SM   HO312511   0.408   3.828   2.759 -3.2908 -2.4184 -2.6321
   9323SM   C4S12512   0.315   3.863   3.056  0.1119  1.1076 -0.3260
   9323SM   H4S12513   0.298   3.808   3.149 -2.8513  4.8117  1.5861
   9323SM   C5S12514   0.259   3.982   3.056 -0.2780 -0.0418  0.5829
   9323SM   H5S12515   0.257   4.032   2.958  1.5789 -2.1012 -0.5682
   9323SM   C6S12516   0.191   4.052   3.171 -0.2851  0.3582  0.1545
   9323SM   H6S12517   0.082   4.051   3.150 -0.1299 -1.4030 -0.7440
   9323SM   H6T12518   0.228   4.157   3.172  2.4283 -0.4956 -0.6952
   9323SM   C7S12519   0.217   3.994   3.314  0.0285 -0.2166 -0.5800
   9323SM   H7S12520   0.326   3.993   3.338  0.0216 -2.5463 -0.4252
   9323SM   H7T12521   0.188   3.887   3.323  3.0007 -1.2881 -2.3056
   9323SM   C8S12522   0.161   4.089   3.432  0.7416 -0.5985  0.4477
   9323SM   H8S12523   0.083   4.152   3.385  2.1370  0.1339 -0.9975
   9323SM   H8T12524   0.244   4.158   3.458  0.0919  0.4574 -0.2177
   9323SM   C9S12525   0.104   4.032   3.564 -0.1160 -0.3589 -0.1447
   9323SM   H9S12526   0.177   3.990   3.636  2.2975  0.3896 -1.9920
   9323SM   H9T12527   0.049   3.942   3.528  0.1124 -0.7764  0.5288
   9323SM  C10S12528   0.003   4.120   3.638 -0.3387 -0.4852 -0.3892
   9323SM  H10S12529  -0.062   4.066   3.710 -0.1661  1.0667  0.9871
   9323SM  H10T12530  -0.058   4.171   3.561  2.4660  2.5415 -0.8662
   9323SM  C11S12531   0.067   4.235   3.713  0.1772 -0.1618 -0.4292
   9323SM  H11S12532   0.122   4.302   3.644  0.4532  0.1587  0.0895
   9323SM  H11T12533   0.134   4.188   3.789 -0.2325 -0.6978 -0.3915
   9323SM  C12S12534  -0.040   4.320   3.797 -0.1725 -0.6408 -0.1796
   9323SM  H12S12535  -0.113   4.260   3.855 -0.5686  2.6843  3.1374
   9323SM  H12T12536  -0.101   4.365   3.716 -1.3416 -0.6894  0.6497
   9323SM  C13S12537   0.025   4.427   3.884  0.1908 -0.3380  0.1899
   9323SM  H13S12538   0.082   4.499   3.823  1.3586  1.6843  3.4166
   9323SM  H13T12539   0.090   4.384   3.963  0.7940  0.3475  0.0785
   9323SM  C14S12540  -0.080   4.502   3.947  0.2369  0.1999  0.5619
   9323SM  H14S12541  -0.156   4.430   3.983 -0.4178  0.1335 -0.8876
   9323SM  H14T12542  -0.123   4.569   3.870  0.5779  3.3575  2.9112
   9323SM  C15S12543  -0.031   4.598   4.049 -0.3192 -0.1640  0.0174
   9323SM  H15S12544   0.033   4.668   3.991 -1.8289  2.1265  0.9332
   9323SM  H15T12545  -0.115   4.662   4.084  0.3419  0.5895  0.2744
   9323SM  C16S12546   0.030   4.545   4.178  0.2346 -0.1111  0.0797
   9323SM  H16S12547   0.121   4.485   4.156 -0.8040 -0.8703 -2.5029
   9323SM  H16T12548  -0.039   4.476   4.231  0.8723  0.7231  2.1071
   9323SM  C17S12549   0.058   4.649   4.288 -0.9464  0.4996 -0.1075
   9323SM  H17S12550   0.065   4.579   4.374  1.3399  0.1063 -0.5401
   9323SM  H17T12551  -0.026   4.718   4.310 -0.9844  0.3975  0.0758
   9323SM  C18S12552   0.192   4.720   4.272  0.1336  0.0739 -0.0084
   9323SM  H18S12553   0.271   4.655   4.316 -0.3939  0.7786  2.1159
   9323SM  H18T12554   0.190   4.814   4.330 -1.0244  0.1846 -0.1965
   9323SM  H18U12555   0.222   4.738   4.167  0.1491 -0.5677 -0.1223
   9323SM   C1F12556   0.692   3.750   3.124  0.4701  0.0504 -0.2990
   9323SM    OF12557   0.762   3.833   3.061 -0.1713 -0.0720 -0.2195
   9323SM   C2F12558   0.754   3.673   3.236 -0.2095 -0.2842  0.0849
   9323SM   H2F12559   0.861   3.657   3.213  0.6318  2.4627  1.6309
   9323SM   H2G12560   0.697   3.578   3.240 -0.1030 -0.4860 -2.1283
   9323SM   C3F12561   0.748   3.750   3.375 -0.1167 -0.5397  0.2231
   9323SM   H3F12562   0.657   3.815   3.377  0.4001  0.1783  1.8856
   9323SM   H3G12563   0.828   3.827   3.380 -0.8703  0.3198 -0.4455
   9323SM   C4F12564   0.755   3.673   3.503  0.1685 -0.3465 -0.0362
   9323SM   H4F12565   0.850   3.616   3.501  0.4165  0.0620 -0.0825
   9323SM   H4G12566   0.674   3.598   3.518  2.7472 -3.1941  0.7310
   9323SM   C5F12567   0.758   3.774   3.626 -0.1559  0.2933  0.0587
   9323SM   H5F12568   0.729   3.719   3.718 -1.1457  0.3750 -0.1946
   9323SM   H5G12569   0.676   3.848   3.609  0.1849  0.6617  0.0063
   9323SM   C6F12570   0.893   3.841   3.649  0.5643 -0.5448 -0.6802
   9323SM   H6F12571   0.931   3.894   3.559  0.6095  0.3995 -0.1132
   9323SM   H6G12572   0.974   3.765   3.657  1.1917 -0.2638 -3.3932
   9323SM   C7F12573   0.895   3.938   3.761  0.4002 -0.0945 -0.4950
   9323SM   H7F12574   0.839   4.026   3.722  0.3811 -0.8513 -2.2501
   9323SM   H7G12575   0.993   3.983   3.789 -0.8135  2.8665 -0.6107
   9323SM   C8F12576   0.832   3.893   3.892 -0.5666  0.8746  0.3707
   9323SM   H8F12577   0.878   3.798   3.926 -0.7992  0.4824 -0.3822
   9323SM   H8G12578   0.722   3.882   3.881 -0.5406  0.8644  0.1006
   9323SM   C9F12579   0.852   3.998   3.999 -0.2165 -0.5382 -0.0180
   9323SM   H9F12580   0.815   4.100   3.975  1.0326  0.5746  2.4437
   9323SM   H9G12581   0.955   4.009   4.040 -1.7350  1.1308  3.8238
   9323SM  C10F12582   0.771   3.965   4.124 -0.3681  0.2799  0.2021
   9323SM  H10F12583   0.813   3.873   4.170 -0.0151 -0.6673 -1.8656
   9323SM  H10G12584   0.667   3.938   4.093 -0.4474  0.9581 -0.1485
   9323SM  C11F12585   0.769   4.076   4.231 -0.3630  0.1222  0.5097
   9323SM  H11F12586   0.720   4.157   4.174 -0.9424 -0.6634 -0.1339
   9323SM  H11G12587   0.870   4.114   4.259  0.6929 -0.7908 -1.8022
   9323SM  C12F12588   0.702   4.036   4.362 -0.2135 -0.3418 -0.5751
   9323SM  H12F12589   0.756   3.954   4.415  0.7692  0.2559 -0.6292
   9323SM  H12G12590   0.605   3.988   4.337  0.5817 -3.1602  1.2951
   9323SM  C13F12591   0.678   4.162   4.458  1.2812  0.7418  0.1214
   9323SM  H13F12592   0.601   4.227   4.411  1.3141  1.5178  1.0871
   9323SM  H13G12593   0.776   4.215   4.465  2.2791  0.0794 -4.9703
   9323SM  C14F12594   0.625   4.122   4.598  0.4162 -0.0886 -1.0584
   9323SM  H14F12595   0.606   4.219   4.649  2.7332  1.1216 -2.2930
   9323SM  H14G12596   0.702   4.075   4.663  0.9049 -0.2881 -1.7602
   9323SM  C15F12597   0.499   4.034   4.598  1.0232 -0.7675 -0.2191
   9323SM  H15F12598   0.520   3.932   4.559 -0.2901  0.0414 -3.4613
   9323SM  H15G12599   0.427   4.073   4.522  1.8074 -0.1499 -0.6563
   9323SM  C16F12600   0.424   4.027   4.734 -0.5586  0.1591 -0.9970
   9323SM  H16F12601   0.348   3.947   4.725 -1.8880  1.3190 -0.4085
   9323SM  H16G12602   0.370   4.123   4.747  0.2093  0.7532 -2.0762
   9323SM  C17F12603   0.520   3.989   4.851  0.2009 -0.2573  0.4231
   9323SM  H17F12604   0.597   4.066   4.875 -0.5794 -0.0517  2.4978
   9323SM  H17G12605   0.579   3.902   4.814  0.2557  0.4477 -1.2742
   9323SM  C18F12606   0.443   3.964   4.983 -0.3106  0.4739  0.4738
   9323SM  H18F12607   0.514   3.918   5.055  2.0523  2.6273 -0.3269
   9323SM  H18G12608   0.368   3.883   4.983  0.7749 -0.5628 -0.2047
   9323SM  C19F12609   0.388   4.098   5.034 -0.0124 -0.0016 -0.1507
   9323SM  H19F12610   0.304   4.125   4.967 -0.6535  2.0936  1.4020
   9323SM  H19G12611   0.468   4.172   5.010 -0.1418 -0.0601 -0.7898
   9323SM  C20F12612   0.349   4.085   5.186 -0.2089  0.0625  0.6293
   9323SM  H20F12613   0.441   4.041   5.231  0.4891  0.0290 -0.7605
   9323SM  H20G12614   0.269   4.008   5.180 -0.7718  0.7283 -1.3678
   9323SM  C21F12615   0.310   4.216   5.252  0.1617  0.3208 -0.2563
   9323SM  H21F12616   0.249   4.186   5.340 -0.9649 -0.9698 -1.4258
   9323SM  H21G12617   0.246   4.264   5.176  0.6456  0.3264 -0.6647
   9323SM  C22F12618   0.421   4.313   5.293 -0.2535 -0.0122 -0.1131
   9323SM  H22F12619   0.383   4.416   5.312 -0.9684 -0.7318  2.8766
   9323SM  H22G12620   0.493   4.308   5.208 -0.2505  1.1671 -0.1996
   9323SM  C23F12621   0.502   4.278   5.425  0.3021  0.7868 -0.1003
   9323SM  H23F12622   0.442   4.269   5.518  0.7538 -1.6385  0.0078
   9323SM  H23G12623   0.585   4.350   5.446  1.0458  0.1812 -0.9045
   9323SM  H23H12624   0.545   4.176   5.418  1.4835  1.3681 -1.8458
   9423SM     N12625   5.454   5.811   2.889  0.4081  0.0666  0.1155
   9423SM   C1512626   5.332   5.860   2.828  0.0814 -0.6618 -0.1201
   9423SM  H15A12627   5.247   5.808   2.870  1.3556 -1.2274  1.8837
   9423SM  H15B12628   5.324   5.860   2.720 -3.1096 -3.6467 -0.0691
   9423SM  H15C12629   5.317   5.962   2.861 -1.3947 -1.2700  1.1991
   9423SM   C1412630   5.566   5.899   2.852  0.6472 -0.3588  0.3223
   9423SM  H14A12631   5.569   5.911   2.745 -2.8356 -1.3005 -0.0201
   9423SM  H14B12632   5.662   5.861   2.881  0.6252  0.7728  2.0396
   9423SM  H14C12633   5.559   6.002   2.884  1.9280  0.0567 -0.6879
   9423SM   C1312634   5.442   5.812   3.030 -0.7542 -0.8730  0.2176
   9423SM  H13A12635   5.359   5.753   3.067  0.0233 -1.2733  1.3850
   9423SM  H13B12636   5.424   5.908   3.077 -1.3791 -1.1970  0.6608
   9423SM  H13C12637   5.536   5.775   3.067  1.0108  1.3253 -1.7978
   9423SM   C1212638   5.491   5.671   2.846 -0.2631 -0.1290 -0.7633
   9423SM  H12A12639   5.503   5.679   2.739  0.9694 -0.5574 -0.6816
   9423SM  H12B12640   5.416   5.596   2.867  0.5990 -1.1569 -1.2462
   9423SM   C1112641   5.629   5.613   2.900  0.3833 -0.1800 -0.3904
   9423SM  H11A12642   5.634   5.502   2.893 -0.1998 -0.2268 -0.1130
   9423SM  H11B12643   5.647   5.631   3.008  2.1798  1.7822 -0.9407
   9423SM     P12644   5.882   5.636   2.845  0.0857 -0.0091  0.3451
   9423SM   O1312645   5.884   5.491   2.821  0.0682  0.3372  0.4817
   9423SM   O1412646   5.957   5.723   2.750  0.0932  0.0113  0.0276
   9423SM   O1112647   5.918   5.671   3.004  0.0484  0.3896  0.2542
   9423SM   O1212648   5.734   5.682   2.829 -0.8490  0.9710 -0.1192
   9423SM   C1S12649   5.866   5.794   3.061 -0.0837  0.8768  0.3329
   9423SM   H1S12650   5.757   5.805   3.042  0.1641 -0.4235 -2.1575
   9423SM   H1T12651   5.921   5.875   3.009 -0.8005  0.0397 -1.8156
   9423SM    NF12652   5.850   5.924   3.274 -0.7215 -0.2381  0.1198
   9423SM   HNF12653   5.913   5.993   3.307  0.2113 -1.1186  0.2259
   9423SM   C2S12654   5.900   5.800   3.215 -0.2402  0.2038  0.1404
   9423SM   H2S12655   5.845   5.715   3.260  0.0477 -1.0678 -1.7563
   9423SM   C3S12656   6.056   5.756   3.231 -0.0398 -0.1751 -0.2969
   9423SM   H3S12657   6.124   5.815   3.165  0.4658 -0.8475 -0.3881
   9423SM    O312658   6.088   5.620   3.211 -0.5774 -0.1036 -0.1113
   9423SM   HO312659   6.017   5.585   3.157 -0.4238 -2.4328  1.0736
   9423SM   C4S12660   6.103   5.785   3.369  0.0658  0.0600 -0.0559
   9423SM   H4S12661   6.048   5.724   3.442 -1.6241 -1.3727 -2.3573
   9423SM   C5S12662   6.198   5.876   3.407 -0.1559  0.5213  0.0854
   9423SM   H5S12663   6.248   5.940   3.333  0.4576 -2.5721 -2.3955
   9423SM   C6S12664   6.244   5.884   3.546 -0.0258  0.3013 -0.4968
   9423SM   H6S12665   6.249   5.989   3.580  1.7213 -0.4178  1.7367
   9423SM   H6T12666   6.348   5.845   3.542  1.0686  2.4686  2.6272
   9423SM   C7S12667   6.183   5.793   3.652 -0.0202  0.5703 -1.0474
   9423SM   H7S12668   6.181   5.685   3.626 -2.1101  0.3159 -0.0132
   9423SM   H7T12669   6.080   5.826   3.674  0.1066 -0.8115  2.0283
   9423SM   C8S12670   6.269   5.803   3.781 -0.1624 -0.4444 -1.4886
   9423SM   H8S12671   6.276   5.911   3.809 -1.2624 -1.1108  1.8076
   9423SM   H8T12672   6.371   5.771   3.749  0.7997  1.9736 -1.1084
   9423SM   C9S12673   6.213   5.725   3.899 -0.1926 -0.1092 -0.4405
   9423SM   H9S12674   6.111   5.769   3.901 -0.6501 -1.1098 -1.0018
   9423SM   H9T12675   6.269   5.751   3.991  0.6495  1.5917 -1.3701
   9423SM  C10S12676   6.205   5.575   3.881  0.3473 -0.2456  0.4677
   9423SM  H10S12677   6.303   5.545   3.837 -0.7194 -0.2483 -2.0764
   9423SM  H10T12678   6.121   5.561   3.810  2.2643 -0.3595 -1.9194
   9423SM  C11S12679   6.181   5.492   4.008 -0.3215  0.0089  1.0527
   9423SM  H11S12680   6.281   5.483   4.056  1.0837 -2.8159 -1.9626
   9423SM  H11T12681   6.152   5.391   3.972 -2.9535  0.9628  0.2452
   9423SM  C12S12682   6.077   5.548   4.106  0.2800 -0.4602 -0.2360
   9423SM  H12S12683   5.987   5.563   4.043  0.2360 -1.7677 -0.5040
   9423SM  H12T12684   6.095   5.652   4.140 -1.9832 -0.9340  2.8003
   9423SM  C13S12685   6.067   5.468   4.237  0.8063 -0.4851  0.1405
   9423SM  H13S12686   6.165   5.492   4.282  1.7369 -0.4879 -1.7933
   9423SM  H13T12687   6.067   5.359   4.218 -2.2892 -0.5438 -0.0793
   9423SM  C14S12688   5.934   5.479   4.322 -1.0202 -0.0492 -0.0524
   9423SM  H14S12689   5.848   5.467   4.252 -0.3599 -2.7000 -0.4910
   9423SM  H14T12690   5.935   5.582   4.363  0.7858  0.0415 -0.2465
   9423SM  C15S12691   5.926   5.388   4.442  0.2531 -0.1077 -0.1980
   9423SM  H15S12692   5.902   5.286   4.407  0.2292 -0.5947  1.1604
   9423SM  H15T12693   5.838   5.415   4.503 -1.4287 -3.0954 -1.1187
   9423SM  C16S12694   6.051   5.372   4.525  0.4555 -0.4261 -0.2280
   9423SM  H16S12695   6.124   5.444   4.482  0.2560  0.6125  1.0871
   9423SM  H16T12696   6.097   5.272   4.512  1.2139 -0.0919 -0.1655
   9423SM  C17S12697   6.026   5.400   4.674  0.1692  0.8465 -0.0651
   9423SM  H17S12698   5.942   5.334   4.703  0.5057 -0.4882 -1.9646
   9423SM  H17T12699   6.000   5.507   4.689  3.1154  1.3858  2.1807
   9423SM  C18S12700   6.140   5.353   4.756  0.5181  0.2215  0.9310
   9423SM  H18S12701   6.147   5.413   4.849 -0.6703  2.9730 -0.6355
   9423SM  H18T12702   6.237   5.364   4.704 -1.4783  2.8577 -2.7037
   9423SM  H18U12703   6.120   5.246   4.782 -0.8581  0.3087  0.3445
   9423SM   C1F12704   5.722   5.948   3.279  0.5078 -0.0828  0.6563
   9423SM    OF12705   5.646   5.857   3.267  0.2027  0.5455  0.0261
   9423SM   C2F12706   5.676   6.086   3.304  0.1471 -0.2485  0.2503
   9423SM   H2F12707   5.609   6.113   3.220  0.6596 -0.4737 -0.2357
   9423SM   H2G12708   5.766   6.151   3.315  0.1016  0.0600 -1.1076
   9423SM   C3F12709   5.591   6.095   3.434  0.9183  0.2912 -0.8186
   9423SM   H3F12710   5.650   6.085   3.528  0.4537 -2.3480 -0.7314
   9423SM   H3G12711   5.520   6.009   3.438 -1.5111  2.1949  0.1501
   9423SM   C4F12712   5.518   6.226   3.430  0.1653  0.4771  0.4639
   9423SM   H4F12713   5.426   6.212   3.369  0.0900  0.2673  0.6248
   9423SM   H4G12714   5.562   6.304   3.365 -2.6896 -0.6611 -3.2265
   9423SM   C5F12715   5.474   6.277   3.567  0.5532  0.9977 -0.2096
   9423SM   H5F12716   5.415   6.371   3.559 -1.2420 -0.0508  0.1456
   9423SM   H5G12717   5.554   6.301   3.640  0.6270 -0.2519  0.1430
   9423SM   C6F12718   5.377   6.178   3.630  0.4636  0.3674  0.7226
   9423SM   H6F12719   5.412   6.074   3.617  0.1856  0.4135 -0.5537
   9423SM   H6G12720   5.278   6.174   3.579  0.2321 -1.7667  1.2540
   9423SM   C7F12721   5.357   6.220   3.779  1.1522 -0.2460  0.4813
   9423SM   H7F12722   5.394   6.323   3.799 -2.4384  1.2473  0.1245
   9423SM   H7G12723   5.416   6.153   3.844  0.8885  0.9310  2.0126
   9423SM   C8F12724   5.212   6.204   3.815  0.7064 -0.1978  0.3134
   9423SM   H8F12725   5.180   6.102   3.785  1.2978 -0.3274  0.1115
   9423SM   H8G12726   5.157   6.277   3.752  0.4873 -0.6537 -0.0314
   9423SM   C9F12727   5.188   6.226   3.966  0.8538 -0.5779 -0.6251
   9423SM   H9F12728   5.253   6.309   4.001 -1.0587 -0.1944  2.3003
   9423SM   H9G12729   5.224   6.135   4.019  0.9032  0.1104  0.5607
   9423SM  C10F12730   5.043   6.256   4.008  0.7262 -0.2812 -0.8057
   9423SM  H10F12731   4.973   6.174   3.980 -2.6676  2.2305 -0.3035
   9423SM  H10G12732   5.014   6.354   3.964 -1.2676  0.1964  1.3914
   9423SM  C11F12733   5.024   6.291   4.160 -0.3632  0.8486  0.1048
   9423SM  H11F12734   4.923   6.333   4.178 -0.9771 -0.8232  0.7439
   9423SM  H11G12735   5.099   6.371   4.175 -0.0023  1.1389 -2.7275
   9423SM  C12F12736   5.055   6.178   4.258  0.1923  0.2372 -0.4781
   9423SM  H12F12737   5.145   6.119   4.231  1.5864  2.5374 -1.1610
   9423SM  H12G12738   4.971   6.105   4.257  0.0550  0.3909 -0.4061
   9423SM  C13F12739   5.062   6.231   4.411  0.7654 -0.0971 -0.0202
   9423SM  H13F12740   4.968   6.289   4.418  0.3287 -0.2608 -3.1851
   9423SM  H13G12741   5.147   6.302   4.420 -0.5364  1.6087 -0.5760
   9423SM  C14F12742   5.084   6.118   4.507 -0.7897 -0.7104 -0.4949
   9423SM  H14F12743   5.019   6.029   4.498 -2.8810  0.4757  1.6749
   9423SM  H14G12744   5.061   6.167   4.604  2.1421  0.4008 -0.2410
   9423SM  C15F12745   5.242   6.081   4.498  0.3683  0.0068 -0.1890
   9423SM  H15F12746   5.301   6.176   4.495 -1.2638  1.1105  0.7857
   9423SM  H15G12747   5.256   6.032   4.399 -0.4026  0.6945 -0.6601
   9423SM  C16F12748   5.295   6.002   4.623 -0.6466 -0.1653 -0.1258
   9423SM  H16F12749   5.384   5.940   4.601  1.4726  2.6413 -0.0457
   9423SM  H16G12750   5.209   5.933   4.636  0.9398 -2.0446  0.8728
   9423SM  C17F12751   5.330   6.105   4.739 -0.6319  0.6575 -0.0506
   9423SM  H17F12752   5.254   6.184   4.757 -1.4007  0.1994 -1.1918
   9423SM  H17G12753   5.428   6.155   4.721  0.4545 -1.6290 -0.8571
   9423SM  C18F12754   5.359   6.020   4.874 -0.6135 -0.2276 -0.4429
   9423SM  H18F12755   5.466   5.991   4.866 -0.4921  0.2950 -0.7473
   9423SM  H18G12756   5.293   5.931   4.872  0.1510 -0.8044 -1.8538
   9423SM  C19F12757   5.335   6.105   4.998 -0.3264 -0.1043  0.5466
   9423SM  H19F12758   5.352   6.037   5.084  1.3109 -0.8982 -0.3573
   9423SM  H19G12759   5.231   6.145   4.998  0.9240  3.5134  0.4521
   9423SM  C20F12760   5.424   6.227   5.018  0.1404 -0.4637  0.2785
   9423SM  H20F12761   5.401   6.304   4.942 -0.5743  0.7687  1.6800
   9423SM  H20G12762   5.533   6.205   5.008  0.5626  2.1810 -2.4100
   9423SM  C21F12763   5.408   6.295   5.152 -0.0038 -0.6293 -0.4812
   9423SM  H21F12764   5.329   6.233   5.201 -0.9877  1.0675  0.1707
   9423SM  H21G12765   5.350   6.390   5.154 -0.3045 -0.8046  1.6595
   9423SM  C22F12766   5.539   6.316   5.228 -0.0821 -0.1241 -0.0807
   9423SM  H22F12767   5.621   6.354   5.164 -1.7113 -0.3799 -2.4511
   9423SM  H22G12768   5.561   6.216   5.271 -0.3183  0.2807  1.0426
   9423SM  C23F12769   5.518   6.406   5.356 -0.0732 -0.0553  0.5319
   9423SM  H23F12770   5.508   6.512   5.325 -0.9808 -0.0799  0.7017
   9423SM  H23G12771   5.613   6.412   5.413 -0.1332  1.7585  0.5020
   9423SM  H23H12772   5.436   6.373   5.424  0.2944  0.6280  1.3106
   9523SM     N12773   1.922   1.527   2.889  0.0308 -0.0815  0.1675
   9523SM   C1512774   2.008   1.650   2.912  0.2725 -0.0328 -0.2022
   9523SM  H15A12775   2.034   1.684   2.813 -0.4098 -0.5859 -0.5762
   9523SM  H15B12776   2.091   1.610   2.968 -0.2246 -0.5027  0.2092
   9523SM  H15C12777   1.957   1.729   2.965  1.8627 -1.6715  4.2559
   9523SM   C1412778   1.808   1.586   2.803 -0.8058  0.5515  0.1333
   9523SM  H14A12779   1.730   1.515   2.781 -0.2262  0.0111 -0.2317
   9523SM  H14B12780   1.848   1.617   2.707 -0.1132 -1.0115 -0.1151
   9523SM  H14C12781   1.757   1.668   2.850 -1.3071 -0.2493  0.9994
   9523SM   C1312782   2.002   1.428   2.808  0.5189 -0.2463  0.2627
   9523SM  H13A12783   2.018   1.476   2.712 -0.8073  2.1197  1.1453
   9523SM  H13B12784   1.951   1.333   2.802 -0.9482  0.4351  1.3918
   9523SM  H13C12785   2.094   1.420   2.863  0.4515 -0.6236  0.3185
   9523SM   C1212786   1.868   1.454   3.007 -0.7487  0.1271 -0.8517
   9523SM  H12A12787   1.805   1.371   2.978  0.3430 -1.0610  0.0823
   9523SM  H12B12788   1.799   1.512   3.065 -1.1719 -0.5520 -0.6571
   9523SM   C1112789   1.986   1.418   3.095 -0.2917  0.4606 -0.3547
   9523SM  H11A12790   2.074   1.380   3.040  0.1958  1.5240 -0.3296
   9523SM  H11B12791   1.967   1.339   3.172 -2.3172 -0.1311 -1.3842
   9523SM     P12792   1.939   1.597   3.277 -0.1178  0.1240 -0.5328
   9523SM   O1312793   2.004   1.723   3.330  0.0400 -0.0679 -0.3038
   9523SM   O1412794   1.794   1.600   3.241 -0.1528 -0.1433 -0.7667
   9523SM   O1112795   1.959   1.485   3.380  0.2823 -0.0063 -0.7095
   9523SM   O1212796   2.027   1.531   3.168 -0.5662  0.0251 -0.1257
   9523SM   C1S12797   2.079   1.477   3.458 -0.0099  0.2703  0.2154
   9523SM   H1S12798   2.138   1.569   3.477  1.9281 -1.0767  1.1624
   9523SM   H1T12799   2.140   1.405   3.398 -2.4286 -1.7461  0.0195
   9523SM    NF12800   2.152   1.458   3.699 -0.1203 -0.3657 -0.0906
   9523SM   HNF12801   2.209   1.380   3.725 -2.1113 -1.7289  0.4391
   9523SM   C2S12802   2.047   1.427   3.603  0.2439  0.6769 -0.0806
   9523SM   H2S12803   1.959   1.481   3.644  1.4308  1.9623  0.8717
   9523SM   C3S12804   2.005   1.274   3.600  0.0310 -0.6033  0.5414
   9523SM   H3S12805   2.091   1.214   3.563  0.4689  1.0007 -1.2266
   9523SM    O312806   1.910   1.242   3.500  0.1695  0.1898 -0.3082
   9523SM   HO312807   1.916   1.319   3.443  3.3983 -0.4665 -1.0782
   9523SM   C4S12808   1.967   1.223   3.744 -0.7582  0.1792 -0.0759
   9523SM   H4S12809   2.036   1.143   3.772  1.7912  2.4570  0.6435
   9523SM   C5S12810   1.859   1.256   3.816 -0.6001 -0.2637 -0.1724
   9523SM   H5S12811   1.792   1.334   3.776  1.3911  1.1589 -0.9348
   9523SM   C6S12812   1.834   1.203   3.949 -0.2242 -0.7517 -0.0775
   9523SM   H6S12813   1.749   1.131   3.953  0.6189 -1.8178 -0.8921
   9523SM   H6T12814   1.803   1.285   4.018 -2.2305 -0.2886 -1.4285
   9523SM   C7S12815   1.938   1.116   4.012 -0.2607  0.4348 -0.5723
   9523SM   H7S12816   2.038   1.164   4.021  1.2951 -2.5791 -0.4108
   9523SM   H7T12817   1.948   1.023   3.952  0.7496 -1.4481  2.2599
   9523SM   C8S12818   1.894   1.071   4.153 -0.1266  0.6548  0.4154
   9523SM   H8S12819   1.812   0.998   4.137  1.7320 -1.9790  1.9562
   9523SM   H8T12820   1.862   1.150   4.224  0.0115 -0.9317  2.3429
   9523SM   C9S12821   2.003   0.993   4.229 -0.5035 -0.0470 -0.0188
   9523SM   H9S12822   2.053   0.928   4.154 -0.6248  1.5801 -1.5559
   9523SM   H9T12823   1.947   0.925   4.297 -3.1779  0.6555 -1.3719
   9523SM  C10S12824   2.101   1.076   4.307  0.4439 -0.2260 -0.4147
   9523SM  H10S12825   2.127   1.169   4.252 -0.9332 -0.8253 -2.1524
   9523SM  H10T12826   2.194   1.015   4.318  1.3061  0.2611 -3.8019
   9523SM  C11S12827   2.050   1.115   4.445  0.3050 -0.7576  0.6446
   9523SM  H11S12828   2.001   1.031   4.499 -1.2823 -0.5176 -0.3722
   9523SM  H11T12829   1.960   1.177   4.428  0.1984 -1.1453 -0.3308
   9523SM  C12S12830   2.161   1.185   4.528  0.7885 -0.4634  0.2197
   9523SM  H12S12831   2.224   1.253   4.466  1.6409 -1.1842  0.2837
   9523SM  H12T12832   2.234   1.111   4.567 -0.1122 -0.7248  1.4815
   9523SM  C13S12833   2.099   1.269   4.639  0.3579 -0.2338  0.0441
   9523SM  H13S12834   2.077   1.206   4.727  2.5517 -0.5678  0.3934
   9523SM  H13T12835   1.998   1.307   4.611 -0.6381 -0.9815  2.3863
   9523SM  C14S12836   2.169   1.401   4.671 -0.3739 -0.1747  0.6215
   9523SM  H14S12837   2.216   1.436   4.577  1.4209 -2.1018  0.7094
   9523SM  H14T12838   2.247   1.392   4.751 -1.0274  1.6996  1.5311
   9523SM  C15S12839   2.061   1.503   4.717  0.0779  0.9240  0.3059
   9523SM  H15S12840   1.990   1.458   4.790 -0.3636 -2.0796 -1.7807
   9523SM  H15T12841   2.001   1.519   4.625  0.6343  2.2749  0.1599
   9523SM  C16S12842   2.124   1.633   4.764 -0.5709  0.6468  0.0931
   9523SM  H16S12843   2.181   1.667   4.675 -1.5010  3.0097  0.3300
   9523SM  H16T12844   2.198   1.611   4.844  1.2212 -1.1484 -1.9366
   9523SM  C17S12845   2.027   1.751   4.799  0.3386 -0.7905 -0.3238
   9523SM  H17S12846   2.091   1.836   4.832  1.4634 -1.7835  0.1139
   9523SM  H17T12847   1.967   1.720   4.887 -1.9329 -1.7993 -2.1214
   9523SM  C18S12848   1.934   1.808   4.689 -0.0284  0.4724  0.0735
   9523SM  H18S12849   1.867   1.881   4.739 -1.7724 -2.2070  1.9517
   9523SM  H18T12850   1.867   1.727   4.651  0.4994  0.5114 -0.9758
   9523SM  H18U12851   1.990   1.840   4.599 -0.4825  1.3261  0.0882
   9523SM   C1F12852   2.180   1.575   3.751  0.1424 -0.1726  0.3552
   9523SM    OF12853   2.117   1.675   3.710 -0.6547 -0.2783  0.1601
   9523SM   C2F12854   2.285   1.575   3.858 -0.6385  0.2586 -0.4591
   9523SM   H2F12855   2.361   1.643   3.816 -0.8924 -1.3560 -3.8690
   9523SM   H2G12856   2.329   1.473   3.862  1.9560  1.2249 -2.1374
   9523SM   C3F12857   2.246   1.624   4.000 -0.0264  0.1472 -0.0774
   9523SM   H3F12858   2.178   1.712   3.997  0.4341  0.6311  1.9787
   9523SM   H3G12859   2.339   1.650   4.055 -0.5637 -0.8788  1.3637
   9523SM   C4F12860   2.156   1.524   4.067 -0.2340  1.1214  0.2811
   9523SM   H4F12861   2.209   1.429   4.087 -0.1614  0.6239 -1.9608
   9523SM   H4G12862   2.077   1.491   3.995  0.0203  1.3313 -0.0994
   9523SM   C5F12863   2.085   1.593   4.184 -1.0525  0.3737 -0.1954
   9523SM   H5F12864   2.024   1.683   4.162 -0.6547  0.8158  0.4881
   9523SM   H5G12865   2.177   1.628   4.235 -0.5628 -0.7285 -0.2961
   9523SM   C6F12866   2.000   1.503   4.281 -0.5998  0.2745  0.6025
   9523SM   H6F12867   2.026   1.529   4.386  1.3915 -0.0015  0.2113
   9523SM   H6G12868   2.024   1.398   4.253 -1.3166  0.4982 -0.9575
   9523SM   C7F12869   1.851   1.521   4.249  0.1163  0.6121  0.5438
   9523SM   H7F12870   1.825   1.521   4.141  2.3440  2.3192 -0.0835
   9523SM   H7G12871   1.844   1.626   4.286  3.3586  0.6546  1.3628
   9523SM   C8F12872   1.754   1.418   4.321  0.5123 -1.1404  0.0448
   9523SM   H8F12873   1.757   1.441   4.430 -0.4650 -1.2370  0.1043
   9523SM   H8G12874   1.772   1.310   4.306 -0.3883 -1.2406 -0.3640
   9523SM   C9F12875   1.608   1.454   4.279 -0.0565  0.6223  0.1096
   9523SM   H9F12876   1.610   1.446   4.168  1.8705  0.2157  0.1336
   9523SM   H9G12877   1.593   1.557   4.316  1.2099  0.2660  1.7685
   9523SM  C10F12878   1.505   1.374   4.351 -0.0537  0.5677  0.4207
   9523SM  H10F12879   1.553   1.344   4.446 -0.8703 -0.2099  0.5966
   9523SM  H10G12880   1.490   1.285   4.286 -0.5300  1.8876 -1.3828
   9523SM  C11F12881   1.362   1.440   4.374  0.2147  1.1041 -0.8682
   9523SM  H11F12882   1.318   1.473   4.277 -1.8757  0.3739 -0.2103
   9523SM  H11G12883   1.377   1.524   4.444  0.8301  1.3207 -1.2526
   9523SM  C12F12884   1.270   1.340   4.449 -0.9555  0.6501 -0.2347
   9523SM  H12F12885   1.309   1.315   4.550 -1.2996  1.4391  0.1065
   9523SM  H12G12886   1.265   1.243   4.394  0.9912 -0.6049  1.6807
   9523SM  C13F12887   1.131   1.393   4.459  0.0951 -0.1110 -0.0070
   9523SM  H13F12888   1.069   1.304   4.482 -0.4478  0.2237 -0.1432
   9523SM  H13G12889   1.086   1.424   4.362 -2.3779  0.3111  1.2059
   9523SM  C14F12890   1.119   1.500   4.571 -0.9170 -0.0758  0.3120
   9523SM  H14F12891   1.154   1.597   4.531  1.0546 -1.0847 -0.5783
   9523SM  H14G12892   1.194   1.466   4.645 -0.0953 -2.4303 -1.4685
   9523SM  C15F12893   0.970   1.501   4.623 -0.6227  0.2708  0.6042
   9523SM  H15F12894   0.931   1.398   4.611 -0.6625  0.5774 -2.7306
   9523SM  H15G12895   0.921   1.567   4.548 -0.9087  1.1054  1.5001
   9523SM  C16F12896   0.967   1.538   4.770 -0.1968 -0.3911 -0.7682
   9523SM  H16F12897   1.056   1.501   4.825 -0.5059 -0.5447 -0.3643
   9523SM  H16G12898   0.879   1.486   4.815  0.5781 -1.7366 -0.7512
   9523SM  C17F12899   0.957   1.692   4.787  0.1675  0.0492 -0.5802
   9523SM  H17F12900   0.910   1.724   4.692  1.4190  1.2976 -0.8145
   9523SM  H17G12901   1.063   1.726   4.776  0.6410  0.0080  2.8332
   9523SM  C18F12902   0.882   1.741   4.911 -0.2670  0.6981 -0.9399
   9523SM  H18F12903   0.905   1.849   4.923 -1.4283  0.9118 -0.5092
   9523SM  H18G12904   0.938   1.686   4.990 -0.2527  0.2743 -1.2432
   9523SM  C19F12905   0.731   1.705   4.923  0.0861 -0.0187  0.1091
   9523SM  H19F12906   0.728   1.596   4.941  2.1578 -0.1105  0.0803
   9523SM  H19G12907   0.697   1.738   4.822  2.8839  1.3500 -0.4749
   9523SM  C20F12908   0.650   1.782   5.041 -0.4964 -0.5863  0.2031
   9523SM  H20F12909   0.663   1.892   5.036 -0.2746 -0.6509 -1.4813
   9523SM  H20G12910   0.684   1.746   5.140 -0.0782  0.4873  0.4662
   9523SM  C21F12911   0.493   1.754   5.027 -0.2750 -0.5397  0.5879
   9523SM  H21F12912   0.464   1.658   5.075 -1.3734  0.2201  1.5069
   9523SM  H21G12913   0.478   1.741   4.918 -0.9854  1.3904  0.4103
   9523SM  C22F12914   0.400   1.855   5.082 -0.3971  0.1416  0.3106
   9523SM  H22F12915   0.300   1.822   5.047  0.7825 -2.3530 -0.9943
   9523SM  H22G12916   0.436   1.953   5.045  1.2486 -0.9221 -1.0958
   9523SM  C23F12917   0.378   1.849   5.233 -0.0891  0.7462  0.0750
   9523SM  H23F12918   0.370   1.743   5.265  0.7785  1.0850  1.5340
   9523SM  H23G12919   0.286   1.902   5.265  0.4482  1.5634  0.3323
   9523SM  H23H12920   0.460   1.896   5.293 -0.9258  0.2303  1.6716
   9623SM     N12921   4.375   1.067   2.790  0.2496  0.4892 -0.1624
   9623SM   C1512922   4.379   1.182   2.885 -0.3657 -0.2467  0.3706
   9623SM  H15A12923   4.422   1.271   2.840 -1.8867  0.6582  0.6329
   9623SM  H15B12924   4.422   1.168   2.983 -1.0660  0.6507  0.8221
   9623SM  H15C12925   4.277   1.201   2.915 -0.0017  0.1798  1.4067
   9623SM   C1412926   4.265   1.082   2.685  0.2086 -0.3965 -0.0383
   9623SM  H14A12927   4.293   1.156   2.611 -0.6244 -1.2903 -1.3044
   9623SM  H14B12928   4.176   1.128   2.727 -0.9871 -2.8247  0.2593
   9623SM  H14C12929   4.232   0.988   2.643 -2.0290  1.1261 -1.9918
   9623SM   C1312930   4.501   1.051   2.720 -0.7984 -0.2019 -0.4371
   9623SM  H13A12931   4.510   1.116   2.634 -0.2750 -1.6166 -1.4892
   9623SM  H13B12932   4.507   0.956   2.670 -0.7953 -0.0440 -0.7404
   9623SM  H13C12933   4.579   1.061   2.795 -0.1681 -2.3959 -0.7448
   9623SM   C1212934   4.355   0.943   2.868  0.2341  0.2511  0.5844
   9623SM  H12A12935   4.367   0.857   2.803 -0.1008  0.8527 -0.3069
   9623SM  H12B12936   4.255   0.931   2.906  0.3269 -0.7751  0.5217
   9623SM   C1112937   4.459   0.929   2.986 -0.2714  0.0476  0.0109
   9623SM  H11A12938   4.551   0.979   2.948 -1.1889  2.1665  0.4943
   9623SM  H11B12939   4.477   0.820   3.003 -0.8340  0.0400  0.5562
   9623SM     P12940   4.319   0.933   3.200  0.3129  0.0077  0.1962
   9623SM   O1312941   4.271   1.037   3.286  0.5406 -0.0174 -0.5941
   9623SM   O1412942   4.213   0.861   3.121 -0.2312 -0.1555  0.3998
   9623SM   O1112943   4.399   0.832   3.289 -0.9545 -0.1252  0.0060
   9623SM   O1212944   4.423   1.003   3.099 -0.2074 -0.2506  0.0706
   9623SM   C1S12945   4.524   0.872   3.343  0.5030 -0.3082 -0.4192
   9623SM   H1S12946   4.536   0.982   3.345  2.5718 -0.4796 -0.9341
   9623SM   H1T12947   4.605   0.840   3.274  2.4059  3.0312  0.0428
   9623SM    NF12948   4.684   0.895   3.533  0.3579  0.2721 -0.0368
   9623SM   HNF12949   4.775   0.858   3.515 -0.5894 -3.0726  1.2374
   9623SM   C2S12950   4.568   0.824   3.488 -0.5438  0.7861 -0.1002
   9623SM   H2S12951   4.488   0.839   3.564  1.2032 -0.5544  2.1572
   9623SM   C3S12952   4.592   0.669   3.486 -0.3428  0.3392  0.3119
   9623SM   H3S12953   4.683   0.658   3.424 -0.4277 -2.0873  0.5162
   9623SM    O312954   4.499   0.592   3.410 -0.2529 -0.1366 -0.0460
   9623SM   HO312955   4.443   0.659   3.371 -0.0538 -0.0923 -0.2618
   9623SM   C4S12956   4.622   0.596   3.623  0.7099  0.0304  0.3101
   9623SM   H4S12957   4.556   0.629   3.705 -2.6750  3.0518 -3.2394
   9623SM   C5S12958   4.718   0.507   3.641  0.1717 -0.5340  0.2436
   9623SM   H5S12959   4.792   0.487   3.562  0.2920 -0.2380  0.2846
   9623SM   C6S12960   4.752   0.446   3.770 -0.0292 -0.4522  1.0493
   9623SM   H6S12961   4.773   0.339   3.750  2.8973  0.7117 -3.5645
   9623SM   H6T12962   4.670   0.452   3.845 -1.2248  1.9154 -0.3106
   9623SM   C7S12963   4.866   0.523   3.814 -0.0964  0.1508 -0.3696
   9623SM   H7S12964   4.849   0.633   3.823  0.3469  0.1956 -0.0566
   9623SM   H7T12965   4.953   0.506   3.748  1.3827 -0.8335  1.7262
   9623SM   C8S12966   4.915   0.484   3.954 -0.3158  0.1337  0.1501
   9623SM   H8S12967   5.016   0.521   3.980  0.5917 -1.4100 -0.9734
   9623SM   H8T12968   4.922   0.373   3.962  0.0191  0.1329 -0.1404
   9623SM   C9S12969   4.831   0.528   4.066  0.2269  0.3872 -0.6666
   9623SM   H9S12970   4.777   0.624   4.057 -2.2196 -0.7285  0.9637
   9623SM   H9T12971   4.902   0.558   4.146  0.0013  2.2711 -1.1235
   9623SM  C10S12972   4.744   0.414   4.128 -0.5480 -0.2097 -0.5664
   9623SM  H10S12973   4.815   0.360   4.194  0.0568  1.8530  0.5450
   9623SM  H10T12974   4.703   0.356   4.042  1.0900  2.6004 -3.4609
   9623SM  C11S12975   4.631   0.461   4.219  0.0277 -0.5431 -0.3709
   9623SM  H11S12976   4.570   0.377   4.257  0.4409 -0.1771  1.1675
   9623SM  H11T12977   4.560   0.523   4.160  0.9302  0.7285 -0.1861
   9623SM  C12S12978   4.683   0.522   4.351  0.4216  0.2124 -0.3482
   9623SM  H12S12979   4.720   0.620   4.314  2.6740 -0.7139 -0.7074
   9623SM  H12T12980   4.781   0.488   4.390  1.0852  0.8898 -1.3719
   9623SM  C13S12981   4.587   0.526   4.473  0.0505  0.4839 -0.0791
   9623SM  H13S12982   4.565   0.425   4.514  3.2054  0.4943  1.9489
   9623SM  H13T12983   4.492   0.570   4.435 -0.2792  0.0859  0.2748
   9623SM  C14S12984   4.637   0.613   4.586 -0.8390  0.7014  0.3363
   9623SM  H14S12985   4.714   0.685   4.550  2.2479 -2.5618 -0.1766
   9623SM  H14T12986   4.713   0.550   4.638  0.6351 -0.0256 -2.5025
   9623SM  C15S12987   4.530   0.668   4.677  0.1629 -0.1585 -0.0448
   9623SM  H15S12988   4.498   0.574   4.727 -3.3596  0.7725 -0.2734
   9623SM  H15T12989   4.446   0.695   4.608 -0.6823  0.5818  1.2401
   9623SM  C16S12990   4.563   0.781   4.770  0.2224 -0.4568  0.0433
   9623SM  H16S12991   4.616   0.864   4.719 -1.1005  0.8884  0.7663
   9623SM  H16T12992   4.640   0.745   4.842 -0.3546 -1.6952  0.0721
   9623SM  C17S12993   4.437   0.830   4.843  0.5279  0.6614  0.1425
   9623SM  H17S12994   4.376   0.740   4.865 -1.3391  2.0790  1.0446
   9623SM  H17T12995   4.387   0.903   4.775  2.2575  2.4336  0.6879
   9623SM  C18S12996   4.468   0.891   4.985 -0.8178 -0.2958  0.4918
   9623SM  H18S12997   4.532   0.818   5.040 -0.4650  0.2620  0.8296
   9623SM  H18T12998   4.378   0.895   5.050 -0.4413 -0.9189  1.0609
   9623SM  H18U12999   4.505   0.994   4.969 -2.5181  0.0563 -1.6598
   9623SM   C1F13000   4.676   1.018   3.594 -0.0949  0.7157  0.5507
   9623SM    OF13001   4.564   1.063   3.606 -0.2401 -0.4175 -0.1613
   9623SM   C2F13002   4.805   1.082   3.641  0.0889 -0.1234  0.0767
   9623SM   H2F13003   4.883   1.062   3.564  0.6417 -0.6323  0.7598
   9623SM   H2G13004   4.853   1.044   3.734  1.7572  3.1193  0.6903
   9623SM   C3F13005   4.795   1.240   3.654 -0.7387  0.4331  0.6057
   9623SM   H3F13006   4.746   1.276   3.562 -0.7648  0.9149  0.8070
   9623SM   H3G13007   4.900   1.277   3.650 -0.8736  0.6933 -1.0632
   9623SM   C4F13008   4.709   1.298   3.767  0.4855 -0.0445 -0.4168
   9623SM   H4F13009   4.607   1.278   3.728 -0.2605  0.5075  1.1717
   9623SM   H4G13010   4.723   1.408   3.770 -0.8223  0.2572 -2.6435
   9623SM   C5F13011   4.735   1.243   3.907 -0.4982 -0.0091  1.3224
   9623SM   H5F13012   4.686   1.147   3.933  2.2154 -1.1804  2.4872
   9623SM   H5G13013   4.683   1.313   3.976 -1.1083  0.8178  0.0738
   9623SM   C6F13014   4.884   1.246   3.957 -0.3341 -0.2793  0.5947
   9623SM   H6F13015   4.930   1.345   3.937 -2.1964  0.5824  0.4268
   9623SM   H6G13016   4.947   1.163   3.917  0.3550 -0.0402  1.1571
   9623SM   C7F13017   4.891   1.232   4.101  0.2816 -0.4252  0.2488
   9623SM   H7F13018   4.804   1.177   4.143  0.3409  0.5355  1.6850
   9623SM   H7G13019   4.880   1.336   4.137 -0.3561 -0.2375 -0.4705
   9623SM   C8F13020   5.021   1.165   4.158  0.6125 -0.3072  0.0074
   9623SM   H8F13021   5.063   1.230   4.238 -0.8262 -1.5529  1.8734
   9623SM   H8G13022   5.090   1.167   4.071 -1.1835 -0.2061 -1.4862
   9623SM   C9F13023   4.999   1.030   4.211 -0.2598 -0.7059  0.9343
   9623SM   H9F13024   4.968   0.965   4.127  0.7091  1.2263 -1.0063
   9623SM   H9G13025   4.922   1.025   4.292 -1.0409 -1.6612  0.1566
   9623SM  C10F13026   5.115   0.963   4.269  0.3641 -0.4756 -0.6138
   9623SM  H10F13027   5.142   0.996   4.372 -0.0548  1.0910 -0.9776
   9623SM  H10G13028   5.206   0.981   4.208  0.4097  0.8777 -0.1801
   9623SM  C11F13029   5.099   0.811   4.291  0.0530  0.7514  0.0826
   9623SM  H11F13030   5.089   0.758   4.193  2.5942 -0.2112  0.2699
   9623SM  H11G13031   5.016   0.786   4.360  1.7432  0.8192  2.2302
   9623SM  C12F13032   5.222   0.756   4.355  0.2013  0.3355  0.1119
   9623SM  H12F13033   5.240   0.788   4.460  0.5311  0.7759 -0.0790
   9623SM  H12G13034   5.314   0.777   4.296  1.2754 -1.7388  0.9203
   9623SM  C13F13035   5.222   0.600   4.375  0.2118  0.1871 -0.2578
   9623SM  H13F13036   5.189   0.559   4.277 -0.7871  1.6705 -0.5663
   9623SM  H13G13037   5.154   0.587   4.462  1.8994  0.6512  1.2032
   9623SM  C14F13038   5.361   0.538   4.417  0.5149  0.3477  0.9300
   9623SM  H14F13039   5.353   0.452   4.487  1.1615 -0.1010  0.4584
   9623SM  H14G13040   5.405   0.628   4.465  1.1610  1.0187 -0.8370
   9623SM  C15F13041   5.453   0.503   4.295  0.5356 -0.4015 -0.1476
   9623SM  H15F13042   5.552   0.504   4.347  0.6210  0.4989 -0.3264
   9623SM  H15G13043   5.446   0.591   4.228 -0.1562 -0.6910 -0.4632
   9623SM  C16F13044   5.415   0.377   4.218  0.0222  0.3051 -0.1021
   9623SM  H16F13045   5.306   0.372   4.194 -0.2419 -0.0908  1.0908
   9623SM  H16G13046   5.438   0.289   4.282  1.0096 -0.6713 -1.7660
   9623SM  C17F13047   5.495   0.354   4.091  0.1819 -0.7298 -0.5665
   9623SM  H17F13048   5.455   0.262   4.044  0.7845 -0.9659 -0.6298
   9623SM  H17G13049   5.604   0.343   4.109  0.3534  0.3168 -0.9184
   9623SM  C18F13050   5.466   0.464   3.983 -0.4361 -0.0966 -0.0836
   9623SM  H18F13051   5.505   0.423   3.888  0.6185 -0.7039  0.5885
   9623SM  H18G13052   5.508   0.565   4.004 -3.7243  1.1185  1.5217
   9623SM  C19F13053   5.319   0.497   3.967 -0.2127 -0.3830  0.4232
   9623SM  H19F13054   5.287   0.535   4.066  1.9837 -2.0039  1.8679
   9623SM  H19G13055   5.261   0.404   3.952 -1.3538  0.4191 -0.2218
   9623SM  C20F13056   5.275   0.602   3.860 -0.4103  0.2691  0.4921
   9623SM  H20F13057   5.165   0.616   3.862 -0.6228 -1.1896  0.0360
   9623SM  H20G13058   5.318   0.573   3.762  4.3056  2.6538  1.5466
   9623SM  C21F13059   5.325   0.743   3.891  0.5195 -0.2240  0.6101
   9623SM  H21F13060   5.434   0.740   3.868  0.6462 -0.2767  1.2105
   9623SM  H21G13061   5.309   0.774   3.996  2.0225  0.2227  0.7323
   9623SM  C22F13062   5.257   0.851   3.800 -0.2689  0.2009 -0.6023
   9623SM  H22F13063   5.231   0.812   3.699  0.0867 -1.5604 -0.0565
   9623SM  H22G13064   5.332   0.928   3.772 -3.8265  2.9655 -3.4245
   9623SM  C23F13065   5.129   0.910   3.849 -0.8351 -0.1877  0.0863
   9623SM  H23F13066   5.139   0.946   3.954  0.7321 -2.0263  0.6371
   9623SM  H23G13067   5.042   0.842   3.841 -0.8097 -0.2067 -0.0241
   9623SM  H23H13068   5.090   0.995   3.791 -0.4421  0.2853  0.5018
   9723SM     N13069   4.768   7.103   2.788 -0.1101 -0.0463 -0.3367
   9723SM   C1513070   4.807   7.063   2.649 -0.6826 -0.4638 -0.3128
   9723SM  H15A13071   4.777   6.963   2.621 -0.2518  0.1832 -3.4348
   9723SM  H15B13072   4.914   7.071   2.637 -0.6899  0.6977  0.2746
   9723SM  H15C13073   4.768   7.124   2.568  2.5166  2.4874  0.1443
   9723SM   C1413074   4.816   7.239   2.814  0.0917  0.4306 -0.1228
   9723SM  H14A13075   4.920   7.266   2.824  0.6704 -1.5132 -0.5126
   9723SM  H14B13076   4.779   7.273   2.910  1.8950 -1.4287  1.3284
   9723SM  H14C13077   4.782   7.306   2.737 -1.3355 -0.8780 -0.7023
   9723SM   C1313078   4.621   7.107   2.797  0.5904  0.4621 -0.2629
   9723SM  H13A13079   4.584   7.112   2.898  0.0919 -0.6777 -0.3645
   9723SM  H13B13080   4.587   7.007   2.773 -0.9984 -0.1013  3.6370
   9723SM  H13C13081   4.576   7.184   2.736  0.2903 -0.6507 -1.4976
   9723SM   C1213082   4.827   7.008   2.892 -0.1120 -0.1884  0.5633
   9723SM  H12A13083   4.803   7.047   2.990 -2.3488 -3.2546  1.3810
   9723SM  H12B13084   4.934   7.005   2.880 -0.2135 -0.2973 -0.4052
   9723SM   C1113085   4.773   6.861   2.877 -0.5616  0.1829 -0.6233
   9723SM  H11A13086   4.663   6.869   2.879 -0.4876  1.4829  1.7043
   9723SM  H11B13087   4.792   6.804   2.970 -3.5087  2.5617  1.6257
   9723SM     P13088   4.981   6.761   2.749 -0.3487 -0.2992  0.3374
   9723SM   O1313089   4.992   6.663   2.640 -0.4866  1.0209  0.1002
   9723SM   O1413090   5.076   6.877   2.735  0.2445  0.0715  0.2410
   9723SM   O1113091   5.017   6.679   2.879 -0.3440 -0.4367  0.3078
   9723SM   O1213092   4.825   6.800   2.761 -0.3403 -0.2508 -0.6689
   9723SM   C1S13093   5.060   6.733   3.005  0.8575 -0.7639 -0.6142
   9723SM   H1S13094   5.039   6.842   3.009  0.0791 -0.9400  1.3245
   9723SM   H1T13095   5.171   6.731   3.013  0.7894  0.8592  1.7084
   9723SM    NF13096   5.040   6.733   3.253 -0.7410  0.1482  0.2665
   9723SM   HNF13097   5.116   6.703   3.310 -0.3874  5.2161  3.0450
   9723SM   C2S13098   5.007   6.664   3.129  0.0099  1.2043 -0.7399
   9723SM   H2S13099   4.896   6.663   3.114 -0.2393  0.4161  1.0104
   9723SM   C3S13100   5.059   6.516   3.124 -0.2037  0.6364  0.0492
   9723SM   H3S13101   5.168   6.523   3.108  0.4833 -0.6940  3.2861
   9723SM    O313102   5.015   6.434   3.015 -0.1978 -0.1135  0.4871
   9723SM   HO313103   4.979   6.495   2.950  0.1749 -1.3623 -0.9661
   9723SM   C4S13104   5.008   6.451   3.253  0.2114 -0.4707  0.7822
   9723SM   H4S13105   4.899   6.465   3.258  0.0789  0.3023 -2.4077
   9723SM   C5S13106   5.076   6.395   3.347  0.5676  0.1978  0.2241
   9723SM   H5S13107   5.185   6.380   3.343  0.5680 -0.2866  1.4692
   9723SM   C6S13108   5.023   6.330   3.472  0.2197  0.1318  0.5227
   9723SM   H6S13109   5.060   6.391   3.557  0.3958 -0.4057  0.8390
   9723SM   H6T13110   5.072   6.230   3.470  2.7907  1.3099  0.6336
   9723SM   C7S13111   4.873   6.336   3.479  0.2475 -0.1700 -0.5702
   9723SM   H7S13112   4.823   6.272   3.403 -1.3611  1.4957 -0.9991
   9723SM   H7T13113   4.829   6.433   3.448 -1.7748 -1.2342 -1.2588
   9723SM   C8S13114   4.821   6.295   3.619  0.0803  0.0920 -0.2334
   9723SM   H8S13115   4.849   6.376   3.690  0.4019  0.4824 -0.7870
   9723SM   H8T13116   4.878   6.208   3.657 -1.3037 -0.2709  1.1006
   9723SM   C9S13117   4.678   6.233   3.617 -0.2395  0.2913  0.2001
   9723SM   H9S13118   4.684   6.136   3.563 -0.2841  0.2616  0.2481
   9723SM   H9T13119   4.608   6.308   3.574 -1.2668 -0.7790 -0.0572
   9723SM  C10S13120   4.625   6.187   3.753 -0.2078  0.3326  0.1066
   9723SM  H10S13121   4.527   6.142   3.724  0.2620 -0.1751 -0.7598
   9723SM  H10T13122   4.622   6.274   3.821  0.4168  1.6425 -1.4648
   9723SM  C11S13123   4.702   6.074   3.829 -0.0164  1.0794  0.1953
   9723SM  H11S13124   4.809   6.101   3.835  0.1731  0.6574 -1.1551
   9723SM  H11T13125   4.699   5.979   3.772  0.3524 -0.0039  1.9210
   9723SM  C12S13126   4.640   6.047   3.968  0.3342  0.5098  0.0096
   9723SM  H12S13127   4.675   5.961   4.028 -3.1076  0.2672  1.8930
   9723SM  H12T13128   4.533   6.025   3.948  0.9736 -2.5741 -0.5413
   9723SM  C13S13129   4.667   6.162   4.077 -0.6005  0.1105  0.2576
   9723SM  H13S13130   4.666   6.262   4.029 -2.6302  0.7548  1.4799
   9723SM  H13T13131   4.769   6.161   4.119 -1.1152 -0.2679  1.5624
   9723SM  C14S13132   4.569   6.150   4.191 -0.1307 -1.3000  0.3938
   9723SM  H14S13133   4.589   6.053   4.240  2.1339 -0.8431  0.5021
   9723SM  H14T13134   4.462   6.156   4.163 -0.0031 -2.6313 -0.4553
   9723SM  C15S13135   4.589   6.264   4.293 -0.1453  0.1856  0.3242
   9723SM  H15S13136   4.505   6.333   4.266 -0.4350 -0.1186  0.4395
   9723SM  H15T13137   4.687   6.314   4.279 -0.4508  0.6715 -0.1344
   9723SM  C16S13138   4.569   6.220   4.435 -0.4768 -0.3810 -0.0675
   9723SM  H16S13139   4.478   6.160   4.452 -1.4372  1.0719  0.0861
   9723SM  H16T13140   4.566   6.306   4.505 -0.5987 -1.0050  0.6958
   9723SM  C17S13141   4.699   6.149   4.474  0.2689  0.0156 -0.6324
   9723SM  H17S13142   4.791   6.212   4.467  1.1511 -1.2480 -0.6233
   9723SM  H17T13143   4.703   6.055   4.415 -2.6038 -1.0306  0.6523
   9723SM  C18S13144   4.678   6.123   4.623  0.0169  0.9798 -1.2476
   9723SM  H18S13145   4.659   6.220   4.674  0.2933  0.3572  0.0837
   9723SM  H18T13146   4.765   6.071   4.667 -0.2198  0.2070 -1.6717
   9723SM  H18U13147   4.593   6.054   4.643  1.6686 -0.7490  0.2234
   9723SM   C1F13148   4.986   6.849   3.275  0.2775 -0.6500  0.4385
   9723SM    OF13149   4.908   6.901   3.196  0.7775 -0.4369  0.3637
   9723SM   C2F13150   5.026   6.916   3.402  0.9508  0.0744 -0.3374
   9723SM   H2F13151   4.967   7.010   3.410 -1.6021 -1.2824 -1.5661
   9723SM   H2G13152   5.130   6.954   3.408  0.6571  0.8383  0.0932
   9723SM   C3F13153   4.993   6.829   3.528  0.2006 -0.3105  0.2682
   9723SM   H3F13154   5.059   6.864   3.610  0.4762  2.1052 -0.9081
   9723SM   H3G13155   5.047   6.733   3.517  1.0233  0.3539 -2.2132
   9723SM   C4F13156   4.846   6.803   3.553  0.6638  0.0542  0.2866
   9723SM   H4F13157   4.802   6.771   3.456 -1.3490  0.3771  1.0542
   9723SM   H4G13158   4.784   6.894   3.568  0.2162 -0.6488  3.3440
   9723SM   C5F13159   4.802   6.704   3.662 -0.1742  0.0714 -0.0741
   9723SM   H5F13160   4.825   6.764   3.753  0.1330 -0.8966  0.4978
   9723SM   H5G13161   4.869   6.615   3.666 -0.0438  0.0541 -1.9984
   9723SM   C6F13162   4.653   6.673   3.667 -0.4490  0.0289  0.3780
   9723SM   H6F13163   4.621   6.626   3.571 -1.4089  3.5677 -1.2146
   9723SM   H6G13164   4.593   6.767   3.672 -1.7746 -0.7048 -0.9683
   9723SM   C7F13165   4.607   6.578   3.779 -0.5851 -0.4129  0.5313
   9723SM   H7F13166   4.669   6.485   3.775 -0.2134 -0.1340 -1.2149
   9723SM   H7G13167   4.502   6.546   3.764 -0.2088 -1.5379  0.1912
   9723SM   C8F13168   4.621   6.637   3.916  0.2881  0.4441 -0.7422
   9723SM   H8F13169   4.528   6.681   3.957 -0.6850 -0.9913 -1.3393
   9723SM   H8G13170   4.701   6.714   3.917  0.1711  0.5746  0.7587
   9723SM   C9F13171   4.652   6.528   4.024  0.0607 -0.7936 -0.2650
   9723SM   H9F13172   4.737   6.470   3.983  1.5283  0.1043  1.3796
   9723SM   H9G13173   4.560   6.467   4.030 -0.6844  0.2883 -0.3958
   9723SM  C10F13174   4.695   6.593   4.166  0.4665 -0.2805 -0.3749
   9723SM  H10F13175   4.695   6.497   4.222  1.0675 -0.9937 -1.5435
   9723SM  H10G13176   4.612   6.660   4.196 -0.3861 -1.4336 -0.0959
   9723SM  C11F13177   4.831   6.648   4.172  0.7834 -0.7490 -0.5588
   9723SM  H11F13178   4.859   6.736   4.111 -1.0423  0.7349  0.6155
   9723SM  H11G13179   4.899   6.565   4.143  1.4102 -0.2530 -0.5250
   9723SM  C12F13180   4.877   6.691   4.315  0.2356 -0.4088  0.0243
   9723SM  H12F13181   4.830   6.792   4.323 -1.7161 -1.3523  1.5776
   9723SM  H12G13182   4.987   6.694   4.328  0.6985 -2.7116 -2.6064
   9723SM  C13F13183   4.823   6.601   4.427  0.4577 -0.6483  0.3916
   9723SM  H13F13184   4.842   6.494   4.405 -1.6721 -0.8760 -0.6512
   9723SM  H13G13185   4.712   6.608   4.430  0.5153  0.0570  1.7511
   9723SM  C14F13186   4.894   6.635   4.559  0.6981  0.5897  0.1328
   9723SM  H14F13187   5.002   6.635   4.535  0.2083  0.4888 -2.4360
   9723SM  H14G13188   4.873   6.571   4.647 -0.9360 -0.6314 -1.0775
   9723SM  C15F13189   4.852   6.773   4.618  0.0491 -0.6113 -0.4042
   9723SM  H15F13190   4.746   6.789   4.646 -0.0001 -0.4402 -0.6850
   9723SM  H15G13191   4.859   6.846   4.535  0.9935  2.8044  2.4279
   9723SM  C16F13192   4.949   6.811   4.733 -0.0810  0.5166  1.0650
   9723SM  H16F13193   5.042   6.802   4.674 -1.2237 -0.2881 -0.7187
   9723SM  H16G13194   4.955   6.734   4.813 -1.6198  0.1939  0.9047
   9723SM  C17F13195   4.909   6.942   4.798  0.5947  0.0898  0.6091
   9723SM  H17F13196   4.806   6.933   4.839  0.2136 -1.1285 -0.5391
   9723SM  H17G13197   4.902   7.024   4.723  0.3664  0.4123  0.9776
   9723SM  C18F13198   5.006   6.985   4.911  0.2190  0.3863  0.1566
   9723SM  H18F13199   5.107   7.000   4.867  0.7010  1.0825  1.4509
   9723SM  H18G13200   5.030   6.897   4.974 -3.2365  0.5802  1.9652
   9723SM  C19F13201   4.947   7.099   4.988  0.2106 -0.3925 -0.1587
   9723SM  H19F13202   4.866   7.072   5.059 -2.0097  1.1510 -1.9534
   9723SM  H19G13203   4.898   7.163   4.911  0.1967  1.2290  1.1389
   9723SM  C20F13204   5.066   7.170   5.057 -0.8523  0.1873 -0.2920
   9723SM  H20F13205   5.144   7.179   4.979  0.7540  2.2195  1.4458
   9723SM  H20G13206   5.109   7.104   5.135 -0.0630  0.1982 -0.7072
   9723SM  C21F13207   5.019   7.306   5.106 -0.3413 -0.3676 -0.0490
   9723SM  H21F13208   4.946   7.297   5.189  1.7733  2.0044  2.2525
   9723SM  H21G13209   4.977   7.362   5.019 -0.0419  1.1887  0.7641
   9723SM  C22F13210   5.140   7.386   5.155  0.3790  0.4438  0.1054
   9723SM  H22F13211   5.117   7.495   5.164  0.6711  0.7673 -2.5041
   9723SM  H22G13212   5.215   7.400   5.075  1.7850 -1.1767  1.0824
   9723SM  C23F13213   5.203   7.343   5.285 -0.3752 -0.0607 -0.7122
   9723SM  H23F13214   5.127   7.370   5.361 -1.3839 -2.4483 -0.7656
   9723SM  H23G13215   5.291   7.407   5.306 -0.1444 -0.9904  1.3905
   9723SM  H23H13216   5.228   7.235   5.289  0.0615  0.0803  0.9851
   9823SM     N13217   7.509   7.618   2.410 -0.3271  0.2372 -0.6571
   9823SM   C1513218   7.490   7.767   2.384  0.5204  0.0243 -0.2378
   9823SM  H15A13219   7.568   7.835   2.415  1.3759 -0.7609 -0.6408
   9823SM  H15B13220   7.395   7.802   2.420  0.7061  1.1785 -0.8097
   9823SM  H15C13221   7.494   7.787   2.278 -1.0643 -0.2271 -0.3742
   9823SM   C1413222   7.386   7.545   2.374 -0.0096  0.2264 -0.7639
   9823SM  H14A13223   7.403   7.440   2.393 -0.2946  0.4231  0.7753
   9823SM  H14B13224   7.354   7.568   2.274  1.4512  0.5333 -1.1681
   9823SM  H14C13225   7.310   7.583   2.441  2.3786  1.6438  1.3097
   9823SM   C1313226   7.627   7.571   2.330 -0.0843 -0.0106 -0.9472
   9823SM  H13A13227   7.709   7.640   2.325 -0.8226  0.8190 -3.6121
   9823SM  H13B13228   7.600   7.562   2.226 -1.8690  0.4699 -0.5538
   9823SM  H13C13229   7.665   7.474   2.358 -2.5223 -0.0754  2.7715
   9823SM   C1213230   7.550   7.602   2.562 -0.5440  0.0343  0.3020
   9823SM  H12A13231   7.628   7.674   2.578  1.3519 -1.4979 -1.4392
   9823SM  H12B13232   7.591   7.503   2.576 -2.2539 -0.7477  0.1034
   9823SM   C1113233   7.433   7.631   2.667 -0.5267 -0.7848 -0.1905
   9823SM  H11A13234   7.411   7.740   2.674 -1.2283 -0.9292 -0.1281
   9823SM  H11B13235   7.480   7.610   2.766 -2.1244  0.7178  0.9545
   9823SM     P13236   7.296   7.424   2.745  0.2108  0.3923  0.2630
   9823SM   O1313237   7.173   7.355   2.696  0.2301  0.3581 -0.4186
   9823SM   O1413238   7.422   7.348   2.756 -0.4227 -0.2691 -0.1714
   9823SM   O1113239   7.273   7.488   2.884  1.1168 -0.0959 -0.3438
   9823SM   O1213240   7.316   7.554   2.656  0.5364  0.0644 -0.1991
   9823SM   C1S13241   7.155   7.569   2.913 -0.2172  0.3032 -0.7348
   9823SM   H1S13242   7.062   7.514   2.889 -0.7966  0.4831  0.9903
   9823SM   H1T13243   7.147   7.672   2.872  1.3992  1.7375  2.2343
   9823SM    NF13244   7.040   7.688   3.109 -0.1165  0.1147 -0.7576
   9823SM   HNF13245   7.029   7.787   3.116 -0.6843  0.0057  0.0734
   9823SM   C2S13246   7.165   7.627   3.055 -0.7895 -0.7849 -0.7509
   9823SM   H2S13247   7.190   7.540   3.119 -0.9468  0.3190  0.8785
   9823SM   C3S13248   7.281   7.732   3.065  0.2052 -0.0898 -0.1722
   9823SM   H3S13249   7.245   7.819   3.008 -0.1267  1.7791  2.6877
   9823SM    O313250   7.402   7.692   3.004 -0.5064  0.7579  0.1427
   9823SM   HO313251   7.378   7.612   2.957 -0.1058  0.4085  0.5176
   9823SM   C4S13252   7.306   7.776   3.210  0.6077 -0.9668 -0.3384
   9823SM   H4S13253   7.251   7.864   3.247  0.9624  0.1462 -2.2863
   9823SM   C5S13254   7.385   7.714   3.295  0.3278 -0.0965  0.1776
   9823SM   H5S13255   7.446   7.630   3.260  0.1259 -0.1219 -0.1264
   9823SM   C6S13256   7.409   7.747   3.439  0.0871 -0.1077 -0.1081
   9823SM   H6S13257   7.511   7.790   3.445 -0.2351  0.6591 -0.0512
   9823SM   H6T13258   7.403   7.655   3.500 -1.3640 -0.2990 -0.4931
   9823SM   C7S13259   7.307   7.838   3.512 -0.2819 -0.2295 -0.4500
   9823SM   H7S13260   7.204   7.797   3.509 -0.3585 -0.2351  1.1053
   9823SM   H7T13261   7.307   7.937   3.461 -0.9390  1.9776  3.3972
   9823SM   C8S13262   7.335   7.865   3.663  0.5676  0.4086  0.1654
   9823SM   H8S13263   7.440   7.864   3.699  0.9296 -0.5349 -0.8815
   9823SM   H8T13264   7.289   7.774   3.709  1.0068 -0.3662 -0.9021
   9823SM   C9S13265   7.257   7.992   3.708 -0.6870 -0.1545 -0.6113
   9823SM   H9S13266   7.150   7.983   3.679 -0.6704 -0.2617 -0.6418
   9823SM   H9T13267   7.295   8.081   3.654 -0.2990  0.9075  1.3226
   9823SM  C10S13268   7.266   8.031   3.858  0.3676 -0.6858 -0.2840
   9823SM  H10S13269   7.214   7.943   3.902 -1.1475 -0.8846 -2.3272
   9823SM  H10T13270   7.194   8.113   3.879 -1.0178 -1.5840 -1.3684
   9823SM  C11S13271   7.402   8.046   3.922 -0.6254 -0.1231 -0.1040
   9823SM  H11S13272   7.444   8.144   3.892 -0.4298  0.6122  2.3584
   9823SM  H11T13273   7.477   7.972   3.886 -0.2990  0.8438 -1.4958
   9823SM  C12S13274   7.415   8.039   4.079  0.0609 -0.4759  0.2016
   9823SM  H12S13275   7.524   8.044   4.101 -0.3604 -0.4733  2.5805
   9823SM  H12T13276   7.383   7.939   4.115  1.7252 -1.7221 -1.5539
   9823SM  C13S13277   7.334   8.147   4.155  0.4378 -0.1702  0.3166
   9823SM  H13S13278   7.231   8.130   4.117  1.4129  1.2198 -3.3694
   9823SM  H13T13279   7.370   8.245   4.116  3.8659 -1.6984 -0.7967
   9823SM  C14S13280   7.350   8.134   4.309  0.8138 -0.1947  0.2478
   9823SM  H14S13281   7.414   8.216   4.347 -0.3237  1.1085 -0.5629
   9823SM  H14T13282   7.393   8.040   4.349  0.9335  0.2365  1.1659
   9823SM  C15S13283   7.211   8.151   4.381  0.0771 -0.1103  0.5286
   9823SM  H15S13284   7.169   8.048   4.378 -1.5352  0.4460  2.2677
   9823SM  H15T13285   7.158   8.229   4.323  1.3134 -0.5968 -1.3572
   9823SM  C16S13286   7.241   8.199   4.524 -0.2905  0.4846 -0.1272
   9823SM  H16S13287   7.148   8.235   4.573 -0.5895 -0.9980  0.4456
   9823SM  H16T13288   7.301   8.292   4.510 -0.9670  0.6435 -2.5263
   9823SM  C17S13289   7.299   8.104   4.627 -0.3191  0.3170 -0.3292
   9823SM  H17S13290   7.258   8.003   4.607 -2.1346  1.0636 -0.5541
   9823SM  H17T13291   7.262   8.127   4.729 -0.3311  0.9542 -0.4749
   9823SM  C18S13292   7.449   8.094   4.640  0.2497 -0.0155  0.2231
   9823SM  H18S13293   7.491   8.181   4.694  0.4727 -0.2866  0.4841
   9823SM  H18T13294   7.496   8.075   4.541  0.0016 -0.5707  0.2063
   9823SM  H18U13295   7.478   7.996   4.685  1.4932  0.9743  1.6594
   9823SM   C1F13296   6.931   7.610   3.130 -0.0714  0.3753  0.0850
   9823SM    OF13297   6.938   7.486   3.122  0.3273 -0.4426 -0.0006
   9823SM   C2F13298   6.800   7.683   3.150 -0.2324 -0.1178 -0.7632
   9823SM   H2F13299   6.717   7.621   3.109  1.0685 -1.5210 -1.3968
   9823SM   H2G13300   6.795   7.779   3.095 -1.8985  0.1128 -0.2556
   9823SM   C3F13301   6.756   7.702   3.299  0.6044  0.2141  0.2907
   9823SM   H3F13302   6.745   7.603   3.347  0.1869 -0.8954 -1.9508
   9823SM   H3G13303   6.656   7.751   3.300  0.7959  0.8740 -2.5416
   9823SM   C4F13304   6.851   7.774   3.393  0.2421  0.2730 -0.4545
   9823SM   H4F13305   6.860   7.883   3.375 -2.4509  1.4362  3.8303
   9823SM   H4G13306   6.953   7.737   3.366  0.7862  2.0492 -0.9572
   9823SM   C5F13307   6.812   7.746   3.541 -0.0110 -0.8369  0.0480
   9823SM   H5F13308   6.789   7.638   3.550 -1.1228 -0.7460 -1.4148
   9823SM   H5G13309   6.717   7.799   3.563  0.2559 -0.1041 -0.5395
   9823SM   C6F13310   6.912   7.783   3.647 -0.1522 -0.0781 -1.1418
   9823SM   H6F13311   6.947   7.888   3.636  0.1909 -0.2189 -1.4214
   9823SM   H6G13312   7.005   7.722   3.644 -0.0689 -0.0349 -0.0077
   9823SM   C7F13313   6.850   7.774   3.788 -0.2215 -0.0395 -0.3575
   9823SM   H7F13314   6.803   7.676   3.812  1.5268 -0.8946 -0.2719
   9823SM   H7G13315   6.779   7.858   3.806  2.4076  2.1080  0.7331
   9823SM   C8F13316   6.966   7.773   3.885  0.3757 -0.8594  0.1908
   9823SM   H8F13317   7.028   7.863   3.870  0.6213 -0.5403  2.6307
   9823SM   H8G13318   7.031   7.686   3.861  0.7409 -0.3175 -0.8305
   9823SM   C9F13319   6.915   7.769   4.036 -0.7308  0.7270 -0.0316
   9823SM   H9F13320   6.859   7.674   4.046  0.0198  0.4302  1.5954
   9823SM   H9G13321   6.851   7.860   4.044 -3.2352 -1.0874  2.2643
   9823SM  C10F13322   7.037   7.766   4.136  1.2122  0.6946  0.1083
   9823SM  H10F13323   7.116   7.835   4.101  1.3186  0.5986  0.1613
   9823SM  H10G13324   7.063   7.658   4.142 -2.9220 -0.4600  0.3389
   9823SM  C11F13325   6.995   7.805   4.276  0.0372 -0.1400 -0.1689
   9823SM  H11F13326   6.896   7.758   4.293  0.7319 -1.0783  1.5538
   9823SM  H11G13327   6.982   7.915   4.283  0.4897 -0.1536  1.1381
   9823SM  C12F13328   7.091   7.767   4.389  0.6838  0.3390 -0.1557
   9823SM  H12F13329   7.184   7.826   4.375  0.2841  1.3341  1.2473
   9823SM  H12G13330   7.112   7.658   4.386  0.3275  0.2515  0.4980
   9823SM  C13F13331   7.027   7.791   4.524 -0.0635 -0.3504 -0.2351
   9823SM  H13F13332   6.993   7.896   4.536  0.8731 -0.0252 -0.3199
   9823SM  H13G13333   7.107   7.770   4.599  0.1600 -1.6944 -0.8370
   9823SM  C14F13334   6.909   7.690   4.550  0.0029  0.0071 -0.3258
   9823SM  H14F13335   6.951   7.591   4.523 -0.0795 -0.1835  0.2378
   9823SM  H14G13336   6.813   7.703   4.495  0.6138 -1.0830 -1.6909
   9823SM  C15F13337   6.859   7.678   4.701  0.1559  0.0091  0.2269
   9823SM  H15F13338   6.785   7.758   4.724  1.6304  1.0066  1.6764
   9823SM  H15G13339   6.944   7.700   4.768  0.7488 -1.3243 -0.0659
   9823SM  C16F13340   6.810   7.537   4.734 -0.4669 -0.4702 -0.3326
   9823SM  H16F13341   6.746   7.499   4.651  0.8372 -1.2608 -1.0073
   9823SM  H16G13342   6.746   7.555   4.823  2.4547 -0.5803  1.9196
   9823SM  C17F13343   6.922   7.434   4.766  0.1248 -0.1180 -0.9048
   9823SM  H17F13344   7.005   7.457   4.835 -0.7121  0.6866 -0.1471
   9823SM  H17G13345   6.980   7.435   4.671 -2.1634 -1.4897 -2.4146
   9823SM  C18F13346   6.880   7.287   4.781 -0.2434 -0.3407 -0.2054
   9823SM  H18F13347   6.924   7.226   4.700  0.7535 -0.4071  0.3678
   9823SM  H18G13348   6.770   7.271   4.782 -0.6049  1.6356  2.4090
   9823SM  C19F13349   6.914   7.238   4.924  0.1628 -0.2426  0.8670
   9823SM  H19F13350   6.882   7.320   4.993 -2.0599 -0.7331  0.4943
   9823SM  H19G13351   7.024   7.222   4.922 -0.0533 -1.8935 -1.5098
   9823SM  C20F13352   6.847   7.106   4.969  0.2628 -0.5475  0.0583
   9823SM  H20F13353   6.892   7.075   5.066 -0.3013 -1.5678  0.0084
   9823SM  H20G13354   6.871   7.023   4.899 -2.5898 -0.6394 -0.9670
   9823SM  C21F13355   6.700   7.132   4.992 -0.2917 -0.2682  0.0742
   9823SM  H21F13356   6.638   7.153   4.902  1.8445 -0.1785 -1.4472
   9823SM  H21G13357   6.695   7.220   5.059 -0.5614  0.1522 -0.4904
   9823SM  C22F13358   6.627   7.010   5.066  0.1343  0.0939  0.1490
   9823SM  H22F13359   6.651   6.918   5.007  0.0399  0.6880 -0.8473
   9823SM  H22G13360   6.516   7.016   5.063  0.1570  1.6745  1.7115
   9823SM  C23F13361   6.663   7.000   5.209 -0.1450  0.4166  0.1619
   9823SM  H23F13362   6.617   6.903   5.239  0.8956 -0.8752 -2.1235
   9823SM  H23G13363   6.638   7.083   5.278  2.1943 -0.1097  1.7525
   9823SM  H23H13364   6.771   6.979   5.227 -0.1174 -0.0167 -0.4672
   9923SM     N13365   1.415   6.967   3.413 -0.0261  0.3785 -0.0006
   9923SM   C1513366   1.343   6.898   3.306 -0.8722 -0.2364 -0.0826
   9923SM  H15A13367   1.415   6.840   3.250  0.9896  0.4711  1.4778
   9923SM  H15B13368   1.309   6.980   3.245  2.8012  0.9751 -0.7869
   9923SM  H15C13369   1.264   6.830   3.335  0.5573 -0.8542  2.6654
   9923SM   C1413370   1.436   6.851   3.516  0.8106  0.5934  0.2686
   9923SM  H14A13371   1.346   6.834   3.573 -0.5223  0.1369 -1.8525
   9923SM  H14B13372   1.508   6.887   3.587  1.1770  1.7054 -0.6318
   9923SM  H14C13373   1.478   6.766   3.464  3.0064  2.0067 -0.3899
   9923SM   C1313374   1.553   6.999   3.376  0.3345  0.2871  0.1709
   9923SM  H13A13375   1.594   6.909   3.332 -3.6406 -0.1610 -3.1994
   9923SM  H13B13376   1.610   7.025   3.464  1.0929 -0.2031 -0.1675
   9923SM  H13C13377   1.548   7.084   3.310  0.9589  0.0731 -0.1567
   9923SM   C1213378   1.340   7.084   3.464  0.8061  0.5889 -0.2912
   9923SM  H12A13379   1.384   7.119   3.556  1.6245  0.3684 -0.5964
   9923SM  H12B13380   1.239   7.055   3.491  0.3132 -0.6924 -3.0900
   9923SM   C1113381   1.306   7.206   3.378  0.0016  0.1116  0.0757
   9923SM  H11A13382   1.246   7.273   3.443 -1.1627  0.6977 -1.5521
   9923SM  H11B13383   1.253   7.186   3.283  1.6451  1.4665 -1.1897
   9923SM     P13384   1.495   7.390   3.407  0.1093  0.1565  0.0043
   9923SM   O1313385   1.638   7.365   3.384 -0.3021  0.0876 -0.7322
   9923SM   O1413386   1.441   7.519   3.359 -0.2669 -0.2673  0.3594
   9923SM   O1113387   1.456   7.389   3.565  0.1095  0.9026  0.3998
   9923SM   O1213388   1.421   7.272   3.342  0.0287 -0.2915 -0.3454
   9923SM   C1S13389   1.543   7.331   3.662 -0.2703 -0.1470  0.7182
   9923SM   H1S13390   1.641   7.382   3.648  0.2274 -1.5685 -1.7398
   9923SM   H1T13391   1.555   7.221   3.645 -0.6665 -0.1673  0.5600
   9923SM    NF13392   1.605   7.315   3.911 -0.1924  0.3756  0.1322
   9923SM   HNF13393   1.586   7.237   3.970  0.8251  1.4161  1.9245
   9923SM   C2S13394   1.498   7.347   3.818 -0.0671  0.3663 -0.5576
   9923SM   H2S13395   1.471   7.455   3.824  0.1365  0.4860 -1.6486
   9923SM   C3S13396   1.370   7.271   3.836 -0.3902  0.4598 -0.4567
   9923SM   H3S13397   1.377   7.163   3.810  0.3322  0.9839 -2.6913
   9923SM    O313398   1.276   7.306   3.734  0.6448 -0.4996  0.5238
   9923SM   HO313399   1.312   7.373   3.675 -0.9447 -0.2906 -0.2588
   9923SM   C4S13400   1.313   7.294   3.965 -0.5065 -0.2041 -0.9200
   9923SM   H4S13401   1.349   7.219   4.037  0.7652  1.8229  0.6964
   9923SM   C5S13402   1.233   7.392   4.012  0.4141  0.1481  0.2660
   9923SM   H5S13403   1.186   7.460   3.939 -1.8670 -2.3764 -0.8151
   9923SM   C6S13404   1.184   7.408   4.156 -0.1531  0.3462 -0.0680
   9923SM   H6S13405   1.074   7.416   4.167 -0.3125 -1.9038  0.6716
   9923SM   H6T13406   1.221   7.507   4.190 -2.0624  0.1964  2.8262
   9923SM   C7S13407   1.242   7.298   4.248 -0.0452 -0.5892  0.6668
   9923SM   H7S13408   1.352   7.310   4.253  0.3161 -3.6537  3.8429
   9923SM   H7T13409   1.223   7.194   4.212 -0.1857 -0.5350  0.5818
   9923SM   C8S13410   1.189   7.314   4.397 -0.0577 -0.6257  0.1502
   9923SM   H8S13411   1.254   7.247   4.457 -0.5732 -1.1227  0.1571
   9923SM   H8T13412   1.083   7.283   4.384 -0.2648  0.3987 -0.8324
   9923SM   C9S13413   1.205   7.458   4.439  1.0037  0.3734 -0.5294
   9923SM   H9S13414   1.127   7.515   4.385 -1.5918 -0.5659  1.9514
   9923SM   H9T13415   1.306   7.496   4.412  0.5240  0.5955 -2.1394
   9923SM  C10S13416   1.187   7.480   4.587 -0.1199 -0.0923 -0.1581
   9923SM  H10S13417   1.260   7.413   4.636 -0.3850  0.3654  0.8845
   9923SM  H10T13418   1.089   7.436   4.616  0.2671 -0.7965  0.1152
   9923SM  C11S13419   1.215   7.619   4.642  0.1556 -0.4803  0.9490
   9923SM  H11S13420   1.132   7.681   4.601  0.6768  0.5321  1.3765
   9923SM  H11T13421   1.302   7.660   4.585 -0.8881 -0.2793 -0.5603
   9923SM  C12S13422   1.205   7.641   4.794 -0.1227  0.7777  0.1130
   9923SM  H12S13423   1.276   7.570   4.842 -0.2274  1.1862  0.8984
   9923SM  H12T13424   1.106   7.606   4.830 -0.3110 -0.1343 -1.2398
   9923SM  C13S13425   1.233   7.780   4.848 -0.8223 -0.0140  0.1516
   9923SM  H13S13426   1.169   7.850   4.789  0.8326  1.2350 -0.2362
   9923SM  H13T13427   1.340   7.796   4.823 -0.5289  1.4397  2.1180
   9923SM  C14S13428   1.197   7.794   4.998  0.1695 -0.6660  0.2444
   9923SM  H14S13429   1.251   7.724   5.065  0.6286  1.9614  2.8102
   9923SM  H14T13430   1.088   7.781   5.015  0.3918 -0.7042  1.7699
   9923SM  C15S13431   1.221   7.941   5.042 -0.4343 -0.2507 -0.1127
   9923SM  H15S13432   1.188   8.014   4.965  0.2924 -1.5118 -1.6712
   9923SM  H15T13433   1.331   7.955   5.045 -0.5624  0.6525  1.6045
   9923SM  C16S13434   1.158   7.974   5.180 -0.0468 -0.5766 -0.6555
   9923SM  H16S13435   1.196   7.902   5.255  0.8125  1.1571  0.6565
   9923SM  H16T13436   1.048   7.981   5.183 -0.0346  0.6412 -1.9193
   9923SM  C17S13437   1.211   8.112   5.233  0.2944  0.5855 -0.2681
   9923SM  H17S13438   1.173   8.188   5.161 -1.1616 -1.4694 -1.7925
   9923SM  H17T13439   1.320   8.131   5.232  0.4299  0.4307 -4.0644
   9923SM  C18S13440   1.144   8.168   5.369 -0.5364  0.7191  0.4269
   9923SM  H18S13441   1.153   8.277   5.386  1.2191  1.4150 -3.7809
   9923SM  H18T13442   1.154   8.101   5.457 -1.1886  2.6071  2.0296
   9923SM  H18U13443   1.035   8.155   5.349 -0.4825  1.9101 -0.8013
   9923SM   C1F13444   1.716   7.383   3.929  0.2424 -0.8750  0.4866
   9923SM    OF13445   1.738   7.471   3.849  0.9501  0.1248  0.1760
   9923SM   C2F13446   1.808   7.333   4.034  0.1724  0.7604 -0.7213
   9923SM   H2F13447   1.743   7.305   4.120  1.6060  0.0072  0.1626
   9923SM   H2G13448   1.875   7.417   4.063 -0.2486  0.0128  2.9637
   9923SM   C3F13449   1.909   7.225   3.989  0.2547 -0.1498  0.0276
   9923SM   H3F13450   1.965   7.262   3.900 -2.6897 -0.0507 -1.9002
   9923SM   H3G13451   1.846   7.138   3.961  0.5159 -0.0266 -0.9756
   9923SM   C4F13452   2.011   7.181   4.105 -0.0258  0.2539  0.2055
   9923SM   H4F13453   2.088   7.260   4.121  0.4184 -0.2572  0.6749
   9923SM   H4G13454   2.050   7.079   4.082 -1.4011 -0.3265  0.3625
   9923SM   C5F13455   1.946   7.150   4.246  0.0117  0.3609  0.2451
   9923SM   H5F13456   1.909   7.243   4.296 -0.1059 -0.1948  1.2179
   9923SM   H5G13457   2.022   7.108   4.314 -0.6555 -0.9514  0.2039
   9923SM   C6F13458   1.833   7.049   4.242  0.0991  0.4093  0.4959
   9923SM   H6F13459   1.877   6.955   4.203 -1.1345 -0.7481  1.7653
   9923SM   H6G13460   1.753   7.084   4.174  0.0920 -0.3695  0.0936
   9923SM   C7F13461   1.775   7.035   4.379  0.5050 -0.1505 -0.6507
   9923SM   H7F13462   1.743   7.133   4.420 -0.3276 -0.2292 -1.0862
   9923SM   H7G13463   1.859   7.004   4.445 -0.2716 -0.5523  0.1848
   9923SM   C8F13464   1.652   6.937   4.386  0.1580  0.3226  0.2726
   9923SM   H8F13465   1.676   6.834   4.352 -2.7693 -0.8281  1.3337
   9923SM   H8G13466   1.573   6.975   4.318  1.8516  1.7815 -0.9947
   9923SM   C9F13467   1.609   6.914   4.535 -0.2967  0.6987 -0.3138
   9923SM   H9F13468   1.594   7.014   4.581 -1.3947 -0.3334  1.7122
   9923SM   H9G13469   1.692   6.862   4.586 -0.0953 -0.2345 -1.5604
   9923SM  C10F13470   1.464   6.852   4.549  0.3023 -0.1080  0.0934
   9923SM  H10F13471   1.445   6.765   4.483 -1.3340 -2.0296  2.8614
   9923SM  H10G13472   1.381   6.920   4.519 -1.4463 -2.0684  0.2297
   9923SM  C11F13473   1.432   6.822   4.690 -0.4421 -0.3273 -0.8674
   9923SM  H11F13474   1.483   6.892   4.761  0.7072  0.3454 -2.3103
   9923SM  H11G13475   1.492   6.734   4.720  1.6254  1.5415  0.9229
   9923SM  C12F13476   1.284   6.809   4.717  0.0401  0.2096  0.1612
   9923SM  H12F13477   1.259   6.716   4.662  0.4989 -0.0661  0.4164
   9923SM  H12G13478   1.233   6.897   4.670 -1.0379 -0.5474 -0.1206
   9923SM  C13F13479   1.227   6.792   4.861 -0.2756  0.1879 -0.4123
   9923SM  H13F13480   1.211   6.891   4.909  0.7580 -0.8158  2.2089
   9923SM  H13G13481   1.298   6.732   4.921 -0.7959 -3.1097 -2.8215
   9923SM  C14F13482   1.089   6.725   4.871  0.1628 -0.3831 -0.2511
   9923SM  H14F13483   1.088   6.620   4.835  0.6289 -0.3591 -0.3466
   9923SM  H14G13484   1.019   6.786   4.810 -0.0090 -1.0132 -0.6935
   9923SM  C15F13485   1.056   6.733   5.024  0.0961 -0.2760 -0.2635
   9923SM  H15F13486   1.139   6.676   5.070 -0.7281 -1.8904 -0.7160
   9923SM  H15G13487   0.963   6.673   5.036 -0.9142  1.4838  1.2486
   9923SM  C16F13488   1.035   6.868   5.090 -0.3670  0.2608  0.1680
   9923SM  H16F13489   0.935   6.911   5.068  0.9468  2.8779 -1.0628
   9923SM  H16G13490   1.094   6.955   5.053 -2.6970  0.6790 -2.9516
   9923SM  C17F13491   1.060   6.863   5.245  0.0091  0.0624  0.2662
   9923SM  H17F13492   1.169   6.851   5.262  0.1529 -0.2069 -0.7899
   9923SM  H17G13493   1.015   6.771   5.288 -2.3758  0.4417 -1.2152
   9923SM  C18F13494   1.014   6.986   5.324 -0.6173 -0.4127 -0.0413
   9923SM  H18F13495   1.072   7.065   5.272 -0.8992 -1.0182 -1.3291
   9923SM  H18G13496   1.064   6.991   5.423 -2.5369  1.2420  0.8975
   9923SM  C19F13497   0.867   7.010   5.335 -0.0344 -0.1179 -0.5769
   9923SM  H19F13498   0.813   6.922   5.375  1.7702  0.4096  3.5805
   9923SM  H19G13499   0.827   7.027   5.233 -0.4357  3.3366  0.0013
   9923SM  C20F13500   0.833   7.127   5.428 -0.1912 -0.0446  0.2660
   9923SM  H20F13501   0.728   7.163   5.429 -0.3788 -0.5715  0.6642
   9923SM  H20G13502   0.896   7.212   5.396  0.0716 -0.2433  0.2493
   9923SM  C21F13503   0.875   7.111   5.579 -0.0745 -0.4749  0.6071
   9923SM  H21F13504   0.983   7.083   5.577  0.2901  0.7760  1.7153
   9923SM  H21G13505   0.808   7.031   5.617 -2.3563  0.5482 -1.0011
   9923SM  C22F13506   0.851   7.235   5.667 -0.0998 -0.6655  0.0012
   9923SM  H22F13507   0.882   7.324   5.607 -1.1456 -1.3374 -1.6082
   9923SM  H22G13508   0.915   7.224   5.756  0.6675 -0.5580 -0.5283
   9923SM  C23F13509   0.717   7.255   5.723  0.4607 -0.0184  1.1009
   9923SM  H23F13510   0.715   7.342   5.791  0.1280  0.3557  0.6189
   9923SM  H23G13511   0.685   7.170   5.786  2.8822 -1.6538  0.2630
   9923SM  H23H13512   0.646   7.269   5.638  0.9807  1.0237  0.8238
  10023SM     N13513   1.189   7.572   3.067 -0.1059  0.1345 -0.3728
  10023SM   C1513514   1.326   7.542   3.027 -0.5927  0.6280  0.8036
  10023SM  H15A13515   1.402   7.597   3.080 -0.0672  0.3746  0.3196
  10023SM  H15B13516   1.345   7.569   2.925 -1.3152 -0.8969  0.2409
  10023SM  H15C13517   1.347   7.436   3.030  1.9219  1.0961  1.8931
  10023SM   C1413518   1.172   7.723   3.086 -0.9441  0.4418  0.9637
  10023SM  H14A13519   1.213   7.779   3.003  1.1891 -0.2202  1.5045
  10023SM  H14B13520   1.238   7.755   3.166  1.1050 -0.2031 -0.3966
  10023SM  H14C13521   1.071   7.746   3.117 -1.6045 -1.1856  0.1134
  10023SM   C1313522   1.097   7.521   2.961  0.0926  0.1907 -0.5519
  10023SM  H13A13523   1.111   7.414   2.947  1.1881  0.2046  0.3225
  10023SM  H13B13524   1.102   7.581   2.871 -0.5017 -2.1371 -2.2436
  10023SM  H13C13525   0.998   7.542   2.999 -0.2981  0.0112 -1.4434
  10023SM   C1213526   1.165   7.506   3.203 -1.0262  0.0735 -0.4571
  10023SM  H12A13527   1.255   7.518   3.262 -0.8185 -0.5537 -0.6281
  10023SM  H12B13528   1.150   7.400   3.187 -0.6905 -0.1301  0.5309
  10023SM   C1113529   1.040   7.547   3.288 -0.6239  0.2038  0.2626
  10023SM  H11A13530   1.061   7.651   3.321  0.2203  0.0803  0.1405
  10023SM  H11B13531   1.040   7.480   3.376  0.1831  1.7037  1.4511
  10023SM     P13532   0.828   7.411   3.207 -0.3488  0.3929 -0.5652
  10023SM   O1313533   0.751   7.413   3.082 -0.4128  0.1611  0.4039
  10023SM   O1413534   0.921   7.294   3.214  0.1872 -0.5397  0.1214
  10023SM   O1113535   0.736   7.405   3.339 -0.4555 -0.2426 -0.2631
  10023SM   O1213536   0.917   7.544   3.215 -0.2071  0.0679  0.4886
  10023SM   C1S13537   0.635   7.501   3.349  0.1176 -0.2482 -0.9176
  10023SM   H1S13538   0.569   7.506   3.260  1.1196  2.7833 -1.6131
  10023SM   H1T13539   0.682   7.600   3.363 -0.6691 -0.0748  0.7436
  10023SM    NF13540   0.418   7.548   3.461  0.7114  0.0232  0.1267
  10023SM   HNF13541   0.417   7.634   3.511  2.2329 -1.4963  2.9471
  10023SM   C2S13542   0.540   7.471   3.473 -0.6663  0.2537 -0.4153
  10023SM   H2S13543   0.515   7.363   3.468 -0.9991  0.3130 -0.0346
  10023SM   C3S13544   0.615   7.487   3.606 -0.8169 -0.1577 -0.3174
  10023SM   H3S13545   0.655   7.590   3.609  0.1996 -0.5088 -1.1164
  10023SM    O313546   0.729   7.404   3.611  0.5379  0.4052  0.6094
  10023SM   HO313547   0.760   7.397   3.521 -1.4056 -0.6138 -0.0472
  10023SM   C4S13548   0.527   7.453   3.726 -0.0196  0.4119 -0.1453
  10023SM   H4S13549   0.503   7.348   3.749  0.4570  0.8243  2.4992
  10023SM   C5S13550   0.487   7.559   3.795  0.2757  0.2222  0.0439
  10023SM   H5S13551   0.532   7.657   3.774  0.4649  0.0386 -0.4279
  10023SM   C6S13552   0.396   7.553   3.910  0.1843  0.2984 -0.5010
  10023SM   H6S13553   0.312   7.484   3.886  1.1413 -1.2122  0.3339
  10023SM   H6T13554   0.349   7.653   3.916  0.8814  0.9591 -3.9343
  10023SM   C7S13555   0.455   7.512   4.042  0.7132 -0.4146  0.1395
  10023SM   H7S13556   0.537   7.586   4.042 -0.5960  1.1079 -0.1230
  10023SM   H7T13557   0.484   7.405   4.039  0.7020 -0.4169  0.1181
  10023SM   C8S13558   0.358   7.526   4.155 -0.1748 -0.0132  1.4474
  10023SM   H8S13559   0.308   7.625   4.154 -2.4950 -1.1316  1.6959
  10023SM   H8T13560   0.422   7.539   4.245  0.2972  0.0122  1.1156
  10023SM   C9S13561   0.252   7.414   4.160  0.0592 -0.2709 -0.1227
  10023SM   H9S13562   0.298   7.314   4.168  2.0183  0.4318 -1.8544
  10023SM   H9T13563   0.217   7.432   4.056 -0.1290 -0.2249 -0.0526
  10023SM  C10S13564   0.139   7.416   4.269 -0.4351 -0.4943  0.4274
  10023SM  H10S13565   0.082   7.321   4.257 -0.6593 -0.1219 -1.7394
  10023SM  H10T13566   0.070   7.498   4.240 -1.6276 -0.6880  2.4468
  10023SM  C11S13567   0.193   7.440   4.412 -0.4367  0.0559 -0.1712
  10023SM  H11S13568   0.261   7.528   4.412 -0.2983 -0.0127 -1.8564
  10023SM  H11T13569   0.239   7.342   4.434  0.6693  0.2185 -1.6116
  10023SM  C12S13570   0.081   7.450   4.514  0.4033  0.7597 -0.2018
  10023SM  H12S13571   0.019   7.358   4.511  0.1957  0.9153 -0.8985
  10023SM  H12T13572   0.025   7.539   4.477  0.8101  0.9775 -0.3043
  10023SM  C13S13573   0.132   7.462   4.663 -0.1242  0.3245 -0.4306
  10023SM  H13S13574   0.213   7.538   4.671 -0.2372  0.5656 -1.3989
  10023SM  H13T13575   0.180   7.366   4.689  0.2764  1.0070  1.4853
  10023SM  C14S13576   0.026   7.482   4.778 -0.0035  0.0920 -0.1349
  10023SM  H14S13577  -0.054   7.408   4.758  0.1929 -0.2252  0.2543
  10023SM  H14T13578  -0.011   7.586   4.789 -1.2896 -0.0150 -2.7211
  10023SM  C15S13579   0.098   7.447   4.916  0.1417  0.1855  0.1057
  10023SM  H15S13580   0.179   7.521   4.935  0.7924 -0.6752  0.7854
  10023SM  H15T13581   0.124   7.339   4.907 -0.7971 -0.0325 -0.1340
  10023SM  C16S13582  -0.011   7.461   5.026 -0.1369  0.8935  0.3398
  10023SM  H16S13583  -0.073   7.369   5.033 -2.2033  2.1171 -0.9293
  10023SM  H16T13584  -0.082   7.536   4.986 -0.9982  0.1374  0.4077
  10023SM  C17S13585   0.040   7.494   5.167 -0.5924  0.6811 -0.2165
  10023SM  H17S13586   0.119   7.572   5.172 -0.3290  0.3746  0.6444
  10023SM  H17T13587   0.088   7.402   5.209 -1.9947 -1.0289 -2.1779
  10023SM  C18S13588  -0.073   7.543   5.267 -0.1069 -0.2684  0.0572
  10023SM  H18S13589  -0.041   7.587   5.364 -2.2356  0.8040  0.3242
  10023SM  H18T13590  -0.148   7.466   5.294 -1.8798  0.2779 -2.9019
  10023SM  H18U13591  -0.137   7.616   5.213 -0.6799 -1.2651 -0.6543
  10023SM   C1F13592   0.316   7.511   3.378 -0.4397  0.3844  0.3375
  10023SM    OF13593   0.326   7.410   3.320 -0.0184 -0.3616  0.4415
  10023SM   C2F13594   0.194   7.591   3.367 -0.2547 -0.1859 -0.0961
  10023SM   H2F13595   0.147   7.590   3.266 -0.1381 -1.4673 -0.1619
  10023SM   H2G13596   0.217   7.696   3.393 -4.3757  0.2848  2.7342
  10023SM   C3F13597   0.090   7.531   3.465 -0.0185  0.1960  0.6309
  10023SM   H3F13598   0.089   7.420   3.469 -1.0896  0.1972  0.5190
  10023SM   H3G13599  -0.010   7.563   3.429 -0.7992  1.4269  3.6231
  10023SM   C4F13600   0.115   7.585   3.604  0.6112 -0.2581  0.6851
  10023SM   H4F13601   0.080   7.691   3.613  2.7681  0.6733 -1.0302
  10023SM   H4G13602   0.221   7.603   3.632  0.4459  1.7316  0.1933
  10023SM   C5F13603   0.053   7.495   3.707 -0.1592  0.6058 -0.4263
  10023SM   H5F13604   0.118   7.407   3.726  0.4812  1.1408 -0.0779
  10023SM   H5G13605  -0.041   7.462   3.658 -0.0796 -0.0391 -0.1583
  10023SM   C6F13606   0.014   7.555   3.842  0.2269 -0.6519 -0.3268
  10023SM   H6F13607   0.101   7.619   3.867  0.1997 -0.1607 -1.4017
  10023SM   H6G13608  -0.002   7.472   3.915 -1.0914 -1.5224 -1.5313
  10023SM   C7F13609  -0.108   7.651   3.850 -0.2785 -0.1970  0.8970
  10023SM   H7F13610  -0.205   7.611   3.815 -0.3225 -0.4124  1.2610
  10023SM   H7G13611  -0.086   7.725   3.771 -0.8687 -1.4422 -0.4912
  10023SM   C8F13612  -0.114   7.707   3.992  0.3838 -0.3755 -0.0811
  10023SM   H8F13613  -0.163   7.807   3.997  1.6993  0.2973 -0.2989
  10023SM   H8G13614  -0.012   7.730   4.028 -0.5360  2.8112  0.7908
  10023SM   C9F13615  -0.182   7.621   4.102 -0.1728  0.6807 -0.0416
  10023SM   H9F13616  -0.129   7.523   4.109 -1.7400 -0.1374  1.0174
  10023SM   H9G13617  -0.288   7.605   4.075  0.4078 -1.0922 -1.5068
  10023SM  C10F13618  -0.175   7.689   4.238 -0.8273  0.1721 -0.0256
  10023SM  H10F13619  -0.237   7.781   4.231  0.2084  0.8205 -1.0029
  10023SM  H10G13620  -0.074   7.728   4.261 -1.5220  2.0286  0.0429
  10023SM  C11F13621  -0.228   7.603   4.358 -0.2738 -0.1683 -0.1999
  10023SM  H11F13622  -0.171   7.509   4.366 -0.3562 -0.2526 -0.6161
  10023SM  H11G13623  -0.331   7.565   4.342 -0.2143 -0.6737  0.5298
  10023SM  C12F13624  -0.219   7.684   4.485  0.7592 -0.0727 -0.4346
  10023SM  H12F13625  -0.285   7.773   4.475  0.2447 -0.5925 -1.8728
  10023SM  H12G13626  -0.115   7.715   4.510  0.1100  1.3949  0.5490
  10023SM  C13F13627  -0.267   7.600   4.596  0.7802  1.1122 -0.1058
  10023SM  H13F13628  -0.197   7.514   4.598  0.1634  0.6130  0.4231
  10023SM  H13G13629  -0.365   7.554   4.572  0.7726  0.4319  1.1246
  10023SM  C14F13630  -0.279   7.665   4.737  0.2664 -0.5541  0.4935
  10023SM  H14F13631  -0.331   7.761   4.720 -0.0159 -0.7560  0.1762
  10023SM  H14G13632  -0.176   7.687   4.772  1.0428 -1.1979 -1.2412
  10023SM  C15F13633  -0.357   7.576   4.832 -0.2997 -0.2369 -0.7468
  10023SM  H15F13634  -0.298   7.482   4.839  0.1922  0.1493  0.7028
  10023SM  H15G13635  -0.459   7.564   4.790  0.1124  0.2205 -1.9253
  10023SM  C16F13636  -0.377   7.644   4.968  0.3816 -0.2775 -0.1095
  10023SM  H16F13637  -0.434   7.740   4.967  0.1573 -0.3853  0.9332
  10023SM  H16G13638  -0.275   7.674   4.999  0.0305 -1.1071  2.0085
  10023SM  C17F13639  -0.446   7.569   5.082  0.1296 -0.9281 -0.7919
  10023SM  H17F13640  -0.447   7.459   5.069 -0.7766 -1.1589  0.9231
  10023SM  H17G13641  -0.553   7.601   5.079  1.1254  3.4874  1.7681
  10023SM  C18F13642  -0.401   7.610   5.221  0.3438 -0.1500 -0.6187
  10023SM  H18F13643  -0.320   7.686   5.211  0.8392 -0.5933 -0.0317
  10023SM  H18G13644  -0.353   7.519   5.263  2.4638  0.8814 -0.6674
  10023SM  C19F13645  -0.507   7.672   5.309  0.5097 -0.5785 -0.3946
  10023SM  H19F13646  -0.586   7.594   5.320  0.4702 -0.4045  0.6586
  10023SM  H19G13647  -0.553   7.767   5.275  0.1895 -0.0418  1.4189
  10023SM  C20F13648  -0.456   7.671   5.455  0.3741 -0.2978 -0.2379
  10023SM  H20F13649  -0.396   7.579   5.473 -0.0665 -0.3980  0.7948
  10023SM  H20G13650  -0.542   7.660   5.524 -0.5519 -0.4974 -1.3831
  10023SM  C21F13651  -0.368   7.790   5.506 -0.0150 -0.5626  0.0315
  10023SM  H21F13652  -0.427   7.880   5.480  0.0097 -0.2238  1.1194
  10023SM  H21G13653  -0.277   7.798   5.442  0.1512 -0.5499  0.2716
  10023SM  C22F13654  -0.338   7.783   5.653  0.0232  0.1555  0.0357
  10023SM  H22F13655  -0.439   7.779   5.700 -0.6449 -1.4265 -1.4165
  10023SM  H22G13656  -0.286   7.875   5.684 -1.1367  0.4403  1.2195
  10023SM  C23F13657  -0.252   7.666   5.701 -0.4457  0.0285  0.1394
  10023SM  H23F13658  -0.144   7.681   5.678 -0.6192  1.3694  0.1635
  10023SM  H23G13659  -0.287   7.572   5.652  2.2145 -0.1833 -1.5659
  10023SM  H23H13660  -0.260   7.647   5.810  1.2512  0.5115  0.3765
  101CHL1    C313661   4.802   4.316   6.960 -0.3075 -0.2674  0.2737
  101CHL1    H313662   4.699   4.275   6.952  0.4942 -2.1054 -1.5347
  101CHL1    O313663   4.845   4.285   7.093  0.3262  0.5593 -0.1738
  101CHL1   H3'13664   4.844   4.189   7.096 -1.7782  0.5407 -0.3327
  101CHL1    C413665   4.888   4.231   6.860  0.0780  0.2519 -0.3820
  101CHL1   H4A13666   4.995   4.252   6.882 -0.1103  0.8991 -0.0677
  101CHL1   H4B13667   4.865   4.125   6.887 -3.3622  0.9389 -0.1659
  101CHL1    C513668   4.836   4.260   6.712  0.0325 -0.2949 -0.8661
  101CHL1    C613669   4.810   4.155   6.633  0.5228  0.0676 -0.2278
  101CHL1    H613670   4.816   4.054   6.677 -0.5444 -0.3827 -1.0940
  101CHL1    C713671   4.750   4.161   6.496  0.4874 -0.0577 -0.3557
  101CHL1   H7A13672   4.795   4.090   6.423  0.5463  0.7884 -1.1735
  101CHL1   H7B13673   4.651   4.116   6.516  0.4537  0.4422  0.6773
  101CHL1    C813674   4.729   4.302   6.443 -0.1401  0.1640  0.0716
  101CHL1    H813675   4.828   4.337   6.407  1.3034 -1.3159  2.3306
  101CHL1   C1413676   4.620   4.315   6.335 -0.8114  0.0118  0.4756
  101CHL1   H1413677   4.524   4.309   6.389 -2.0717 -1.5476 -1.7557
  101CHL1   C1513678   4.631   4.213   6.227  0.2007  0.0265 -0.4171
  101CHL1  H15A13679   4.740   4.197   6.215  0.7794  2.7674  0.4270
  101CHL1  H15B13680   4.578   4.119   6.253  1.9400 -1.1159 -0.8849
  101CHL1   C1613681   4.573   4.277   6.109  0.4967 -0.6976  0.5278
  101CHL1  H16A13682   4.645   4.274   6.024  0.1622  0.6829  0.1665
  101CHL1  H16B13683   4.485   4.217   6.076 -0.6592  0.9014  0.5797
  101CHL1   C1713684   4.527   4.422   6.146 -0.2870 -0.5102  0.0139
  101CHL1   H1713685   4.424   4.420   6.189  0.3665  0.0478  1.6791
  101CHL1   C1313686   4.622   4.458   6.270  0.0189  0.2973  0.9653
  101CHL1   C1813687   4.762   4.508   6.222  0.0907  0.2360  0.1726
  101CHL1  H18A13688   4.816   4.427   6.167  0.0284  1.2974 -1.5077
  101CHL1  H18B13689   4.755   4.600   6.161  0.0465  0.8288  1.0512
  101CHL1  H18C13690   4.832   4.530   6.305  1.6371 -2.6070 -0.2377
  101CHL1   C1213691   4.570   4.552   6.380  0.3131  0.4842  0.1064
  101CHL1  H12A13692   4.569   4.657   6.343  0.8386 -0.4674 -2.8183
  101CHL1  H12B13693   4.463   4.537   6.406  0.3168  0.7690  0.3015
  101CHL1   C1113694   4.662   4.543   6.503 -1.0164 -0.2990 -0.3017
  101CHL1  H11A13695   4.756   4.594   6.473 -1.1405 -0.1756 -0.4852
  101CHL1  H11B13696   4.617   4.610   6.579 -0.1190 -0.6378  0.5420
  101CHL1    C913697   4.693   4.403   6.560  0.1425 -0.1797 -0.7490
  101CHL1    H913698   4.598   4.367   6.605  0.1299  1.6563  0.8475
  101CHL1   C1013699   4.802   4.404   6.673 -0.3716  0.4044  0.2395
  101CHL1   C1913700   4.932   4.472   6.625 -0.2807  0.3729  0.3054
  101CHL1  H19A13701   5.003   4.456   6.709 -0.8429  0.2805  0.7718
  101CHL1  H19B13702   4.972   4.425   6.533  0.2926  1.3600  0.0379
  101CHL1  H19C13703   4.934   4.580   6.598 -0.9506  0.3574  0.1802
  101CHL1    C113704   4.748   4.487   6.793  0.5074 -0.4525 -0.2802
  101CHL1   H1A13705   4.749   4.596   6.773 -2.5106 -0.1979  0.4364
  101CHL1   H1B13706   4.638   4.472   6.797  0.3659  0.1307 -1.6074
  101CHL1    C213707   4.811   4.464   6.930  0.6138 -0.3542 -0.3692
  101CHL1   H2A13708   4.757   4.517   7.012  1.1354 -0.5091  0.0859
  101CHL1   H2B13709   4.916   4.498   6.936  0.3090  0.4877  0.4954
  101CHL1   C2013710   4.530   4.517   6.027 -0.1857  0.4434 -0.1432
  101CHL1   H2013711   4.631   4.536   5.985  0.6464 -3.1449 -0.1213
  101CHL1   C2113712   4.479   4.656   6.080 -0.5632 -0.4069  0.0388
  101CHL1  H21A13713   4.384   4.644   6.136  0.4448  0.0252  1.9219
  101CHL1  H21B13714   4.458   4.724   5.995  0.1606  0.8324  0.8158
  101CHL1  H21C13715   4.555   4.703   6.146 -1.6618  0.4990  0.6847
  101CHL1   C2213716   4.439   4.463   5.917  0.1044 -0.3226 -0.3476
  101CHL1  H22A13717   4.475   4.368   5.874  0.1338 -0.9894  1.0812
  101CHL1  H22B13718   4.338   4.432   5.953  0.1716 -0.4992 -0.3109
  101CHL1   C2313719   4.407   4.560   5.800 -0.0226  0.5765  0.0962
  101CHL1  H23A13720   4.325   4.624   5.839 -1.0277 -1.8280  2.2270
  101CHL1  H23B13721   4.495   4.619   5.765  0.5646 -0.9139 -1.0377
  101CHL1   C2413722   4.365   4.481   5.674  0.2603 -1.1630  0.9450
  101CHL1  H24A13723   4.442   4.409   5.641  0.9939  0.7239 -1.7767
  101CHL1  H24B13724   4.266   4.432   5.689 -0.2192 -0.1770  1.0613
  101CHL1   C2513725   4.343   4.574   5.547  0.6415  0.5137 -0.1333
  101CHL1   H2513726   4.442   4.612   5.514  1.4010 -1.5896 -0.4823
  101CHL1   C2613727   4.280   4.485   5.436  0.4727  0.1145  0.1236
  101CHL1  H26A13728   4.200   4.425   5.484  1.2691  0.2428  1.6632
  101CHL1  H26B13729   4.218   4.548   5.369 -4.9370 -3.1712  1.3995
  101CHL1  H26C13730   4.349   4.420   5.379  3.6343  2.3147  1.1654
  101CHL1   C2713731   4.261   4.701   5.579  0.5452 -0.1222 -0.4096
  101CHL1  H27A13732   4.235   4.758   5.487  1.1149  0.2256 -0.3579
  101CHL1  H27B13733   4.161   4.679   5.623  0.5824 -0.4867 -0.5086
  101CHL1  H27C13734   4.322   4.774   5.636  1.3475 -1.7137  0.8429
  102CHL1    C313735   3.135   5.220   6.400  0.6338 -0.1841 -0.6893
  102CHL1    H313736   3.096   5.324   6.400  1.2396  0.0807  1.3296
  102CHL1    O313737   3.197   5.204   6.529  0.3833  0.4148 -0.2157
  102CHL1   H3'13738   3.131   5.248   6.584  0.0027  0.7339 -0.9019
  102CHL1    C413739   3.026   5.117   6.366 -0.0053 -1.1510 -0.2942
  102CHL1   H4A13740   3.070   5.020   6.395  0.8017 -1.0089 -1.0182
  102CHL1   H4B13741   2.938   5.136   6.432  0.2146 -0.0398 -0.3002
  102CHL1    C513742   2.978   5.129   6.230 -0.6512  0.0668  0.6252
  102CHL1    C613743   2.854   5.142   6.196  0.9751  0.5702  0.7940
  102CHL1    H613744   2.769   5.133   6.264 -2.3592  0.7700 -2.9546
  102CHL1    C713745   2.799   5.148   6.052  0.2432 -0.0151 -0.0535
  102CHL1   H7A13746   2.702   5.094   6.046 -0.3840  1.1620 -0.7769
  102CHL1   H7B13747   2.789   5.257   6.033 -1.2372  0.0273  0.8340
  102CHL1    C813748   2.900   5.102   5.946 -0.0591 -0.0557 -0.4644
  102CHL1    H813749   2.911   4.993   5.961  0.6093  0.1427  0.6343
  102CHL1   C1413750   2.861   5.130   5.801 -0.3997 -0.2910  0.2055
  102CHL1   H1413751   2.861   5.242   5.799 -1.5599 -0.2700 -2.0954
  102CHL1   C1513752   2.722   5.103   5.748  0.0086 -0.3719  0.2541
  102CHL1  H15A13753   2.703   4.996   5.769  1.0289 -0.5895  0.1555
  102CHL1  H15B13754   2.648   5.170   5.796  1.5647  1.8476 -0.2576
  102CHL1   C1613755   2.725   5.113   5.596 -0.8581  0.6910 -0.1654
  102CHL1  H16A13756   2.685   5.021   5.547  0.6982  0.0320 -0.2328
  102CHL1  H16B13757   2.668   5.200   5.558  0.9236  1.7826 -0.4157
  102CHL1   C1713758   2.875   5.126   5.563  0.0872 -0.2849  0.2142
  102CHL1   H1713759   2.900   5.234   5.551  3.5396 -0.9705  0.1975
  102CHL1   C1313760   2.955   5.089   5.686  0.0655 -0.2632 -0.0518
  102CHL1   C1813761   2.977   4.941   5.689  0.2440  0.3382  0.0121
  102CHL1  H18A13762   3.036   4.907   5.601 -0.6787 -0.1695 -0.4253
  102CHL1  H18B13763   3.032   4.905   5.779 -0.5168  1.5798  0.9970
  102CHL1  H18C13764   2.879   4.890   5.697  0.0250  1.0132  3.7807
  102CHL1   C1213765   3.099   5.162   5.720 -0.0491 -0.4662 -0.2644
  102CHL1  H12A13766   3.177   5.122   5.652  1.2255  0.3763  0.6528
  102CHL1  H12B13767   3.084   5.272   5.713 -0.9157 -0.3301  2.5635
  102CHL1   C1113768   3.150   5.137   5.866 -0.5803 -0.4397 -0.8494
  102CHL1  H11A13769   3.184   5.031   5.859  0.7543 -0.1660  0.9563
  102CHL1  H11B13770   3.232   5.210   5.881 -1.0361  0.2684 -1.6920
  102CHL1    C913771   3.040   5.167   5.981  0.0241 -0.2825  0.4092
  102CHL1    H913772   3.024   5.276   5.987  1.0434 -0.1243  0.3216
  102CHL1   C1013773   3.089   5.135   6.124 -0.2810  0.9733  0.4671
  102CHL1   C1913774   3.153   4.991   6.119  0.9459  0.5168 -0.1556
  102CHL1  H19A13775   3.234   5.002   6.044 -0.3388  0.5994 -1.5993
  102CHL1  H19B13776   3.195   4.954   6.215  1.2905 -1.3086 -0.9652
  102CHL1  H19C13777   3.093   4.905   6.080  1.6573 -0.4662  0.8539
  102CHL1    C113778   3.202   5.238   6.155  0.2161  0.7073 -0.0453
  102CHL1   H1A13779   3.281   5.227   6.077 -0.5015 -2.5020 -0.4327
  102CHL1   H1B13780   3.156   5.339   6.152  0.4868  0.8093 -1.6801
  102CHL1    C213781   3.247   5.214   6.297  0.1250  0.5677 -0.0357
  102CHL1   H2A13782   3.329   5.286   6.318 -0.3414  1.3920 -0.9740
  102CHL1   H2B13783   3.276   5.108   6.314 -3.7945 -0.6737 -0.1233
  102CHL1   C2013784   2.921   5.067   5.424  0.3841 -0.3406  0.2157
  102CHL1   H2013785   2.932   4.957   5.431 -1.8280 -0.5453  1.6746
  102CHL1   C2113786   3.054   5.134   5.381 -0.0034  0.3910 -0.5879
  102CHL1  H21A13787   3.037   5.243   5.377  0.0108  0.3871 -0.7281
  102CHL1  H21B13788   3.095   5.092   5.287  1.1032  0.6510 -0.2345
  102CHL1  H21C13789   3.135   5.132   5.457  0.9100  2.3830 -1.4468
  102CHL1   C2213790   2.813   5.093   5.312  0.4889 -0.2743 -0.0168
  102CHL1  H22A13791   2.708   5.086   5.348  1.0556  3.7174  3.0706
  102CHL1  H22B13792   2.830   5.200   5.291 -1.4212 -0.2268 -1.5971
  102CHL1   C2313793   2.837   5.014   5.189 -0.2079  0.6424 -0.5799
  102CHL1  H23A13794   2.941   5.003   5.150 -0.4847 -1.4820 -0.8116
  102CHL1  H23B13795   2.807   4.912   5.221  2.1824  0.2858  0.7852
  102CHL1   C2413796   2.745   5.068   5.076 -0.3803  0.4538 -0.2666
  102CHL1  H24A13797   2.639   5.079   5.107 -2.0793 -4.6175 -3.1505
  102CHL1  H24B13798   2.792   5.163   5.044 -0.3457  0.6175  0.2631
  102CHL1   C2513799   2.734   4.983   4.949  0.2905 -0.7810 -0.1993
  102CHL1   H2513800   2.838   4.950   4.927  0.3853 -0.6305  0.0175
  102CHL1   C2613801   2.635   4.871   4.976 -0.3645  0.2443  0.7167
  102CHL1  H26A13802   2.643   4.789   4.901  0.5210 -0.8748  1.9745
  102CHL1  H26B13803   2.666   4.831   5.075  3.1501  2.0519  0.5196
  102CHL1  H26C13804   2.535   4.918   4.982 -0.5462  0.0023 -0.1679
  102CHL1   C2713805   2.682   5.078   4.835 -0.2556  0.2152  0.1035
  102CHL1  H27A13806   2.686   5.007   4.749  1.3283  0.5136 -0.0873
  102CHL1  H27B13807   2.580   5.119   4.854  0.1758  0.6946  1.5399
  102CHL1  H27C13808   2.760   5.154   4.816 -0.3529  0.6521  1.3418
  103CHL1    C313809   4.377   2.672   6.768  0.0135  0.2166  0.0539
  103CHL1    H313810   4.488   2.680   6.768 -0.0361  0.9501 -0.3956
  103CHL1    O313811   4.324   2.683   6.898  0.5791 -0.1540 -0.4579
  103CHL1   H3'13812   4.372   2.747   6.951  1.2934 -1.0737  0.0090
  103CHL1    C413813   4.335   2.800   6.698  0.4867 -0.3520  0.4717
  103CHL1   H4A13814   4.225   2.810   6.708  0.4819  1.6509 -0.9941
  103CHL1   H4B13815   4.381   2.883   6.756 -0.2584  1.2036 -1.0561
  103CHL1    C513816   4.363   2.812   6.546  0.3980  0.1151 -0.4215
  103CHL1    C613817   4.412   2.928   6.490 -0.7630  0.5696  0.4052
  103CHL1    H613818   4.428   3.007   6.564 -0.2888 -0.2823  1.2346
  103CHL1    C713819   4.450   2.955   6.348  0.5687 -0.4286  0.5398
  103CHL1   H7A13820   4.410   3.053   6.312 -0.5026  0.4750  3.8303
  103CHL1   H7B13821   4.560   2.968   6.346  0.5913 -0.3486  1.8065
  103CHL1    C813822   4.405   2.838   6.253 -0.3725 -0.0832  0.2033
  103CHL1    H813823   4.301   2.864   6.224 -0.2032  1.4786  0.8826
  103CHL1   C1413824   4.486   2.833   6.126  0.3959 -0.0223  0.3566
  103CHL1   H1413825   4.584   2.797   6.163  0.6778  0.0743 -0.2908
  103CHL1   C1513826   4.538   2.960   6.051  0.0849 -0.0054  0.4798
  103CHL1  H15A13827   4.445   3.021   6.051 -0.2907 -0.5711  0.1998
  103CHL1  H15B13828   4.616   3.014   6.110  1.0671 -1.3893  0.4943
  103CHL1   C1613829   4.579   2.910   5.914 -0.0069 -1.1499 -0.1426
  103CHL1  H16A13830   4.529   2.980   5.844  0.1890  0.6326  1.4379
  103CHL1  H16B13831   4.690   2.907   5.906  0.0666 -3.5304  0.8930
  103CHL1   C1713832   4.535   2.763   5.900  0.5922 -0.2551 -0.1412
  103CHL1   H1713833   4.618   2.698   5.936 -0.1625 -0.2128  1.7709
  103CHL1   C1313834   4.442   2.731   6.019 -0.6545  0.3385  0.0198
  103CHL1   C1813835   4.299   2.764   5.976  0.5281 -0.1342  0.1284
  103CHL1  H18A13836   4.303   2.855   5.911 -1.6513 -0.5884 -0.7115
  103CHL1  H18B13837   4.258   2.686   5.909 -1.0358 -0.7506  1.7297
  103CHL1  H18C13838   4.223   2.775   6.056  1.0227 -1.2292  0.7618
  103CHL1   C1213839   4.455   2.587   6.085 -1.1505 -0.4578 -0.1245
  103CHL1  H12A13840   4.411   2.510   6.019 -3.5544  1.3811 -0.8212
  103CHL1  H12B13841   4.560   2.561   6.108 -0.6214  0.5124 -1.3449
  103CHL1   C1113842   4.380   2.586   6.217  0.2074 -0.4448 -0.1627
  103CHL1  H11A13843   4.272   2.589   6.190 -0.0614 -0.6450  0.8563
  103CHL1  H11B13844   4.406   2.489   6.264  0.0416  0.2680  1.4687
  103CHL1    C913845   4.414   2.698   6.320 -0.4881 -1.0548  0.4802
  103CHL1    H913846   4.520   2.683   6.351 -1.0002 -0.3036  2.7085
  103CHL1   C1013847   4.333   2.685   6.459 -0.3734 -0.0723  0.0039
  103CHL1   C1913848   4.183   2.672   6.434 -0.3344  0.4151 -0.8240
  103CHL1  H19A13849   4.149   2.744   6.356 -0.9771  2.6777  1.3923
  103CHL1  H19B13850   4.151   2.574   6.393  0.1873  0.3406 -1.0718
  103CHL1  H19C13851   4.117   2.697   6.519  0.5304  1.2881 -0.3787
  103CHL1    C113852   4.383   2.563   6.547  0.2093 -0.7044 -0.3353
  103CHL1   H1A13853   4.350   2.469   6.498 -2.9471 -0.4646  1.1434
  103CHL1   H1B13854   4.494   2.565   6.545  0.2587  0.8289  1.2086
  103CHL1    C213855   4.320   2.556   6.693 -0.5107  0.2995 -0.2465
  103CHL1   H2A13856   4.343   2.461   6.746  1.4029  1.9429  2.1043
  103CHL1   H2B13857   4.210   2.575   6.689 -0.2335  2.2666  0.2413
  103CHL1   C2013858   4.494   2.717   5.758 -1.0341  0.3873 -0.7861
  103CHL1   H2013859   4.400   2.769   5.731 -0.2713  1.3143 -1.7134
  103CHL1   C2113860   4.477   2.563   5.745 -0.4755 -0.2136  0.0653
  103CHL1  H21A13861   4.408   2.521   5.821 -0.5694  0.6832  0.4957
  103CHL1  H21B13862   4.578   2.519   5.760 -0.2640  0.6225  1.3495
  103CHL1  H21C13863   4.443   2.547   5.641 -0.1019  1.8306 -0.4205
  103CHL1   C2213864   4.606   2.770   5.653  0.2191  0.4293 -0.2105
  103CHL1  H22A13865   4.676   2.853   5.676  2.0643 -1.1641  0.1607
  103CHL1  H22B13866   4.663   2.678   5.632 -1.6190 -0.9991  0.7558
  103CHL1   C2313867   4.538   2.806   5.518  0.0797  0.1320 -0.6670
  103CHL1  H23A13868   4.621   2.801   5.444  0.2484  1.2008 -0.5713
  103CHL1  H23B13869   4.463   2.730   5.488  1.3998 -1.8037  0.7082
  103CHL1   C2413870   4.496   2.955   5.515 -0.4940  0.5429  0.7255
  103CHL1  H24A13871   4.419   2.990   5.587 -1.2717  0.3721 -0.0114
  103CHL1  H24B13872   4.587   3.006   5.552  0.2100 -1.4466  1.8982
  103CHL1   C2513873   4.453   3.011   5.378 -0.3075  0.0526  0.7802
  103CHL1   H2513874   4.525   2.974   5.302  1.4659  3.6520  0.5060
  103CHL1   C2613875   4.315   2.962   5.337  0.5845  0.4013 -0.1002
  103CHL1  H26A13876   4.233   3.000   5.401  3.0506  3.3408  1.6329
  103CHL1  H26B13877   4.292   2.983   5.231  0.5733 -2.1175 -0.6741
  103CHL1  H26C13878   4.313   2.851   5.350 -3.4982  0.6007  2.6382
  103CHL1   C2713879   4.451   3.171   5.378  0.2720  0.2499 -0.9349
  103CHL1  H27A13880   4.555   3.209   5.390  0.1716  0.0521  0.9217
  103CHL1  H27B13881   4.394   3.210   5.292  0.9854  2.8164 -0.3160
  103CHL1  H27C13882   4.393   3.193   5.470  1.3830 -1.5817  0.2803
  104CHL1    C313883   5.600   3.985   6.441  0.2895  0.2834  0.2087
  104CHL1    H313884   5.615   3.877   6.420  0.1254  0.3846 -0.4488
  104CHL1    O313885   5.617   4.003   6.577 -0.6200 -0.2679 -0.0332
  104CHL1   H3'13886   5.587   4.092   6.601 -0.0425 -0.5135  1.7615
  104CHL1    C413887   5.721   4.065   6.373  0.1045  0.0407  0.5987
  104CHL1   H4A13888   5.732   4.169   6.413  1.3857 -0.3375  1.2903
  104CHL1   H4B13889   5.819   4.027   6.408  0.5694  0.1687 -0.5270
  104CHL1    C513890   5.712   4.067   6.221 -0.2687  0.6498  0.1918
  104CHL1    C613891   5.820   4.031   6.140  1.0834  0.6426 -0.5403
  104CHL1    H613892   5.914   4.008   6.192 -0.3601 -0.2239  1.8576
  104CHL1    C713893   5.815   4.036   5.989 -0.2133 -1.1480  0.7154
  104CHL1   H7A13894   5.910   4.080   5.952 -1.8001  1.9697 -0.0166
  104CHL1   H7B13895   5.813   3.927   5.965  1.7018 -0.8745 -0.9689
  104CHL1    C813896   5.692   4.107   5.929 -0.2858 -0.1508  0.6654
  104CHL1    H813897   5.717   4.215   5.939  1.2396 -0.5565  1.7114
  104CHL1   C1413898   5.673   4.077   5.784  0.0730 -0.1660 -0.0131
  104CHL1   H1413899   5.656   3.968   5.793 -0.6304  0.0097  0.9514
  104CHL1   C1513900   5.793   4.099   5.684 -0.2457 -0.5620  0.5769
  104CHL1  H15A13901   5.842   4.196   5.707  0.7565 -1.0109  0.3836
  104CHL1  H15B13902   5.871   4.020   5.679  0.7299  0.4449 -0.7771
  104CHL1   C1613903   5.725   4.112   5.543  0.4682 -0.0947 -0.0941
  104CHL1  H16A13904   5.767   4.202   5.494  1.7325 -1.5471 -1.8347
  104CHL1  H16B13905   5.745   4.015   5.492  0.0319 -0.9779  1.3550
  104CHL1   C1713906   5.568   4.113   5.573 -0.0754 -0.0682  0.2991
  104CHL1   H1713907   5.532   4.008   5.569 -0.4749  0.0796  0.0346
  104CHL1   C1313908   5.551   4.147   5.719 -0.4131 -0.1678 -0.5589
  104CHL1   C1813909   5.556   4.303   5.726 -0.0328 -0.5255 -0.2240
  104CHL1  H18A13910   5.652   4.346   5.690  0.3488 -0.7339  0.5270
  104CHL1  H18B13911   5.474   4.349   5.667 -0.3229  0.5819  0.9943
  104CHL1  H18C13912   5.539   4.335   5.831  2.7374 -2.0632  0.7946
  104CHL1   C1213913   5.421   4.092   5.793 -0.6977 -0.2717  0.3005
  104CHL1  H12A13914   5.323   4.142   5.780 -0.7822 -0.4786  0.1322
  104CHL1  H12B13915   5.407   3.985   5.767 -0.0178 -0.2797 -0.0496
  104CHL1   C1113916   5.433   4.109   5.953  0.6166 -0.6887  0.2585
  104CHL1  H11A13917   5.424   4.214   5.985  1.3937  0.1918 -2.1763
  104CHL1  H11B13918   5.350   4.045   5.990  0.8067 -1.5978 -0.8403
  104CHL1    C913919   5.571   4.066   6.013 -0.2655 -0.6153  0.1458
  104CHL1    H913920   5.569   3.955   6.002  5.0082 -1.0992  1.4343
  104CHL1   C1013921   5.575   4.103   6.164  1.1322  0.6142 -0.4960
  104CHL1   C1913922   5.553   4.248   6.191 -0.5756 -0.2226 -0.4965
  104CHL1  H19A13923   5.609   4.317   6.124  1.0990 -1.4042 -0.3652
  104CHL1  H19B13924   5.445   4.273   6.184 -0.3881  0.6460 -0.4880
  104CHL1  H19C13925   5.575   4.268   6.299  0.0383 -1.8744 -0.2922
  104CHL1    C113926   5.459   4.021   6.238  0.8063 -0.4794  0.3809
  104CHL1   H1A13927   5.361   4.063   6.209  1.1297  1.5804  2.0853
  104CHL1   H1B13928   5.449   3.917   6.200 -0.3796 -1.2868  2.7410
  104CHL1    C213929   5.461   4.035   6.394 -0.0269  0.7850  0.2693
  104CHL1   H2A13930   5.382   3.964   6.426  0.4570 -0.1282 -0.4832
  104CHL1   H2B13931   5.461   4.138   6.433 -0.7142  1.0792 -0.4778
  104CHL1   C2013932   5.481   4.181   5.462  0.0242  0.7250 -0.2170
  104CHL1   H2013933   5.501   4.290   5.471  1.1292  0.4055  2.1827
  104CHL1   C2113934   5.328   4.172   5.478 -0.1254 -0.3660 -0.2788
  104CHL1  H21A13935   5.283   4.240   5.403  0.9234  0.4176 -0.2369
  104CHL1  H21B13936   5.302   4.217   5.576 -3.1632 -1.3426 -0.5441
  104CHL1  H21C13937   5.277   4.076   5.456 -2.4610  0.6678  0.3500
  104CHL1   C2213938   5.516   4.140   5.312  0.1492  0.5095 -0.3855
  104CHL1  H22A13939   5.621   4.169   5.290 -0.5793  1.9211 -2.2880
  104CHL1  H22B13940   5.512   4.030   5.298 -0.3232  0.2894  1.2652
  104CHL1   C2313941   5.432   4.210   5.210 -0.3328 -0.2707  0.3432
  104CHL1  H23A13942   5.330   4.170   5.226  0.6421 -2.4140  1.6713
  104CHL1  H23B13943   5.431   4.320   5.228  2.2051  0.0340 -0.9236
  104CHL1   C2413944   5.466   4.180   5.060  0.6943 -0.1068  0.4347
  104CHL1  H24A13945   5.472   4.070   5.068 -0.9713 -0.1970  0.7164
  104CHL1  H24B13946   5.377   4.209   5.000  1.3574  0.2301 -0.4232
  104CHL1   C2513947   5.587   4.235   4.999  0.1157 -0.2232  0.9459
  104CHL1   H2513948   5.669   4.226   5.073  1.6424 -3.7502 -0.8984
  104CHL1   C2613949   5.626   4.148   4.874  0.1549  0.0612  0.3396
  104CHL1  H26A13950   5.632   4.045   4.916 -1.2253 -0.2210 -0.1166
  104CHL1  H26B13951   5.552   4.140   4.792 -0.8082 -4.9959  1.3547
  104CHL1  H26C13952   5.726   4.186   4.845  1.5940 -1.0394  3.3419
  104CHL1   C2713953   5.565   4.391   4.960 -0.2491 -0.0329 -0.6996
  104CHL1  H27A13954   5.651   4.425   4.898  0.0797  2.1356  0.8575
  104CHL1  H27B13955   5.469   4.400   4.903 -1.7613 -2.8950  1.1415
  104CHL1  H27C13956   5.562   4.457   5.048 -0.8260 -0.2927 -0.5183
  105CHL1    C313957   6.874   3.455   6.334 -0.8086 -0.0930  0.0962
  105CHL1    H313958   6.785   3.516   6.306 -1.0812  0.8939  2.8830
  105CHL1    O313959   6.879   3.463   6.476 -0.2866 -0.0834 -0.0861
  105CHL1   H3'13960   6.965   3.429   6.500  0.3800  1.0596 -0.7359
  105CHL1    C413961   6.854   3.305   6.292 -0.6306 -0.6103  0.2094
  105CHL1   H4A13962   6.929   3.235   6.336 -0.1765 -0.6097 -0.5328
  105CHL1   H4B13963   6.764   3.258   6.338 -0.1194 -1.1647  0.6594
  105CHL1    C513964   6.865   3.280   6.145 -0.1023 -0.6800 -0.0406
  105CHL1    C613965   6.768   3.218   6.082 -0.5678  0.0504 -0.1338
  105CHL1    H613966   6.680   3.185   6.140  0.2823  2.1467  2.5932
  105CHL1    C713967   6.772   3.173   5.937 -0.2184 -0.0278 -0.0375
  105CHL1   H7A13968   6.759   3.063   5.941 -0.7461  0.0576  2.6015
  105CHL1   H7B13969   6.702   3.226   5.869  0.2264  2.0013  0.9831
  105CHL1    C813970   6.915   3.204   5.875 -0.2123  0.3756  0.5314
  105CHL1    H813971   6.982   3.119   5.899  0.2937  0.4108 -0.6821
  105CHL1   C1413972   6.906   3.205   5.725 -0.3249 -0.2311 -0.7593
  105CHL1   H1413973   6.847   3.299   5.715 -0.0602  0.4862  2.9671
  105CHL1   C1513974   6.826   3.093   5.650  0.4113 -0.3730  0.4043
  105CHL1  H15A13975   6.843   2.994   5.698 -0.4371 -0.4614  0.5314
  105CHL1  H15B13976   6.717   3.112   5.645  0.6057  0.4273 -1.4294
  105CHL1   C1613977   6.868   3.098   5.499 -0.3941 -0.2812 -0.0355
  105CHL1  H16A13978   6.917   2.999   5.482 -0.0004 -0.2799  1.0433
  105CHL1  H16B13979   6.777   3.100   5.435 -2.3969  0.9027  2.6784
  105CHL1   C1713980   6.977   3.213   5.499  0.0069 -0.7916  0.2224
  105CHL1   H1713981   6.933   3.313   5.481  1.7576 -0.2796 -1.6037
  105CHL1   C1313982   7.032   3.232   5.640 -0.1429 -0.1363 -0.0790
  105CHL1   C1813983   7.136   3.115   5.663 -0.2027 -0.1904  0.0667
  105CHL1  H18A13984   7.102   3.016   5.625 -1.3312  0.2826 -0.1704
  105CHL1  H18B13985   7.238   3.139   5.626  0.3334 -2.9587 -0.5444
  105CHL1  H18C13986   7.156   3.090   5.770  2.4457 -0.4412 -0.4110
  105CHL1   C1213987   7.092   3.370   5.695 -0.3035 -0.4601  0.5920
  105CHL1  H12A13988   7.192   3.384   5.647 -0.3368 -2.2473 -0.0830
  105CHL1  H12B13989   7.026   3.455   5.667  1.0631 -0.3846 -3.0491
  105CHL1   C1113990   7.103   3.368   5.853  0.1589 -0.5558  0.4091
  105CHL1  H11A13991   7.185   3.297   5.879  0.0521 -2.2903 -3.2702
  105CHL1  H11B13992   7.136   3.473   5.863 -0.5133 -0.5481  3.1083
  105CHL1    C913993   6.972   3.341   5.923  0.1799  0.8247 -0.1060
  105CHL1    H913994   6.892   3.416   5.906 -1.2344 -0.6693 -0.3428
  105CHL1   C1013995   6.990   3.345   6.078  0.6208 -0.6262 -0.0273
  105CHL1   C1913996   7.115   3.268   6.122 -0.1229  0.0571  0.5960
  105CHL1  H19A13997   7.120   3.258   6.233 -1.5379  2.3847  0.9432
  105CHL1  H19B13998   7.110   3.169   6.073 -0.1307  0.9503 -1.2951
  105CHL1  H19C13999   7.211   3.311   6.087 -0.1730  0.2831  0.7250
  105CHL1    C114000   6.987   3.496   6.115 -0.5153  0.3607  0.2221
  105CHL1   H1A14001   7.081   3.544   6.080  0.7892 -1.3978  1.1100
  105CHL1   H1B14002   6.900   3.550   6.075 -0.2430  0.6980  0.0861
  105CHL1    C214003   6.999   3.520   6.271  0.6452  0.2237  0.2485
  105CHL1   H2A14004   6.999   3.626   6.304  0.8830  0.2489  0.1735
  105CHL1   H2B14005   7.090   3.469   6.310 -0.6951 -1.5883  1.1597
  105CHL1   C2014006   7.072   3.182   5.380  0.5411 -0.2941 -0.6964
  105CHL1   H2014007   7.120   3.082   5.385 -2.0262 -1.5566 -0.0813
  105CHL1   C2114008   7.195   3.281   5.380 -0.2582  0.2160 -0.2395
  105CHL1  H21A14009   7.275   3.259   5.306  0.3265 -0.3181  0.5208
  105CHL1  H21B14010   7.255   3.273   5.474  1.0182  0.9742 -0.9616
  105CHL1  H21C14011   7.153   3.383   5.377 -3.5701 -0.9954  1.0743
  105CHL1   C2214012   7.000   3.182   5.241 -0.2229  0.1685 -0.3440
  105CHL1  H22A14013   6.911   3.116   5.228  1.4393 -1.7962 -2.7122
  105CHL1  H22B14014   6.963   3.282   5.212 -0.8354  0.1416  0.3139
  105CHL1   C2314015   7.093   3.144   5.123 -0.1293  0.2015 -0.0525
  105CHL1  H23A14016   7.190   3.197   5.135  0.3956 -0.0800 -2.6480
  105CHL1  H23B14017   7.107   3.034   5.132  0.7715  0.2689 -0.6259
  105CHL1   C2414018   7.019   3.186   4.989 -0.4261  0.2970  0.1103
  105CHL1  H24A14019   6.923   3.132   4.977 -1.1841  1.0474  2.4111
  105CHL1  H24B14020   6.999   3.294   5.003  1.8092  0.4594  2.9874
  105CHL1   C2514021   7.109   3.158   4.867 -0.5960 -0.4909  0.1764
  105CHL1   H2514022   7.211   3.190   4.896 -1.2342  1.4244  0.4137
  105CHL1   C2614023   7.126   3.009   4.842  0.2713  0.3830  0.0014
  105CHL1  H26A14024   7.191   2.976   4.758  2.6595 -0.8706  2.1861
  105CHL1  H26B14025   7.178   2.966   4.931 -1.8202 -2.5433 -0.0432
  105CHL1  H26C14026   7.030   2.953   4.843  1.4225 -1.7198 -0.5628
  105CHL1   C2714027   7.066   3.249   4.750  0.2004 -0.4865  0.9248
  105CHL1  H27A14028   6.957   3.244   4.728  0.5666 -0.0471 -1.2069
  105CHL1  H27B14029   7.088   3.358   4.763  1.1647 -0.6739  0.9611
  105CHL1  H27C14030   7.120   3.213   4.660 -0.6922  0.2966  0.0536
  106CHL1    C314031   2.855   3.262   6.917 -0.4871 -0.3079 -0.2123
  106CHL1    H314032   2.760   3.224   6.959  1.0915 -0.0535  4.0985
  106CHL1    O314033   2.910   3.360   7.009  0.4918  0.6462  0.0044
  106CHL1   H3'14034   2.937   3.426   6.945 -0.1029  0.9727  0.0873
  106CHL1    C414035   2.953   3.148   6.914 -0.4341  0.4758 -1.2771
  106CHL1   H4A14036   3.052   3.196   6.898 -0.4455  1.3291  0.8529
  106CHL1   H4B14037   2.958   3.106   7.016  0.1697 -0.4732 -1.6834
  106CHL1    C514038   2.926   3.042   6.809  0.2306  0.1190  0.1149
  106CHL1    C614039   2.918   2.908   6.842  0.4480  0.6441 -0.1183
  106CHL1    H614040   2.926   2.880   6.948 -0.9812  0.5530 -0.0203
  106CHL1    C714041   2.883   2.800   6.739  0.2419 -0.0861 -0.3561
  106CHL1   H7A14042   2.946   2.711   6.764  1.8170  1.6372  2.3102
  106CHL1   H7B14043   2.779   2.763   6.753  0.8421 -2.1651 -0.9603
  106CHL1    C814044   2.909   2.848   6.597  0.9225 -0.4739 -0.0988
  106CHL1    H814045   3.019   2.844   6.582  0.8210  0.4045 -1.2072
  106CHL1   C1414046   2.852   2.756   6.495 -0.2404  0.1855  0.0750
  106CHL1   H1414047   2.743   2.744   6.515 -0.7723  0.5000 -2.3202
  106CHL1   C1514048   2.895   2.608   6.501  0.1997  0.4078  0.1197
  106CHL1  H15A14049   3.004   2.597   6.521  0.2156  0.4359  0.0485
  106CHL1  H15B14050   2.843   2.552   6.581 -1.4052  0.3354 -0.9405
  106CHL1   C1614051   2.860   2.540   6.366 -1.7915 -0.1667 -1.0151
  106CHL1  H16A14052   2.949   2.503   6.311 -1.2458 -1.1879  0.4756
  106CHL1  H16B14053   2.784   2.460   6.383  0.7325 -2.9235 -1.9413
  106CHL1   C1714054   2.805   2.656   6.285 -0.5599 -0.3757 -0.0749
  106CHL1   H1714055   2.699   2.673   6.313 -0.7304  1.5548 -1.6627
  106CHL1   C1314056   2.871   2.781   6.345 -0.5187  1.0665 -0.4175
  106CHL1   C1814057   3.021   2.797   6.303  0.1558 -0.5523  0.3608
  106CHL1  H18A14058   3.035   2.805   6.193  0.6221 -0.0020  0.4552
  106CHL1  H18B14059   3.072   2.883   6.352  0.4740  0.7595 -2.0648
  106CHL1  H18C14060   3.082   2.712   6.337 -2.1389 -2.3043  0.3642
  106CHL1   C1214061   2.792   2.913   6.319 -0.3794 -0.5100  0.1434
  106CHL1  H12A14062   2.816   2.957   6.220  1.2363  0.0375  0.7525
  106CHL1  H12B14063   2.682   2.892   6.320 -0.5219  0.0254 -1.3130
  106CHL1   C1114064   2.835   3.021   6.428 -0.1538  0.7899 -0.7762
  106CHL1  H11A14065   2.936   3.055   6.395  0.8176 -1.7004 -0.5653
  106CHL1  H11B14066   2.765   3.107   6.426  0.2445  1.1344 -0.2333
  106CHL1    C914067   2.849   2.985   6.582 -0.2398 -0.5638  0.0101
  106CHL1    H914068   2.743   2.988   6.617 -0.3347 -0.6892 -0.2530
  106CHL1   C1014069   2.913   3.091   6.667 -0.7108 -0.1447  0.2666
  106CHL1   C1914070   3.053   3.122   6.620  0.3164 -0.7675  0.5782
  106CHL1  H19A14071   3.051   3.162   6.516 -3.5099  0.8532  1.1209
  106CHL1  H19B14072   3.094   3.203   6.685  1.7847  1.2425 -2.6005
  106CHL1  H19C14073   3.129   3.041   6.627  0.8014 -0.5821 -1.7417
  106CHL1    C114074   2.825   3.217   6.668 -0.4210 -0.2834 -0.6672
  106CHL1   H1A14075   2.836   3.264   6.568 -1.2945 -1.6649 -1.4417
  106CHL1   H1B14076   2.717   3.195   6.678 -0.1125 -0.7612  3.1382
  106CHL1    C214077   2.861   3.322   6.779 -0.5433 -0.3692  0.4884
  106CHL1   H2A14078   2.802   3.414   6.760  0.5929  0.4065  0.5886
  106CHL1   H2B14079   2.971   3.341   6.777 -0.5822 -0.1626  0.0447
  106CHL1   C2014080   2.812   2.625   6.133 -0.1722  0.1798  0.7348
  106CHL1   H2014081   2.920   2.615   6.106 -0.1934  1.1317  0.2452
  106CHL1   C2114082   2.759   2.745   6.054  0.1662 -0.3152  0.1006
  106CHL1  H21A14083   2.732   2.722   5.949  0.3849  0.6149 -0.1711
  106CHL1  H21B14084   2.840   2.822   6.056  1.2341 -1.3246 -1.4961
  106CHL1  H21C14085   2.670   2.780   6.110  0.5161 -0.1162  0.5411
  106CHL1   C2214086   2.743   2.496   6.098 -0.3052  0.1840 -0.8626
  106CHL1  H22A14087   2.781   2.470   5.997  0.9482  1.3070 -0.7050
  106CHL1  H22B14088   2.768   2.408   6.162 -0.7254  0.0548 -0.8754
  106CHL1   C2314089   2.586   2.498   6.104 -0.3911  0.1690  0.4653
  106CHL1  H23A14090   2.559   2.523   6.209 -0.2347 -1.4474  0.9046
  106CHL1  H23B14091   2.543   2.566   6.027 -1.1758 -1.3061 -0.4469
  106CHL1   C2414092   2.526   2.360   6.072  0.2194  0.0648 -0.1027
  106CHL1  H24A14093   2.559   2.315   5.977 -0.3101  0.4723 -0.4859
  106CHL1  H24B14094   2.561   2.285   6.147  0.9240  2.0668  1.6872
  106CHL1   C2514095   2.367   2.358   6.062 -0.0609  0.4770 -0.3615
  106CHL1   H2514096   2.324   2.397   6.157 -2.3833 -2.1368 -0.2388
  106CHL1   C2614097   2.305   2.433   5.939 -0.3107 -0.1376 -0.1173
  106CHL1  H26A14098   2.194   2.429   5.938 -0.4892  1.5276  2.6689
  106CHL1  H26B14099   2.329   2.540   5.956 -0.0056  0.5206 -3.8513
  106CHL1  H26C14100   2.350   2.402   5.843 -0.8092 -0.2900 -0.3064
  106CHL1   C2714101   2.315   2.206   6.058 -0.1481 -0.5479 -0.1955
  106CHL1  H27A14102   2.204   2.209   6.055 -0.1731  1.1469  1.0647
  106CHL1  H27B14103   2.357   2.174   5.960 -0.8368 -1.1365 -0.3093
  106CHL1  H27C14104   2.360   2.140   6.135 -0.6339 -1.6625 -0.8373
  107CHL1    C314105   4.232   6.226   6.552  0.0975 -0.2986  0.3189
  107CHL1    H314106   4.269   6.315   6.497 -0.1467  0.4899  1.3875
  107CHL1    O314107   4.237   6.256   6.689  0.4092  0.2157 -0.0272
  107CHL1   H3'14108   4.322   6.293   6.715  1.6222 -3.0471  1.2174
  107CHL1    C414109   4.091   6.197   6.509 -0.1339  0.5319 -0.4499
  107CHL1   H4A14110   4.042   6.117   6.569  0.5099  0.1055 -0.4965
  107CHL1   H4B14111   4.028   6.285   6.536  0.6591  1.1189 -0.4842
  107CHL1    C514112   4.082   6.174   6.363  0.1341  0.0830 -0.2910
  107CHL1    C614113   4.022   6.262   6.281  0.2067  0.0641 -0.6196
  107CHL1    H614114   3.963   6.347   6.318  0.5447 -0.1317  0.3847
  107CHL1    C714115   3.999   6.233   6.133 -0.8434  1.0300  0.2154
  107CHL1   H7A14116   3.902   6.267   6.091 -1.2952  1.3307  1.4538
  107CHL1   H7B14117   4.070   6.290   6.070  0.7925  0.1201  1.1710
  107CHL1    C814118   4.031   6.086   6.103 -0.4784 -0.0583 -0.3340
  107CHL1    H814119   3.948   6.023   6.141 -1.4241  1.6127  0.4809
  107CHL1   C1414120   4.042   6.072   5.954  0.2363 -0.3691  0.2937
  107CHL1   H1414121   4.118   6.144   5.916  1.1066 -2.0503 -1.3609
  107CHL1   C1514122   3.912   6.104   5.872 -0.3897 -0.1309  0.6683
  107CHL1  H15A14123   3.821   6.058   5.915  0.5229 -1.7547  0.9629
  107CHL1  H15B14124   3.900   6.214   5.864  0.1970  0.0262  1.8136
  107CHL1   C1614125   3.942   6.046   5.734  0.0777 -0.2985 -0.4270
  107CHL1  H16A14126   3.855   5.983   5.706  2.0715 -3.4869  0.0601
  107CHL1  H16B14127   3.955   6.123   5.655  1.7069  1.8062  1.7488
  107CHL1   C1714128   4.074   5.960   5.748  0.1711  0.2165 -0.1939
  107CHL1   H1714129   4.150   6.034   5.715  0.9484  0.0972  1.2546
  107CHL1   C1314130   4.090   5.941   5.903 -0.1313  0.9523 -0.0567
  107CHL1   C1814131   3.995   5.823   5.950  0.1122  0.0152 -0.0248
  107CHL1  H18A14132   3.890   5.841   5.921 -0.0345  0.0939  0.5572
  107CHL1  H18B14133   4.024   5.727   5.901  2.4682  1.0237 -0.7715
  107CHL1  H18C14134   3.997   5.804   6.059 -0.5594  1.2780  0.2246
  107CHL1   C1214135   4.240   5.924   5.943 -0.0127 -0.6316  0.4006
  107CHL1  H12A14136   4.296   5.831   5.918  0.9439  0.0578 -0.0896
  107CHL1  H12B14137   4.288   6.010   5.891 -2.3188  1.0240  0.8334
  107CHL1   C1114138   4.241   5.926   6.096 -0.7649 -0.0799  0.3353
  107CHL1  H11A14139   4.188   5.834   6.129 -1.1580 -1.1503 -2.8789
  107CHL1  H11B14140   4.348   5.921   6.124 -1.0165  0.1193  1.3416
  107CHL1    C914141   4.172   6.053   6.160  0.0210  0.2512 -0.8650
  107CHL1    H914142   4.236   6.139   6.132 -1.7548  1.4038 -1.4911
  107CHL1   C1014143   4.164   6.055   6.313  0.2232  0.1401 -0.7330
  107CHL1   C1914144   4.114   5.921   6.373  0.0889  0.8617  0.0761
  107CHL1  H19A14145   4.010   5.907   6.336 -0.3290 -1.8623  1.9999
  107CHL1  H19B14146   4.179   5.834   6.350  0.8749  1.5618 -0.4270
  107CHL1  H19C14147   4.101   5.916   6.483  1.1667 -0.1866  0.1777
  107CHL1    C114148   4.304   6.070   6.365 -0.0814  0.1536 -0.2957
  107CHL1   H1A14149   4.365   5.979   6.351  0.8645  0.7458 -0.1259
  107CHL1   H1B14150   4.363   6.146   6.309  1.4617  0.1936  1.2767
  107CHL1    C214151   4.325   6.109   6.513  0.1840 -0.3890 -0.1691
  107CHL1   H2A14152   4.431   6.138   6.532  0.2263 -1.4695  1.3942
  107CHL1   H2B14153   4.309   6.019   6.576  0.0678 -0.5516 -0.4320
  107CHL1   C2014154   4.076   5.837   5.654  0.0694  0.1783 -0.5292
  107CHL1   H2014155   3.990   5.781   5.695 -0.5709  0.8528 -0.9222
  107CHL1   C2114156   4.203   5.758   5.671 -0.0128  0.5368  0.2535
  107CHL1  H21A14157   4.219   5.726   5.776 -4.3963  1.7647  1.4733
  107CHL1  H21B14158   4.293   5.820   5.648  1.4726 -1.4173  0.5330
  107CHL1  H21C14159   4.217   5.672   5.603  1.4794 -0.1226  1.3303
  107CHL1   C2214160   4.050   5.879   5.502  0.2099 -0.0648  0.7345
  107CHL1  H22A14161   3.978   5.963   5.490  0.1060  0.0448  2.0487
  107CHL1  H22B14162   4.142   5.911   5.449 -1.0187  0.2329 -1.3632
  107CHL1   C2314163   3.988   5.762   5.420  0.2481 -0.9588  0.2213
  107CHL1  H23A14164   3.994   5.672   5.485 -1.9713  0.1788  2.1780
  107CHL1  H23B14165   3.877   5.768   5.422  0.2400  0.5678 -2.0795
  107CHL1   C2414166   4.038   5.741   5.278  0.8877  1.1534  0.2660
  107CHL1  H24A14167   4.147   5.718   5.279  0.8851  1.1221 -0.1471
  107CHL1  H24B14168   3.991   5.647   5.243  0.4102  1.4527  0.1046
  107CHL1   C2514169   4.011   5.855   5.184 -0.0298  0.4119  0.6680
  107CHL1   H2514170   4.035   5.940   5.251 -0.5326  0.5986  0.6192
  107CHL1   C2614171   4.097   5.856   5.056  0.3161 -0.1618 -0.5058
  107CHL1  H26A14172   4.097   5.963   5.026 -0.4317 -0.4394 -1.5526
  107CHL1  H26B14173   4.203   5.825   5.070  0.5212  1.0423  0.9693
  107CHL1  H26C14174   4.041   5.801   4.978  1.2849 -1.3110 -0.4246
  107CHL1   C2714175   3.867   5.882   5.144 -0.4381 -0.3574 -0.5721
  107CHL1  H27A14176   3.807   5.916   5.231 -1.0275  0.9944 -1.4674
  107CHL1  H27B14177   3.859   5.968   5.074 -0.5540 -0.7864 -1.0890
  107CHL1  H27C14178   3.822   5.793   5.094 -0.4205 -0.1804 -0.9096
  108CHL1    C314179   7.044   2.786   6.630 -1.0130  0.2528  0.1097
  108CHL1    H314180   7.056   2.683   6.669  2.0339  0.0120 -1.1613
  108CHL1    O314181   7.043   2.883   6.738 -0.5050  0.1261 -0.6768
  108CHL1   H3'14182   7.083   2.964   6.707 -1.6493  1.4360  1.0970
  108CHL1    C414183   7.156   2.821   6.526 -0.1210 -0.1220  0.2225
  108CHL1   H4A14184   7.157   2.931   6.508  1.0011 -0.2413 -0.5674
  108CHL1   H4B14185   7.256   2.806   6.572  1.1337  1.0217 -1.9508
  108CHL1    C514186   7.149   2.752   6.390 -0.1087  0.2582  0.8942
  108CHL1    C614187   7.250   2.679   6.343 -0.2235  0.4450  0.8563
  108CHL1    H614188   7.349   2.677   6.392 -0.2130  0.2587  0.8264
  108CHL1    C714189   7.241   2.602   6.208  0.3274 -0.0248 -0.0767
  108CHL1   H7A14190   7.340   2.594   6.157  1.4538  1.0652  1.7988
  108CHL1   H7B14191   7.217   2.495   6.224  0.4729 -0.3638 -1.8753
  108CHL1    C814192   7.129   2.656   6.117  0.6819  0.2164 -0.5279
  108CHL1    H814193   7.151   2.755   6.072  0.0479  0.5456 -0.1234
  108CHL1   C1414194   7.104   2.569   5.995  0.6190 -0.7957 -0.4022
  108CHL1   H1414195   7.079   2.471   6.042 -1.2365 -0.5358 -0.7637
  108CHL1   C1514196   7.237   2.547   5.916  0.5574  0.7773  0.6989
  108CHL1  H15A14197   7.285   2.646   5.900 -0.4689  1.1923  0.0985
  108CHL1  H15B14198   7.316   2.490   5.968  0.3368  0.5610  0.7983
  108CHL1   C1614199   7.185   2.488   5.786 -0.0456 -0.3161 -0.0857
  108CHL1  H16A14200   7.223   2.562   5.711 -1.2458  0.5645  0.1557
  108CHL1  H16B14201   7.232   2.390   5.760 -0.7705 -0.8656  0.6347
  108CHL1   C1714202   7.024   2.484   5.791 -0.2437 -0.6099 -0.1767
  108CHL1   H1714203   6.993   2.401   5.858  2.1183 -1.2210  0.2513
  108CHL1   C1314204   6.991   2.597   5.894 -0.2295 -0.4182  0.3850
  108CHL1   C1814205   7.010   2.727   5.820  0.1888  0.0189 -0.3945
  108CHL1  H18A14206   6.999   2.814   5.888 -0.5238 -0.7476  0.4990
  108CHL1  H18B14207   7.114   2.728   5.780  1.1126  1.4944  1.8912
  108CHL1  H18C14208   6.937   2.737   5.736  1.6965 -3.0619 -2.2805
  108CHL1   C1214209   6.858   2.603   5.977  0.2048  0.3670  1.2885
  108CHL1  H12A14210   6.779   2.632   5.906  0.2433 -1.4380  0.4463
  108CHL1  H12B14211   6.840   2.499   6.011  1.7276 -0.4904 -0.3448
  108CHL1   C1114212   6.869   2.696   6.101  0.3544 -0.3124  0.4954
  108CHL1  H11A14213   6.879   2.802   6.069 -0.1776 -1.1198 -2.7251
  108CHL1  H11B14214   6.780   2.679   6.165 -0.1650 -0.8117 -0.3297
  108CHL1    C914215   6.993   2.670   6.193 -1.2680 -0.6605  0.2183
  108CHL1    H914216   6.982   2.566   6.230  1.6263 -1.6643 -1.4698
  108CHL1   C1014217   7.011   2.762   6.322  0.0040 -0.3159 -0.3425
  108CHL1   C1914218   7.005   2.908   6.273  0.3644  0.5807  0.1232
  108CHL1  H19A14219   7.085   2.916   6.197 -0.4890 -0.9963 -1.0016
  108CHL1  H19B14220   6.905   2.931   6.231 -1.4866 -1.7699  2.8986
  108CHL1  H19C14221   7.032   2.979   6.354  4.2745 -0.9667  0.3981
  108CHL1    C114222   6.898   2.724   6.421  0.1045  0.1396  0.2913
  108CHL1   H1A14223   6.793   2.744   6.389 -0.3960 -2.0106  0.4504
  108CHL1   H1B14224   6.898   2.616   6.446  2.4227  0.3864  1.6133
  108CHL1    C214225   6.905   2.797   6.560  0.5694  0.2337  0.1564
  108CHL1   H2A14226   6.839   2.747   6.634 -0.6122  2.5441  0.7449
  108CHL1   H2B14227   6.864   2.899   6.542 -0.5631 -0.4454 -1.3267
  108CHL1   C2014228   6.948   2.463   5.654  0.7229 -0.0785 -0.8538
  108CHL1   H2014229   6.957   2.560   5.601  0.1467 -0.0421 -0.8941
  108CHL1   C2114230   6.802   2.414   5.679 -0.1662 -0.5047 -0.0035
  108CHL1  H21A14231   6.738   2.492   5.725  0.9367  1.2526 -1.2953
  108CHL1  H21B14232   6.801   2.326   5.747 -0.1591 -0.9365 -0.5536
  108CHL1  H21C14233   6.752   2.386   5.584 -0.6973 -0.1416  0.1650
  108CHL1   C2214234   7.014   2.359   5.562 -0.0688 -0.1569  0.2251
  108CHL1  H22A14235   7.123   2.360   5.578  0.2764 -0.3017 -1.8104
  108CHL1  H22B14236   6.981   2.260   5.599  1.1832 -0.4178  0.6807
  108CHL1   C2314237   6.987   2.387   5.406  0.0056 -0.3654 -0.4458
  108CHL1  H23A14238   6.882   2.414   5.385 -0.0498 -1.7968 -2.2492
  108CHL1  H23B14239   7.054   2.466   5.367 -0.8381  1.4640  1.6221
  108CHL1   C2414240   7.004   2.252   5.335  0.7656  0.3798 -0.2694
  108CHL1  H24A14241   7.114   2.242   5.335  0.9228  1.7778  0.6481
  108CHL1  H24B14242   6.945   2.173   5.387  0.5428  1.0266  0.4832
  108CHL1   C2514243   6.953   2.259   5.196 -0.6023 -0.0347 -0.0084
  108CHL1   H2514244   6.944   2.368   5.174 -0.6540  0.2083  1.1726
  108CHL1   C2614245   7.036   2.174   5.097 -0.9385  0.6575  0.6821
  108CHL1  H26A14246   7.017   2.069   5.127 -1.7470  0.9242  1.1253
  108CHL1  H26B14247   7.003   2.194   4.992  1.2954 -1.6055 -0.5674
  108CHL1  H26C14248   7.141   2.208   5.109 -0.6054 -0.7521  2.0458
  108CHL1   C2714249   6.807   2.207   5.186  0.0416  0.0825  0.1864
  108CHL1  H27A14250   6.801   2.099   5.211 -1.5898 -1.0236 -4.1077
  108CHL1  H27B14251   6.752   2.272   5.258  1.0658 -0.0003  1.0782
  108CHL1  H27C14252   6.771   2.231   5.084  0.1359  0.7162  0.2989
  109CHL1    C314253   2.972   6.207   6.538  0.7493 -0.1210 -0.9485
  109CHL1    H314254   2.878   6.266   6.524  0.9087 -0.0832 -1.9843
  109CHL1    O314255   3.006   6.191   6.675  0.1549 -0.2832  0.1321
  109CHL1   H3'14256   3.098   6.172   6.658  0.3814 -0.1389  1.1797
  109CHL1    C414257   2.947   6.072   6.475 -1.2587  0.5015  0.0820
  109CHL1   H4A14258   3.041   6.014   6.482 -0.9604  1.1885  2.9845
  109CHL1   H4B14259   2.878   6.010   6.538  0.1458 -0.1325  1.0477
  109CHL1    C514260   2.913   6.085   6.329 -0.4217 -0.4576  0.0299
  109CHL1    C614261   2.804   6.028   6.285 -0.0627  1.1031 -0.4695
  109CHL1    H614262   2.739   5.973   6.355 -0.4937  0.9351 -0.9908
  109CHL1    C714263   2.774   6.019   6.140 -0.0532  0.6376  0.6009
  109CHL1   H7A14264   2.744   5.915   6.118  0.6433  0.8294 -1.4837
  109CHL1   H7B14265   2.691   6.091   6.125 -0.2788  0.3773  0.5992
  109CHL1    C814266   2.884   6.069   6.043  0.8188  0.4757  0.1782
  109CHL1    H814267   2.960   5.989   6.030  1.1399  1.0801 -2.1665
  109CHL1   C1414268   2.825   6.112   5.902 -0.3919  0.0886 -0.1227
  109CHL1   H1414269   2.755   6.197   5.916 -2.8306 -1.5841 -1.3608
  109CHL1   C1514270   2.725   6.020   5.826 -0.0164 -0.1587 -0.3739
  109CHL1  H15A14271   2.771   5.919   5.832  0.6621  0.1755  0.2987
  109CHL1  H15B14272   2.619   6.016   5.857  0.0589 -3.0858 -0.2158
  109CHL1   C1614273   2.733   6.064   5.684 -0.2544 -0.2265 -0.6411
  109CHL1  H16A14274   2.762   5.977   5.622 -0.3104  1.2911 -2.9266
  109CHL1  H16B14275   2.633   6.089   5.643 -1.2562 -0.0447  1.7621
  109CHL1   C1714276   2.839   6.183   5.674  0.1156  0.2137 -0.6872
  109CHL1   H1714277   2.790   6.279   5.699 -2.0303 -0.9292 -0.2232
  109CHL1   C1314278   2.924   6.157   5.800  0.2356  0.0356  0.0035
  109CHL1   C1814279   3.021   6.037   5.770  0.3411 -0.4113  0.6890
  109CHL1  H18A14280   2.971   5.964   5.703  0.2285  0.8078 -0.5996
  109CHL1  H18B14281   3.099   6.081   5.705 -0.3442 -0.8245 -0.4233
  109CHL1  H18C14282   3.059   5.992   5.865 -1.5975  0.2921  1.8690
  109CHL1   C1214283   3.001   6.274   5.861 -0.7276 -0.1071  0.4633
  109CHL1  H12A14284   3.087   6.295   5.793 -1.8831 -0.4290 -1.1609
  109CHL1  H12B14285   2.939   6.366   5.868 -2.1924 -0.9094 -1.1987
  109CHL1   C1114286   3.059   6.242   5.998  0.1878 -0.5349  0.1681
  109CHL1  H11A14287   3.136   6.164   5.981 -1.1285 -2.0372  0.7843
  109CHL1  H11B14288   3.098   6.336   6.044  1.3017 -1.8007  1.9608
  109CHL1    C914289   2.957   6.190   6.097  0.4645  0.0856  0.1594
  109CHL1    H914290   2.877   6.266   6.110 -0.9926 -1.1122 -1.2891
  109CHL1   C1014291   3.013   6.164   6.240 -0.4216 -0.0598 -0.6320
  109CHL1   C1914292   3.154   6.090   6.231  0.3823  0.0633  0.1442
  109CHL1  H19A14293   3.143   5.994   6.176  0.4203 -0.5368  1.1575
  109CHL1  H19B14294   3.222   6.164   6.185  1.6979 -0.2253  1.5272
  109CHL1  H19C14295   3.199   6.067   6.330  0.1369 -0.5092  0.1286
  109CHL1    C114296   3.044   6.298   6.317  0.1492 -0.4780 -0.2315
  109CHL1   H1A14297   3.113   6.369   6.268 -2.7814  3.0908  0.3540
  109CHL1   H1B14298   2.949   6.356   6.313  0.1920 -0.3692  0.2775
  109CHL1    C214299   3.084   6.290   6.468 -0.5315  0.0228  0.0726
  109CHL1   H2A14300   3.091   6.397   6.497  1.9578  0.6779 -2.4734
  109CHL1   H2B14301   3.184   6.244   6.487  0.8047  2.2809 -1.1362
  109CHL1   C2014302   2.909   6.190   5.536 -0.2535  1.0901 -0.2901
  109CHL1   H2014303   2.971   6.099   5.521  1.4535  2.4592 -2.1333
  109CHL1   C2114304   3.012   6.298   5.519  0.5385 -0.2070 -0.2908
  109CHL1  H21A14305   3.034   6.328   5.415 -1.1121  0.5249 -0.4626
  109CHL1  H21B14306   3.103   6.257   5.570  2.0951  0.3951 -2.4481
  109CHL1  H21C14307   2.968   6.389   5.566  2.1899  0.5880 -0.2110
  109CHL1   C2214308   2.808   6.184   5.423 -0.0492  0.3631 -0.6759
  109CHL1  H22A14309   2.741   6.096   5.433  0.8635 -0.4488 -1.4600
  109CHL1  H22B14310   2.743   6.274   5.423 -1.0676 -0.3054  1.2562
  109CHL1   C2314311   2.881   6.171   5.290  0.1899  0.0756  0.0467
  109CHL1  H23A14312   2.920   6.270   5.257 -3.7656  2.1780  1.0174
  109CHL1  H23B14313   2.970   6.108   5.310  1.1002  0.8415 -1.3838
  109CHL1   C2414314   2.786   6.107   5.180 -0.3206 -0.0010 -0.0889
  109CHL1  H24A14315   2.765   6.000   5.200  0.6247 -0.2169 -0.2109
  109CHL1  H24B14316   2.696   6.172   5.178 -0.3005  0.0189 -0.3482
  109CHL1   C2514317   2.846   6.125   5.041  0.3857 -0.0894  0.5218
  109CHL1   H2514318   2.863   6.233   5.021  0.9351 -0.3285 -0.3212
  109CHL1   C2614319   2.966   6.030   5.026 -0.5397 -0.4020  0.2515
  109CHL1  H26A14320   3.004   6.034   4.922  4.1534 -0.8661  1.6992
  109CHL1  H26B14321   3.049   6.060   5.094 -0.2263  1.3257 -0.8147
  109CHL1  H26C14322   2.931   5.927   5.049 -1.1861  0.0854  1.6261
  109CHL1   C2714323   2.740   6.089   4.938  0.7273  0.0388 -0.1126
  109CHL1  H27A14324   2.657   6.162   4.951  0.7207 -0.1596  1.1835
  109CHL1  H27B14325   2.783   6.114   4.839  0.8995 -0.3552 -0.1389
  109CHL1  H27C14326   2.693   5.989   4.949  0.9258 -0.2322 -1.5593
  110CHL1    C314327   1.832   5.554   6.012 -0.3796  0.6867  0.2864
  110CHL1    H314328   1.913   5.492   5.966 -1.0642 -0.2850  0.3531
  110CHL1    O314329   1.839   5.534   6.146 -0.5402  0.0459 -0.3408
  110CHL1   H3'14330   1.754   5.552   6.188  0.1647  0.2458  1.0542
  110CHL1    C414331   1.865   5.701   5.994  0.3784  0.1830 -0.1022
  110CHL1   H4A14332   1.798   5.758   6.061  0.2421 -0.8476  0.6536
  110CHL1   H4B14333   1.970   5.720   6.024  0.8281 -0.9744 -0.8519
  110CHL1    C514334   1.843   5.739   5.851  0.3713 -0.2518 -0.4357
  110CHL1    C614335   1.939   5.791   5.784  0.1342 -0.4943  0.1455
  110CHL1    H614336   2.040   5.796   5.829 -0.9237 -0.4123  2.6645
  110CHL1    C714337   1.939   5.816   5.637  0.0750  0.8279  0.2393
  110CHL1   H7A14338   1.982   5.912   5.602  0.4597  0.2552 -0.8966
  110CHL1   H7B14339   1.995   5.733   5.589 -1.3680 -0.6430  0.9980
  110CHL1    C814340   1.799   5.799   5.569  0.0929  0.0616 -0.2563
  110CHL1    H814341   1.746   5.892   5.597  0.8472 -0.1559  2.0730
  110CHL1   C1414342   1.808   5.793   5.417  0.1805  0.8369 -0.0087
  110CHL1   H1414343   1.858   5.698   5.389 -0.0275  0.7087  0.0539
  110CHL1   C1514344   1.889   5.904   5.342  0.8764 -0.2113 -0.4136
  110CHL1  H15A14345   1.867   6.001   5.391 -0.3643 -0.6695 -0.0119
  110CHL1  H15B14346   1.998   5.892   5.358  0.9879  1.3649  0.2170
  110CHL1   C1614347   1.848   5.904   5.194  0.0360 -0.3114  0.5138
  110CHL1  H16A14348   1.813   6.006   5.170 -2.0824 -0.6451  1.9219
  110CHL1  H16B14349   1.926   5.873   5.121 -0.0056 -0.6212  0.5994
  110CHL1   C1714350   1.733   5.797   5.189 -0.7935 -0.8247 -0.2310
  110CHL1   H1714351   1.791   5.703   5.170 -0.1212 -0.4679  0.0127
  110CHL1   C1314352   1.681   5.787   5.344 -0.4725  0.4538 -0.2525
  110CHL1   C1814353   1.588   5.912   5.369  0.4656  0.3820  0.4617
  110CHL1  H18A14354   1.643   6.003   5.337 -0.8358  0.9174 -0.3316
  110CHL1  H18B14355   1.492   5.899   5.315  0.0169  0.5420  1.2015
  110CHL1  H18C14356   1.568   5.916   5.478  0.1045 -0.3274  0.4249
  110CHL1   C1214357   1.608   5.662   5.396 -0.6790 -0.0053 -0.1758
  110CHL1  H12A14358   1.514   5.641   5.342  1.0000  0.3526 -3.4801
  110CHL1  H12B14359   1.674   5.577   5.370 -1.6558 -1.0203  0.6084
  110CHL1   C1114360   1.594   5.655   5.551  0.6550  0.8453  0.4824
  110CHL1  H11A14361   1.518   5.732   5.577 -1.0451 -1.1113  1.5566
  110CHL1  H11B14362   1.558   5.555   5.580  0.2033  1.3619  1.7519
  110CHL1    C914363   1.727   5.680   5.627  0.1739 -0.2316  0.3775
  110CHL1    H914364   1.788   5.593   5.596  3.2736  2.6046 -2.3511
  110CHL1   C1014365   1.714   5.682   5.783 -0.9467 -0.3819  0.3153
  110CHL1   C1914366   1.608   5.790   5.823  0.4208 -0.1973 -0.2038
  110CHL1  H19A14367   1.604   5.809   5.933  1.7106 -0.9975  0.0042
  110CHL1  H19B14368   1.615   5.882   5.761 -0.7322 -1.0346 -1.6464
  110CHL1  H19C14369   1.504   5.752   5.813  0.1858 -0.4496  2.4461
  110CHL1    C114370   1.673   5.535   5.822  0.1157  0.3836 -1.1604
  110CHL1   H1A14371   1.562   5.529   5.813 -0.0185 -1.6327  1.0132
  110CHL1   H1B14372   1.736   5.454   5.780 -0.3440 -0.1284 -0.8664
  110CHL1    C214373   1.691   5.509   5.975 -0.2183  0.8772 -0.2010
  110CHL1   H2A14374   1.699   5.401   6.001  4.2057  0.7600 -1.1128
  110CHL1   H2B14375   1.613   5.562   6.034 -0.6802  0.4628 -0.4325
  110CHL1   C2014376   1.634   5.828   5.079 -0.7164 -0.6169 -0.2323
  110CHL1   H2014377   1.589   5.925   5.110 -1.6566 -1.2946  0.6195
  110CHL1   C2114378   1.529   5.716   5.074 -0.5749  0.6165 -0.5235
  110CHL1  H21A14379   1.577   5.617   5.090 -2.2549  0.2335  3.2654
  110CHL1  H21B14380   1.476   5.709   4.977 -0.7304  1.5195 -0.5160
  110CHL1  H21C14381   1.459   5.731   5.159 -1.5000 -0.2354 -1.1108
  110CHL1   C2214382   1.697   5.851   4.939 -0.4342  0.4630  0.3466
  110CHL1  H22A14383   1.627   5.906   4.872  0.5364  0.5926 -0.5864
  110CHL1  H22B14384   1.783   5.921   4.935  1.3682 -1.7135 -1.6588
  110CHL1   C2314385   1.742   5.728   4.860 -0.2519 -0.4353  0.2902
  110CHL1  H23A14386   1.821   5.666   4.909  0.5742  0.0615 -0.4000
  110CHL1  H23B14387   1.652   5.666   4.841 -0.1667 -1.3473  2.5440
  110CHL1   C2414388   1.803   5.769   4.722  0.4429  0.2047  0.0198
  110CHL1  H24A14389   1.735   5.833   4.660 -2.3963 -1.8114  0.8463
  110CHL1  H24B14390   1.893   5.833   4.734  0.5276  0.1675 -0.3955
  110CHL1   C2514391   1.831   5.645   4.633  0.1398  0.0466 -0.0685
  110CHL1   H2514392   1.901   5.575   4.682 -2.6230 -1.8807  1.3875
  110CHL1   C2614393   1.710   5.558   4.601  0.3223  0.5409  0.1704
  110CHL1  H26A14394   1.627   5.608   4.546  0.2518 -1.4840 -1.6762
  110CHL1  H26B14395   1.727   5.474   4.530 -0.4425 -0.1452  0.7721
  110CHL1  H26C14396   1.679   5.511   4.697  1.9577  2.7064  1.8763
  110CHL1   C2714397   1.887   5.692   4.495 -0.3083  0.3789 -0.2199
  110CHL1  H27A14398   1.980   5.752   4.503  0.8880 -1.4103  0.1136
  110CHL1  H27B14399   1.913   5.594   4.449 -1.9387  0.5376 -1.5479
  110CHL1  H27C14400   1.806   5.749   4.446 -2.3160 -0.3645  1.9894
  111CHL1    C314401   3.875   0.453   6.404 -0.5539 -0.3155 -0.4894
  111CHL1    H314402   3.764   0.447   6.411 -0.5021 -0.5421  0.2507
  111CHL1    O314403   3.920   0.451   6.544 -0.4367  0.0406 -0.2351
  111CHL1   H3'14404   4.012   0.424   6.545 -0.9990 -2.1913  2.1045
  111CHL1    C414405   3.938   0.336   6.328 -0.2754  0.6793  0.0386
  111CHL1   H4A14406   4.047   0.353   6.333  0.3855 -2.4443 -1.2865
  111CHL1   H4B14407   3.911   0.237   6.372 -0.5419  0.1246 -1.3257
  111CHL1    C514408   3.882   0.342   6.188 -0.5924  0.1906 -0.5986
  111CHL1    C614409   3.812   0.242   6.139 -0.6711  0.3752  0.2054
  111CHL1    H614410   3.784   0.154   6.199 -2.5894 -0.2680 -1.5190
  111CHL1    C714411   3.773   0.235   5.995  0.1635  0.6910 -0.2016
  111CHL1   H7A14412   3.801   0.135   5.957 -0.5590  1.2950 -2.4710
  111CHL1   H7B14413   3.663   0.243   5.983  0.1134 -0.6899 -0.8168
  111CHL1    C814414   3.841   0.335   5.908 -0.0052 -0.4660 -0.5788
  111CHL1    H814415   3.947   0.301   5.899  0.3468 -0.5810  2.6586
  111CHL1   C1414416   3.789   0.328   5.762 -0.1469 -0.6863  0.1632
  111CHL1   H1414417   3.682   0.356   5.776 -0.2518 -0.9751 -0.0463
  111CHL1   C1514418   3.786   0.185   5.693 -1.1896 -0.5787  0.0670
  111CHL1  H15A14419   3.882   0.135   5.715 -0.8962  0.1847  0.5840
  111CHL1  H15B14420   3.697   0.133   5.735 -1.0353  1.2286  2.9702
  111CHL1   C1614421   3.783   0.228   5.546  0.4977 -0.2081  0.3787
  111CHL1  H16A14422   3.868   0.175   5.498  2.4924  2.3562  0.8653
  111CHL1  H16B14423   3.690   0.198   5.492 -0.1649  0.3558  1.1881
  111CHL1   C1714424   3.782   0.386   5.542  0.1837 -0.0824  0.0987
  111CHL1   H1714425   3.677   0.423   5.549  0.6415  1.2798  0.1497
  111CHL1   C1314426   3.851   0.428   5.673  0.3282 -0.4279 -0.6983
  111CHL1   C1814427   4.005   0.418   5.660  0.2204  0.4375 -0.0935
  111CHL1  H18A14428   4.030   0.499   5.587  0.4929 -1.2202 -1.9301
  111CHL1  H18B14429   4.059   0.430   5.756  0.4728  1.6932 -0.3679
  111CHL1  H18C14430   4.027   0.321   5.610 -1.9256  0.9460 -2.2023
  111CHL1   C1214431   3.811   0.568   5.735 -0.4013 -0.0454 -0.4563
  111CHL1  H12A14432   3.836   0.661   5.680  0.6681  0.9517  1.5910
  111CHL1  H12B14433   3.700   0.569   5.743 -0.3280  1.9927  1.0199
  111CHL1   C1114434   3.873   0.581   5.866 -0.4227 -0.1155 -0.4245
  111CHL1  H11A14435   3.982   0.596   5.856 -0.3228  0.1892  0.8795
  111CHL1  H11B14436   3.843   0.676   5.917 -1.6762 -0.4372 -0.5174
  111CHL1    C914437   3.831   0.474   5.970 -0.1550 -0.0855 -0.6558
  111CHL1    H914438   3.723   0.491   5.989  0.2470  1.3514  0.5859
  111CHL1   C1014439   3.910   0.479   6.106 -0.2289 -0.4459  0.3189
  111CHL1   C1914440   4.065   0.485   6.087 -0.0173  0.0640  0.2567
  111CHL1  H19A14441   4.121   0.478   6.182  0.9956 -0.2204 -0.3501
  111CHL1  H19B14442   4.101   0.400   6.025  1.4294  0.5263  0.4457
  111CHL1  H19C14443   4.104   0.573   6.031 -0.9538  1.0169  1.0554
  111CHL1    C114444   3.862   0.599   6.197  0.0944  0.3738 -0.1846
  111CHL1   H1A14445   3.887   0.695   6.147 -1.1232  0.8872  0.1471
  111CHL1   H1B14446   3.751   0.597   6.204  0.1061  0.4878  0.0403
  111CHL1    C214447   3.912   0.597   6.345  0.4832 -0.2584  0.6191
  111CHL1   H2A14448   3.858   0.671   6.409  1.4335  1.2517 -0.2454
  111CHL1   H2B14449   4.022   0.610   6.356  0.7328 -0.3882 -1.2849
  111CHL1   C2014450   3.822   0.456   5.411  0.1130  0.0998  0.5416
  111CHL1   H2014451   3.932   0.440   5.399  0.0666  0.1999 -0.0680
  111CHL1   C2114452   3.795   0.607   5.397 -0.6341  0.1678 -0.1422
  111CHL1  H21A14453   3.830   0.644   5.298 -1.2474 -0.2868 -0.5361
  111CHL1  H21B14454   3.844   0.663   5.480 -2.7230  2.8307 -0.5713
  111CHL1  H21C14455   3.686   0.628   5.403 -0.4968  0.8726  0.0386
  111CHL1   C2214456   3.755   0.398   5.280 -0.1242  0.9070  0.2537
  111CHL1  H22A14457   3.809   0.452   5.199  0.2980  0.6099  0.3345
  111CHL1  H22B14458   3.787   0.291   5.276 -2.0051  0.2910  0.3108
  111CHL1   C2314459   3.604   0.406   5.275 -0.5222  0.4987 -0.0713
  111CHL1  H23A14460   3.566   0.365   5.370  0.1243  1.1296  0.4675
  111CHL1  H23B14461   3.570   0.510   5.257 -0.5977  0.5331  0.2681
  111CHL1   C2414462   3.541   0.329   5.158  0.0123  0.6023  0.0625
  111CHL1  H24A14463   3.431   0.338   5.172  0.1130  1.5362  0.3443
  111CHL1  H24B14464   3.575   0.378   5.064 -0.5381  1.2944  0.2175
  111CHL1   C2514465   3.589   0.182   5.137  0.0791  0.0531 -0.2494
  111CHL1   H2514466   3.698   0.178   5.158  0.2115 -1.3754 -1.0690
  111CHL1   C2614467   3.500   0.085   5.222 -0.0781 -0.4078  0.3763
  111CHL1  H26A14468   3.513   0.088   5.332  0.1033 -1.5802  0.3959
  111CHL1  H26B14469   3.392   0.100   5.199  0.3997  1.7102 -0.7843
  111CHL1  H26C14470   3.521  -0.019   5.190  2.0272  0.8961 -3.1073
  111CHL1   C2714471   3.573   0.150   4.990  0.2034 -0.3292 -0.9772
  111CHL1  H27A14472   3.466   0.143   4.959 -0.3764  1.2416  0.5424
  111CHL1  H27B14473   3.628   0.231   4.939  2.2945  0.4111  2.1487
  111CHL1  H27C14474   3.623   0.052   4.971  0.2820 -1.1112  2.4982
  112CHL1    C314475   5.198   0.064   6.571 -0.2649  0.1950  0.4544
  112CHL1    H314476   5.291   0.052   6.511  0.0556 -0.0485  1.0049
  112CHL1    O314477   5.230   0.057   6.704 -0.2467 -0.4763 -0.7208
  112CHL1   H3'14478   5.210  -0.035   6.726  0.7174 -0.5608 -0.1596
  112CHL1    C414479   5.133   0.202   6.555  1.0656  0.1861  0.3060
  112CHL1   H4A14480   5.046   0.220   6.621  1.0260  1.1264  0.0227
  112CHL1   H4B14481   5.206   0.280   6.585  0.3441  1.1314 -0.3113
  112CHL1    C514482   5.083   0.220   6.412 -0.6881 -0.1091 -0.2358
  112CHL1    C614483   5.119   0.324   6.335  0.4966 -0.6779 -0.0300
  112CHL1    H614484   5.205   0.385   6.367  0.9081 -0.9556 -0.5789
  112CHL1    C714485   5.077   0.341   6.196 -0.5363  0.1141  0.4956
  112CHL1   H7A14486   5.053   0.446   6.171  1.6568  0.6224  0.3311
  112CHL1   H7B14487   5.163   0.300   6.138 -0.7816 -1.0970  0.9440
  112CHL1    C814488   4.947   0.264   6.161  0.5600 -0.4256  0.3452
  112CHL1    H814489   4.864   0.316   6.213 -1.3956 -2.3695 -0.6565
  112CHL1   C1414490   4.918   0.271   6.012 -0.6677 -0.3338  0.1113
  112CHL1   H1414491   5.004   0.225   5.958 -1.5028 -0.9405 -0.7198
  112CHL1   C1514492   4.915   0.413   5.949  0.5051 -0.2178 -0.5184
  112CHL1  H15A14493   4.830   0.475   5.984  1.6523  0.8835  0.3976
  112CHL1  H15B14494   5.015   0.459   5.943  1.4512 -2.2153 -0.9699
  112CHL1   C1614495   4.879   0.374   5.802  0.2075 -0.4349 -0.9370
  112CHL1  H16A14496   4.820   0.454   5.753  0.0777 -0.4797 -0.8545
  112CHL1  H16B14497   4.972   0.356   5.744  1.0873 -1.2841  0.6753
  112CHL1   C1714498   4.810   0.231   5.807  0.3853 -0.3899  0.5137
  112CHL1   H1714499   4.887   0.162   5.766 -1.8205 -1.4671 -2.0953
  112CHL1   C1314500   4.799   0.195   5.963  0.9191 -0.2483 -0.2080
  112CHL1   C1814501   4.670   0.247   6.021  0.8174  0.5092 -0.0600
  112CHL1  H18A14502   4.670   0.235   6.131 -0.9658 -0.4561 -0.1254
  112CHL1  H18B14503   4.653   0.356   6.006 -0.6346  0.4139  0.7224
  112CHL1  H18C14504   4.587   0.186   5.978  0.4318  0.2015  1.0896
  112CHL1   C1214505   4.824   0.044   5.992  1.0270  0.0712  0.0002
  112CHL1  H12A14506   4.741  -0.020   5.954  1.2819 -0.0459 -0.3654
  112CHL1  H12B14507   4.919   0.018   5.940  0.5270  1.2347 -1.5814
  112CHL1   C1114508   4.842   0.026   6.141 -0.0026 -0.5635 -0.2975
  112CHL1  H11A14509   4.748   0.057   6.191  0.3302 -0.2961  0.1728
  112CHL1  H11B14510   4.869  -0.078   6.170  2.6545 -1.0064 -3.6180
  112CHL1    C914511   4.953   0.118   6.202  0.3487  0.3544 -0.8012
  112CHL1    H914512   5.040   0.078   6.147  0.4077  0.1268 -0.5429
  112CHL1   C1014513   4.981   0.110   6.355 -0.0032  0.1323 -0.1461
  112CHL1   C1914514   4.849   0.130   6.439 -0.1578 -0.1436 -0.9298
  112CHL1  H19A14515   4.778   0.048   6.413  0.8489 -1.3928  0.1126
  112CHL1  H19B14516   4.872   0.123   6.548 -0.2708  0.8874 -0.8321
  112CHL1  H19C14517   4.802   0.228   6.420 -1.3116 -0.9383 -2.3993
  112CHL1    C114518   5.047  -0.028   6.384 -0.5671  0.1486 -0.6375
  112CHL1   H1A14519   4.981  -0.112   6.353  0.5499 -0.0813 -2.5514
  112CHL1   H1B14520   5.136  -0.047   6.320 -1.0679 -0.5771 -1.1382
  112CHL1    C214521   5.097  -0.049   6.530  0.5203  0.2973 -0.4889
  112CHL1   H2A14522   5.136  -0.153   6.539  0.4143  0.2169 -0.9065
  112CHL1   H2B14523   5.011  -0.045   6.600  0.5460  0.1232 -0.4459
  112CHL1   C2014524   4.687   0.217   5.727 -0.0969  0.0235  0.3131
  112CHL1   H2014525   4.618   0.293   5.768  0.7330  0.5491  0.7700
  112CHL1   C2114526   4.634   0.069   5.716 -0.4797  0.4104  0.0332
  112CHL1  H21A14527   4.719  -0.000   5.698 -0.8316  0.0348 -0.2014
  112CHL1  H21B14528   4.556   0.055   5.639 -0.2453  0.5342 -0.2278
  112CHL1  H21C14529   4.590   0.042   5.814 -1.6078 -1.0334 -0.8356
  112CHL1   C2214530   4.691   0.274   5.578  0.3477  0.4863  0.2219
  112CHL1  H22A14531   4.760   0.360   5.566  0.9731 -0.1018 -0.5176
  112CHL1  H22B14532   4.734   0.191   5.518  1.4256 -0.3201  2.0227
  112CHL1   C2314533   4.556   0.316   5.529 -0.0050  0.3892 -0.4253
  112CHL1  H23A14534   4.477   0.245   5.561  0.5492  0.3433  0.8735
  112CHL1  H23B14535   4.527   0.411   5.578  1.3875  0.3224  0.5936
  112CHL1   C2414536   4.559   0.365   5.385 -0.3985  0.3085 -0.1687
  112CHL1  H24A14537   4.636   0.444   5.374  0.6138 -0.7155 -0.5844
  112CHL1  H24B14538   4.583   0.281   5.316 -1.1364 -1.6141  1.7961
  112CHL1   C2514539   4.430   0.435   5.348  0.2933 -0.0390  0.2220
  112CHL1   H2514540   4.428   0.522   5.417  2.0366 -0.3622  0.7319
  112CHL1   C2614541   4.449   0.484   5.207 -0.5148  0.3427  0.0445
  112CHL1  H26A14542   4.350   0.521   5.172 -1.0406 -0.3765  0.7382
  112CHL1  H26B14543   4.524   0.565   5.198  0.8241 -1.0047 -1.4770
  112CHL1  H26C14544   4.481   0.404   5.137 -1.3926  0.0414 -0.0288
  112CHL1   C2714545   4.296   0.361   5.380  0.7176  0.9705 -0.2100
  112CHL1  H27A14546   4.285   0.261   5.334 -0.2967  1.8527 -2.0035
  112CHL1  H27B14547   4.283   0.356   5.490  1.6194 -0.9353 -0.1423
  112CHL1  H27C14548   4.212   0.413   5.330  0.9954  0.1638 -1.5677
  113CHL1    C314549   0.849   5.700   6.401  0.4825  0.0795  0.8052
  113CHL1    H314550   0.850   5.806   6.367  1.6675 -0.0937  0.2472
  113CHL1    O314551   0.882   5.692   6.538 -0.2222  0.0190  0.7339
  113CHL1   H3'14552   0.889   5.597   6.542 -1.8172 -0.0868  3.2067
  113CHL1    C414553   0.710   5.641   6.373  0.1971 -0.2487  0.0100
  113CHL1   H4A14554   0.712   5.540   6.419 -4.1768 -1.0784 -1.1809
  113CHL1   H4B14555   0.638   5.698   6.435 -0.2181 -1.4472  0.6627
  113CHL1    C514556   0.674   5.632   6.225  0.3466 -0.0636  0.1181
  113CHL1    C614557   0.562   5.691   6.182  0.6169  0.1791 -0.5559
  113CHL1    H614558   0.494   5.728   6.261  2.6322  1.3938  0.7035
  113CHL1    C714559   0.520   5.694   6.042 -0.6884 -0.4641  0.2207
  113CHL1   H7A14560   0.412   5.671   6.031 -0.2471 -1.5412 -2.6874
  113CHL1   H7B14561   0.546   5.796   6.006  0.7443 -1.3041 -1.2451
  113CHL1    C814562   0.600   5.606   5.948  0.2935  0.2000 -0.4441
  113CHL1    H814563   0.563   5.503   5.965 -0.9995  0.7785  0.5026
  113CHL1   C1414564   0.588   5.648   5.804 -0.1654  0.0415  0.4586
  113CHL1   H1414565   0.627   5.752   5.794 -2.0490  0.7818  0.4537
  113CHL1   C1514566   0.447   5.675   5.749 -1.1252  0.8970  0.5975
  113CHL1  H15A14567   0.387   5.589   5.786 -0.2218 -0.0532 -0.1155
  113CHL1  H15B14568   0.397   5.768   5.785 -1.8250  1.0082 -0.5884
  113CHL1   C1614569   0.462   5.666   5.597 -0.0734 -0.2845 -0.3947
  113CHL1  H16A14570   0.390   5.590   5.560  0.6787  0.0241 -2.6667
  113CHL1  H16B14571   0.436   5.762   5.546  2.2951  0.8952  0.4435
  113CHL1   C1714572   0.603   5.617   5.571 -0.1543 -0.2117 -0.8061
  113CHL1   H1714573   0.654   5.715   5.565 -2.0136  0.8435 -0.4156
  113CHL1   C1314574   0.650   5.548   5.701 -0.7939 -0.5371  0.1733
  113CHL1   C1814575   0.592   5.399   5.713  0.7718  0.5476  0.3207
  113CHL1  H18A14576   0.490   5.404   5.669  1.8268 -1.7431 -2.7550
  113CHL1  H18B14577   0.656   5.341   5.643  1.2343 -0.4097  1.5158
  113CHL1  H18C14578   0.582   5.356   5.815  1.6503  2.7852  1.4348
  113CHL1   C1214579   0.805   5.547   5.726 -0.3632  0.2792  0.4714
  113CHL1  H12A14580   0.861   5.474   5.664  0.6045  1.5986 -0.2699
  113CHL1  H12B14581   0.848   5.649   5.713  0.4892 -0.2434 -0.9672
  113CHL1   C1114582   0.834   5.516   5.874 -0.3077  0.0381  0.2359
  113CHL1  H11A14583   0.799   5.411   5.886 -1.9139  0.3021 -1.6882
  113CHL1  H11B14584   0.943   5.527   5.892 -0.0684 -1.8936  0.2324
  113CHL1    C914585   0.748   5.601   5.977 -0.2328  0.2957 -0.0436
  113CHL1    H914586   0.794   5.701   5.958  1.4070  0.6168  4.3627
  113CHL1   C1014587   0.776   5.573   6.127 -0.1542  0.5774 -0.1491
  113CHL1   C1914588   0.780   5.422   6.149 -0.5017 -0.6989 -0.2361
  113CHL1  H19A14589   0.860   5.367   6.095 -0.1144 -0.7910  0.4105
  113CHL1  H19B14590   0.796   5.396   6.256  0.5072  0.8910  0.0362
  113CHL1  H19C14591   0.682   5.381   6.116  0.0644 -1.7241 -0.7027
  113CHL1    C114592   0.916   5.637   6.171 -0.1782  0.1384  0.2676
  113CHL1   H1A14593   0.984   5.579   6.105 -2.1205  0.5036 -2.2224
  113CHL1   H1B14594   0.918   5.744   6.143 -0.2635 -0.0344 -0.4140
  113CHL1    C214595   0.951   5.625   6.324 -0.0340  0.5822  0.5629
  113CHL1   H2A14596   1.053   5.668   6.331  0.8418 -0.6823 -2.5964
  113CHL1   H2B14597   0.964   5.516   6.341 -1.0773 -0.1009 -2.4438
  113CHL1   C2014598   0.630   5.543   5.443 -0.5778  0.4104  0.1742
  113CHL1   H2014599   0.722   5.484   5.462 -1.2972 -1.0360 -0.6679
  113CHL1   C2114600   0.668   5.663   5.339 -0.4027  0.0504 -0.5045
  113CHL1  H21A14601   0.588   5.737   5.357 -1.4477 -0.9465 -0.8961
  113CHL1  H21B14602   0.673   5.634   5.231 -0.7862  0.9923 -0.7840
  113CHL1  H21C14603   0.764   5.708   5.370  0.4097 -0.6731 -1.8670
  113CHL1   C2214604   0.527   5.443   5.383  1.5945 -0.6454 -0.5758
  113CHL1  H22A14605   0.486   5.376   5.461  0.3278  1.2531  0.4537
  113CHL1  H22B14606   0.439   5.505   5.353  3.1420  0.9838 -2.0650
  113CHL1   C2314607   0.590   5.356   5.276  0.0589  0.4023 -0.2136
  113CHL1  H23A14608   0.639   5.421   5.201  0.9848  1.8373  1.5427
  113CHL1  H23B14609   0.670   5.295   5.324 -0.3490  0.2676  0.3051
  113CHL1   C2414610   0.498   5.263   5.198 -0.3021  0.3153 -0.0940
  113CHL1  H24A14611   0.553   5.206   5.121 -0.7493  1.5169 -1.3455
  113CHL1  H24B14612   0.452   5.193   5.271 -2.4306  0.8024 -0.8975
  113CHL1   C2514613   0.391   5.329   5.115 -0.2713  0.0795  0.1794
  113CHL1   H2514614   0.315   5.389   5.171  0.5532  1.5237 -0.1914
  113CHL1   C2614615   0.443   5.419   5.005  0.0527  0.4851 -0.4697
  113CHL1  H26A14616   0.509   5.497   5.049  0.2797  0.1931 -0.2916
  113CHL1  H26B14617   0.500   5.360   4.931  0.5623 -0.4637  0.6492
  113CHL1  H26C14618   0.363   5.476   4.954  0.5984  1.1044 -0.6577
  113CHL1   C2714619   0.308   5.215   5.044  0.4775  0.8949 -0.0548
  113CHL1  H27A14620   0.224   5.249   4.980  1.7010  1.1108 -1.5941
  113CHL1  H27B14621   0.371   5.152   4.978 -0.1916  1.2422 -1.0496
  113CHL1  H27C14622   0.270   5.153   5.127  1.2970 -0.5409 -0.7183
  114CHL1    C314623   5.234   6.279   6.391 -0.7437 -0.5354 -0.0636
  114CHL1    H314624   5.125   6.257   6.398 -0.7485 -0.6408 -0.4183
  114CHL1    O314625   5.300   6.278   6.517 -0.0358  0.0599 -0.2651
  114CHL1   H3'14626   5.393   6.301   6.509  0.0297 -0.4564 -1.1539
  114CHL1    C414627   5.295   6.169   6.297 -0.0889 -0.7155 -0.5119
  114CHL1   H4A14628   5.405   6.169   6.313 -0.2674 -0.3603  0.9020
  114CHL1   H4B14629   5.266   6.071   6.341  0.2298 -0.1775  0.9689
  114CHL1    C514630   5.246   6.168   6.155  1.0252 -0.2339 -0.2801
  114CHL1    C614631   5.195   6.057   6.091  0.8711  0.4086 -0.4134
  114CHL1    H614632   5.193   5.958   6.140 -1.1654  0.8250  0.4471
  114CHL1    C714633   5.143   6.051   5.952 -0.0783 -0.0558  0.6937
  114CHL1   H7A14634   5.187   5.972   5.887 -1.1115 -0.3642  0.3548
  114CHL1   H7B14635   5.035   6.026   5.961  0.1429 -0.9446  0.9906
  114CHL1    C814636   5.169   6.182   5.872  0.5454  0.6849 -0.1318
  114CHL1    H814637   5.273   6.176   5.833 -0.3101 -1.5229 -2.3262
  114CHL1   C1414638   5.077   6.184   5.758  0.6116 -0.0297  0.7117
  114CHL1   H1414639   4.977   6.186   5.806 -0.4592  1.5230 -1.3642
  114CHL1   C1514640   5.074   6.064   5.657 -0.5653 -0.9354 -0.1535
  114CHL1  H15A14641   5.173   6.036   5.616 -0.5964  2.5692 -3.0979
  114CHL1  H15B14642   5.034   5.978   5.715 -0.9060 -1.0824 -0.6002
  114CHL1   C1614643   4.986   6.117   5.542  0.3183  0.4450  0.1853
  114CHL1  H16A14644   5.038   6.091   5.447 -0.4476  0.4752 -0.2529
  114CHL1  H16B14645   4.887   6.068   5.546 -0.3899  1.8722  0.7837
  114CHL1   C1714646   4.970   6.273   5.567  0.3382  1.0331  0.1159
  114CHL1   H1714647   4.876   6.297   5.621  1.4867  3.0785  1.3486
  114CHL1   C1314648   5.081   6.309   5.670  0.4121  0.5089  0.3925
  114CHL1   C1814649   5.217   6.311   5.606 -0.9565 -0.6485  0.2920
  114CHL1  H18A14650   5.227   6.252   5.513  0.1112  0.6399 -0.4459
  114CHL1  H18B14651   5.242   6.418   5.588  0.6724 -1.1791 -0.8512
  114CHL1  H18C14652   5.299   6.281   5.675 -2.4402 -0.5045  2.2171
  114CHL1   C1214653   5.059   6.428   5.760  0.2442 -0.7027 -0.2235
  114CHL1  H12A14654   5.087   6.512   5.693 -0.6471 -1.2986 -1.3621
  114CHL1  H12B14655   4.950   6.437   5.782  0.3673  1.3330 -0.1874
  114CHL1   C1114656   5.151   6.434   5.877  0.5772 -0.3000  0.1658
  114CHL1  H11A14657   5.256   6.445   5.841 -0.8705  0.8763 -4.3700
  114CHL1  H11B14658   5.136   6.526   5.937 -1.7210 -0.3184 -0.2788
  114CHL1    C914659   5.149   6.301   5.965  0.3148  0.5353 -0.2267
  114CHL1    H914660   5.047   6.292   6.008  0.6122  1.1301  0.6439
  114CHL1   C1014661   5.241   6.308   6.094  0.2914  0.3879 -0.6902
  114CHL1   C1914662   5.395   6.335   6.056  0.9153 -0.0812  0.1984
  114CHL1  H19A14663   5.413   6.273   5.965 -1.3078  1.3229 -1.2898
  114CHL1  H19B14664   5.406   6.442   6.032  0.7080 -0.5129 -2.0404
  114CHL1  H19C14665   5.460   6.309   6.142  0.6728 -0.2353  0.3384
  114CHL1    C114666   5.184   6.415   6.191 -0.8098  0.9883  0.4302
  114CHL1   H1A14667   5.181   6.514   6.142 -4.8580 -0.2490 -2.3639
  114CHL1   H1B14668   5.075   6.398   6.202 -0.9425  1.0906 -0.6549
  114CHL1    C214669   5.251   6.416   6.324  0.2431 -0.0976 -0.2953
  114CHL1   H2A14670   5.207   6.501   6.380 -0.5973  0.9603 -2.4236
  114CHL1   H2B14671   5.356   6.448   6.304 -0.0130  1.0243  0.0639
  114CHL1   C2014672   4.967   6.352   5.432 -0.4357  0.5222  0.0560
  114CHL1   H2014673   5.063   6.337   5.379 -0.6116  0.3194 -0.2064
  114CHL1   C2114674   4.953   6.512   5.442  0.0958 -0.4322 -0.4249
  114CHL1  H21A14675   4.858   6.544   5.490  0.3564  0.9694 -0.8208
  114CHL1  H21B14676   4.970   6.571   5.349 -0.7870 -0.2107 -0.4562
  114CHL1  H21C14677   5.037   6.545   5.506  1.0344 -0.9329 -1.3654
  114CHL1   C2214678   4.857   6.301   5.339  0.7685  0.4338 -0.6192
  114CHL1  H22A14679   4.870   6.195   5.309 -0.8221  0.2437 -0.7432
  114CHL1  H22B14680   4.756   6.313   5.385  1.8283 -1.3132  2.3936
  114CHL1   C2314681   4.843   6.385   5.202  0.2493 -0.1015  0.3721
  114CHL1  H23A14682   4.763   6.341   5.140  1.4790 -0.7034 -0.8568
  114CHL1  H23B14683   4.816   6.491   5.225 -2.3401 -0.2694 -1.4672
  114CHL1   C2414684   4.972   6.374   5.110  0.9318  0.2266 -0.3777
  114CHL1  H24A14685   5.061   6.404   5.168  0.0036 -0.0037  1.2314
  114CHL1  H24B14686   4.980   6.266   5.085  3.2428 -0.3276  2.2380
  114CHL1   C2514687   4.967   6.455   4.986 -0.3855 -0.2208 -0.6324
  114CHL1   H2514688   4.972   6.560   5.022  0.2657  0.2886 -2.1408
  114CHL1   C2614689   5.093   6.421   4.901  0.2930  0.4934 -0.0086
  114CHL1  H26A14690   5.184   6.436   4.962  1.1132 -2.7181 -0.2861
  114CHL1  H26B14691   5.093   6.315   4.867  2.0748  0.0187  1.3286
  114CHL1  H26C14692   5.100   6.491   4.815 -0.6448  2.1406  1.1937
  114CHL1   C2714693   4.842   6.432   4.897  0.5697  0.1479  0.8853
  114CHL1  H27A14694   4.849   6.337   4.839  0.5371  0.5100  0.2805
  114CHL1  H27B14695   4.753   6.438   4.963  1.3329 -0.2732  1.9818
  114CHL1  H27C14696   4.841   6.515   4.823  0.4666  1.5656  2.4238
  115CHL1    C314697   2.885   0.628   6.676  0.5367 -0.4289 -0.7683
  115CHL1    H314698   2.938   0.534   6.650  1.4841  0.5364 -2.4866
  115CHL1    O314699   2.860   0.648   6.813 -0.2204  0.0855  0.1060
  115CHL1   H3'14700   2.941   0.689   6.844 -1.2983  1.5495  1.1190
  115CHL1    C414701   2.952   0.752   6.612 -0.2298 -0.1788  0.1677
  115CHL1   H4A14702   2.903   0.843   6.653 -0.8837 -1.2387  1.7883
  115CHL1   H4B14703   3.049   0.769   6.665 -1.6019 -1.0209  3.1412
  115CHL1    C514704   2.956   0.737   6.459  0.1904  0.0367 -0.8375
  115CHL1    C614705   3.073   0.713   6.397  0.2937 -0.5982  0.4861
  115CHL1    H614706   3.168   0.705   6.452  0.3197 -0.4174  0.4664
  115CHL1    C714707   3.074   0.699   6.248  0.2731  0.2621 -0.2792
  115CHL1   H7A14708   3.167   0.744   6.208  1.4924 -1.2307  0.7892
  115CHL1   H7B14709   3.090   0.594   6.217  2.0189  1.1059 -2.4596
  115CHL1    C814710   2.953   0.747   6.167 -0.1794  0.3639 -0.3620
  115CHL1    H814711   2.961   0.858   6.162  1.3842  0.2859 -4.7917
  115CHL1   C1414712   2.951   0.686   6.030  0.0692  0.0008  0.2366
  115CHL1   H1414713   2.944   0.576   6.041  0.7465  0.0457  1.3138
  115CHL1   C1514714   3.071   0.693   5.940 -0.1085  0.3021 -0.4692
  115CHL1  H15A14715   3.117   0.794   5.936  1.1427 -0.2447 -0.3177
  115CHL1  H15B14716   3.156   0.631   5.974 -0.6675  0.0365  0.4919
  115CHL1   C1614717   3.016   0.667   5.803 -0.0305 -0.0263  0.2244
  115CHL1  H16A14718   3.044   0.747   5.731  0.9781 -0.8901 -0.3826
  115CHL1  H16B14719   3.060   0.571   5.767  2.5252 -0.3790  3.7896
  115CHL1   C1714720   2.862   0.664   5.809  0.1401 -0.0811 -0.4019
  115CHL1   H1714721   2.839   0.560   5.840 -1.0617  0.7239  1.5866
  115CHL1   C1314722   2.832   0.736   5.949 -0.6534  0.2062  0.1991
  115CHL1   C1814723   2.834   0.891   5.934 -0.5516  0.6497 -0.6410
  115CHL1  H18A14724   2.794   0.942   6.023 -1.2172 -3.4262  1.6658
  115CHL1  H18B14725   2.932   0.938   5.911  1.3638 -3.2962 -1.4042
  115CHL1  H18C14726   2.775   0.916   5.844  2.7008 -0.4710 -3.3186
  115CHL1   C1214727   2.697   0.689   6.009  0.2775 -0.8910 -0.0413
  115CHL1  H12A14728   2.616   0.734   5.948  1.4866  0.0523 -1.0045
  115CHL1  H12B14729   2.698   0.579   6.018  0.2389 -0.9199 -0.3847
  115CHL1   C1114730   2.704   0.734   6.158 -0.1716 -0.3694 -0.0546
  115CHL1  H11A14731   2.690   0.844   6.159 -0.3771 -0.3909  0.9903
  115CHL1  H11B14732   2.610   0.699   6.205 -0.8125  0.5830 -0.5998
  115CHL1    C914733   2.828   0.696   6.235  0.2254  0.5333  0.1620
  115CHL1    H914734   2.841   0.586   6.241  0.5773  0.6603  2.2796
  115CHL1   C1014735   2.827   0.729   6.388  0.1019 -0.4960 -0.0229
  115CHL1   C1914736   2.745   0.861   6.406  0.4888 -0.1736 -0.0884
  115CHL1  H19A14737   2.791   0.936   6.337 -0.5332  2.9613  2.3862
  115CHL1  H19B14738   2.640   0.842   6.376 -0.3836 -0.4603  2.8669
  115CHL1  H19C14739   2.757   0.912   6.504 -0.2963 -1.6451  0.8049
  115CHL1    C114740   2.742   0.614   6.458  0.9748 -0.0145 -0.5863
  115CHL1   H1A14741   2.641   0.617   6.412  1.6902  2.0890 -2.2496
  115CHL1   H1B14742   2.785   0.516   6.428  0.9212 -0.5909  1.1347
  115CHL1    C214743   2.742   0.633   6.610  0.1290 -0.0004  0.4245
  115CHL1   H2A14744   2.674   0.559   6.656  0.1184 -1.0100 -1.1347
  115CHL1   H2B14745   2.686   0.728   6.624 -1.4629 -1.1904  2.6523
  115CHL1   C2014746   2.773   0.690   5.687 -0.1944 -0.0966  0.3581
  115CHL1   H2014747   2.669   0.720   5.711 -0.0235  1.5876 -0.7890
  115CHL1   C2114748   2.759   0.553   5.616  0.5559  0.3478  0.4471
  115CHL1  H21A14749   2.689   0.489   5.675  0.0647 -0.6168 -1.1185
  115CHL1  H21B14750   2.858   0.504   5.604  0.0388 -0.1900 -2.4248
  115CHL1  H21C14751   2.707   0.543   5.518  1.4074 -0.8496  0.0947
  115CHL1   C2214752   2.831   0.801   5.585  0.4748  0.0344  0.5760
  115CHL1  H22A14753   2.878   0.880   5.647  1.1796 -1.0952  1.5364
  115CHL1  H22B14754   2.917   0.758   5.529  1.6234  2.0984  0.6619
  115CHL1   C2314755   2.724   0.859   5.494 -0.2450 -0.2383  0.1046
  115CHL1  H23A14756   2.679   0.778   5.432  1.8666 -0.2508 -1.5101
  115CHL1  H23B14757   2.635   0.892   5.551 -0.2374  0.1537 -0.1117
  115CHL1   C2414758   2.774   0.973   5.398 -1.0186  0.6724 -0.2897
  115CHL1  H24A14759   2.827   1.045   5.465  1.9903 -1.0433 -0.6791
  115CHL1  H24B14760   2.859   0.931   5.341 -1.6056  1.5923 -1.8860
  115CHL1   C2514761   2.664   1.046   5.320  0.3015 -0.8908  0.0746
  115CHL1   H2514762   2.582   1.077   5.389  0.7321 -0.3011  0.3367
  115CHL1   C2614763   2.727   1.176   5.254 -0.5356  1.0931 -0.1961
  115CHL1  H26A14764   2.648   1.233   5.201 -1.3723 -1.4209 -1.8656
  115CHL1  H26B14765   2.769   1.242   5.333  0.1963 -0.6038  0.9001
  115CHL1  H26C14766   2.807   1.148   5.183 -2.8181 -0.0048 -2.4864
  115CHL1   C2714767   2.597   0.963   5.211 -0.0528  0.2601  0.1214
  115CHL1  H27A14768   2.522   1.025   5.159  1.5988  2.4749  0.2374
  115CHL1  H27B14769   2.679   0.925   5.146  1.6010  0.3236  2.0534
  115CHL1  H27C14770   2.565   0.874   5.269  3.8184 -1.8346 -0.6274
  116CHL1    C314771   3.292   0.477   6.624 -0.3161 -0.6625 -0.0917
  116CHL1    H314772   3.222   0.560   6.601  0.3388  0.1635  0.7530
  116CHL1    O314773   3.312   0.483   6.764 -0.0921 -0.4563 -0.5019
  116CHL1   H3'14774   3.292   0.394   6.792  2.5759 -1.2849 -0.8964
  116CHL1    C414775   3.216   0.345   6.589 -0.3216 -0.5024  0.2583
  116CHL1   H4A14776   3.268   0.252   6.621  0.1954 -1.1100 -2.1694
  116CHL1   H4B14777   3.120   0.355   6.643 -0.1537 -1.8040  0.8265
  116CHL1    C514778   3.201   0.333   6.440  0.9036  0.8726 -0.4989
  116CHL1    C614779   3.077   0.325   6.382 -0.0256 -0.4992  0.3589
  116CHL1    H614780   2.989   0.306   6.445 -0.7507  0.4843 -0.3357
  116CHL1    C714781   3.059   0.318   6.228  1.0959 -0.0512  0.0230
  116CHL1   H7A14782   2.983   0.243   6.197  0.1324  0.2085  1.6211
  116CHL1   H7B14783   3.012   0.408   6.181 -0.3928 -0.9328 -0.2613
  116CHL1    C814784   3.184   0.282   6.155  0.4791  0.6188  0.1803
  116CHL1    H814785   3.202   0.173   6.169  0.0195  0.2979 -1.5251
  116CHL1   C1414786   3.156   0.298   6.005  0.2700  1.3139 -0.8961
  116CHL1   H1414787   3.129   0.403   5.982 -0.4873  0.6982 -2.9932
  116CHL1   C1514788   3.043   0.214   5.951  0.3137  0.2227  0.4665
  116CHL1  H15A14789   3.038   0.110   5.988  2.0123  0.6048  1.9735
  116CHL1  H15B14790   2.940   0.252   5.968 -0.3761  1.0507 -4.2242
  116CHL1   C1614791   3.068   0.215   5.794 -0.6633 -0.4464 -0.4109
  116CHL1  H16A14792   3.081   0.109   5.764  0.2488 -0.1801 -1.0190
  116CHL1  H16B14793   2.989   0.279   5.749 -0.9328  1.1838  2.1550
  116CHL1   C1714794   3.211   0.283   5.785 -0.5409  0.3606 -0.0523
  116CHL1   H1714795   3.198   0.391   5.763 -1.3879  0.3093  0.1921
  116CHL1   C1314796   3.281   0.271   5.921  0.1835 -0.5781  0.6356
  116CHL1   C1814797   3.322   0.131   5.939  0.3744  0.5980  0.2315
  116CHL1  H18A14798   3.400   0.106   5.864 -2.2617  1.7902 -3.1427
  116CHL1  H18B14799   3.372   0.120   6.038  1.4193 -1.0278 -0.4352
  116CHL1  H18C14800   3.241   0.055   5.933  0.8484 -0.2105  2.8782
  116CHL1   C1214801   3.385   0.379   5.959 -0.8327  0.2488  0.1013
  116CHL1  H12A14802   3.476   0.374   5.895  0.9165  2.1640  2.2392
  116CHL1  H12B14803   3.337   0.476   5.934 -0.0063  0.5721 -0.2616
  116CHL1   C1114804   3.423   0.374   6.109  0.2234 -0.3587 -0.1566
  116CHL1  H11A14805   3.491   0.288   6.132  0.2152 -0.1968  0.5144
  116CHL1  H11B14806   3.482   0.466   6.131 -1.6596  1.0062 -0.5862
  116CHL1    C914807   3.298   0.371   6.206 -0.0864 -0.2273 -0.2789
  116CHL1    H914808   3.261   0.475   6.189  0.0322 -0.2519 -0.6975
  116CHL1   C1014809   3.331   0.352   6.353 -0.3054  0.4930  0.0900
  116CHL1   C1914810   3.420   0.230   6.386  0.1033 -0.0528 -0.4581
  116CHL1  H19A14811   3.370   0.142   6.341 -0.4107  0.4161 -0.8116
  116CHL1  H19B14812   3.518   0.245   6.334  0.9439  1.4029  1.4404
  116CHL1  H19C14813   3.430   0.207   6.494 -0.8563  1.6574  0.0310
  116CHL1    C114814   3.403   0.486   6.402 -0.2073  0.5856  0.4043
  116CHL1   H1A14815   3.503   0.489   6.353  0.2101  2.5957  1.2699
  116CHL1   H1B14816   3.354   0.583   6.375  2.2457  2.3003  1.7518
  116CHL1    C214817   3.424   0.493   6.551 -0.0668 -0.4161 -0.1169
  116CHL1   H2A14818   3.478   0.583   6.587  2.7576 -1.4507 -1.5274
  116CHL1   H2B14819   3.487   0.405   6.575  1.9329  1.4370  1.8577
  116CHL1   C2014820   3.295   0.237   5.658 -0.1388 -0.0423  0.4498
  116CHL1   H2014821   3.306   0.127   5.671 -2.2621 -0.4461 -0.6419
  116CHL1   C2114822   3.440   0.293   5.653 -0.3336 -0.0132  0.0854
  116CHL1  H21A14823   3.503   0.252   5.734  1.4161 -1.6971 -2.0194
  116CHL1  H21B14824   3.439   0.404   5.656  0.1771 -0.0149  0.3819
  116CHL1  H21C14825   3.485   0.255   5.559  0.4141 -1.2385  0.9095
  116CHL1   C2214826   3.225   0.272   5.528  0.4852 -0.0636  0.8065
  116CHL1  H22A14827   3.285   0.231   5.444 -0.6715  1.8108 -1.0284
  116CHL1  H22B14828   3.133   0.210   5.531  1.1505 -1.1567 -0.4080
  116CHL1   C2314829   3.199   0.424   5.500  0.2709 -0.0939  0.2472
  116CHL1  H23A14830   3.111   0.445   5.565  1.3937 -0.1486  1.8579
  116CHL1  H23B14831   3.289   0.486   5.522  1.5625 -2.2962  1.6267
  116CHL1   C2414832   3.164   0.439   5.351  0.6718  0.5063  0.4556
  116CHL1  H24A14833   3.245   0.415   5.279  0.8697  0.6123  0.6433
  116CHL1  H24B14834   3.089   0.358   5.338  1.4764 -0.5069  1.8151
  116CHL1   C2514835   3.094   0.564   5.301  0.3607 -0.0890  0.3708
  116CHL1   H2514836   3.008   0.573   5.372 -0.3070 -0.5734 -0.3647
  116CHL1   C2614837   3.167   0.697   5.311 -0.4909 -0.3419  0.0934
  116CHL1  H26A14838   3.261   0.684   5.254  0.9144 -0.9799  2.4211
  116CHL1  H26B14839   3.101   0.782   5.284  0.9441  0.7986  0.0064
  116CHL1  H26C14840   3.202   0.723   5.414  0.8395 -0.8778 -0.2098
  116CHL1   C2714841   3.046   0.536   5.157  0.0179  0.1674 -0.4768
  116CHL1  H27A14842   3.141   0.524   5.101  0.2186 -0.0294 -0.1002
  116CHL1  H27B14843   2.991   0.440   5.146  0.7026 -0.5366  1.7000
  116CHL1  H27C14844   2.979   0.611   5.110  0.4200  1.6566  1.2039
  117CHL1    C314845   5.781   6.828   6.503  0.1573 -0.3666 -0.2480
  117CHL1    H314846   5.673   6.845   6.489  0.2763  1.8477  1.0640
  117CHL1    O314847   5.805   6.822   6.643  0.4502  0.2497 -0.3692
  117CHL1   H3'14848   5.722   6.790   6.680  0.2299  1.1319 -0.0796
  117CHL1    C414849   5.805   6.685   6.445 -0.3555  0.1966  0.4479
  117CHL1   H4A14850   5.909   6.668   6.481 -0.5643  1.5580  1.7999
  117CHL1   H4B14851   5.746   6.613   6.506 -0.1070 -0.8515 -0.5062
  117CHL1    C514852   5.807   6.674   6.296  0.1447 -0.3550  0.8473
  117CHL1    C614853   5.725   6.583   6.236  0.2038  0.7353 -0.2250
  117CHL1    H614854   5.661   6.519   6.298  0.1636  0.1632 -0.8376
  117CHL1    C714855   5.712   6.572   6.091 -0.1579  0.1263  0.4111
  117CHL1   H7A14856   5.728   6.467   6.061  1.2212  0.2440  0.6269
  117CHL1   H7B14857   5.613   6.612   6.061  0.2293  0.9194  0.1419
  117CHL1    C814858   5.819   6.658   6.011 -0.0929  0.4821 -0.3652
  117CHL1    H814859   5.913   6.598   6.013 -0.4364 -0.0729 -0.5887
  117CHL1   C1414860   5.765   6.666   5.867 -0.1641 -0.5033 -0.7040
  117CHL1   H1414861   5.663   6.707   5.880  0.2020  0.3414 -0.3946
  117CHL1   C1514862   5.750   6.536   5.786 -0.0684  0.0922 -0.2301
  117CHL1  H15A14863   5.832   6.462   5.801 -0.4060 -0.3007 -0.2898
  117CHL1  H15B14864   5.653   6.486   5.809 -1.5275  0.4461 -4.7123
  117CHL1   C1614865   5.758   6.573   5.638 -0.1829  0.0013  0.0745
  117CHL1  H16A14866   5.839   6.515   5.588  0.1565  0.2093  0.3825
  117CHL1  H16B14867   5.665   6.539   5.586  0.5864  0.3492 -1.6103
  117CHL1   C1714868   5.780   6.730   5.644  0.3531 -0.8726  0.4014
  117CHL1   H1714869   5.678   6.773   5.654  0.0844 -1.8778  2.7771
  117CHL1   C1314870   5.842   6.764   5.775 -0.3564  0.0530  0.1154
  117CHL1   C1814871   5.990   6.723   5.762 -0.0323  0.2767 -0.0268
  117CHL1  H18A14872   6.038   6.705   5.860  1.6794  0.6216 -0.7619
  117CHL1  H18B14873   6.003   6.629   5.704  0.1709  1.2333 -1.5868
  117CHL1  H18C14874   6.047   6.803   5.711 -0.3990  1.3786  1.2584
  117CHL1   C1214875   5.830   6.903   5.832 -1.4455  0.3841 -0.0884
  117CHL1  H12A14876   5.887   6.959   5.755  0.1638 -0.7683  0.2183
  117CHL1  H12B14877   5.733   6.955   5.818 -1.0766  1.2112  0.3294
  117CHL1   C1114878   5.882   6.906   5.975  0.1458 -0.5471 -0.1230
  117CHL1  H11A14879   5.992   6.894   5.973  0.2167  0.1811 -1.7869
  117CHL1  H11B14880   5.857   7.007   6.012  1.7540 -0.5238  1.0105
  117CHL1    C914881   5.820   6.796   6.074  0.4908 -0.4146  0.7247
  117CHL1    H914882   5.712   6.822   6.078  0.4852 -0.2463 -0.3486
  117CHL1   C1014883   5.876   6.794   6.219  0.1333  0.4887  0.0386
  117CHL1   C1914884   6.029   6.771   6.224  0.2150  0.2661  0.5516
  117CHL1  H19A14885   6.069   6.754   6.326  1.4244 -1.1977 -0.1271
  117CHL1  H19B14886   6.049   6.682   6.160 -0.8974 -1.5473  2.5938
  117CHL1  H19C14887   6.094   6.842   6.168  0.8291 -0.5752  0.1671
  117CHL1    C114888   5.843   6.936   6.283 -0.6828  0.1358 -0.4373
  117CHL1   H1A14889   5.887   7.032   6.247 -1.5206  0.2172 -1.2779
  117CHL1   H1B14890   5.733   6.939   6.266 -0.4920 -0.0328 -1.7629
  117CHL1    C214891   5.872   6.930   6.434  0.1559 -0.1587 -0.1862
  117CHL1   H2A14892   5.842   7.028   6.476 -0.8648  1.1614 -3.6575
  117CHL1   H2B14893   5.977   6.905   6.461 -0.0902  0.6135  1.7127
  117CHL1   C2014894   5.844   6.783   5.514  0.2865 -0.6605  0.4071
  117CHL1   H2014895   5.948   6.745   5.520 -0.5919 -3.1666  0.8152
  117CHL1   C2114896   5.850   6.939   5.500  0.3500 -0.0941  0.3684
  117CHL1  H21A14897   5.750   6.976   5.531  0.2692 -0.0826  0.1018
  117CHL1  H21B14898   5.881   6.956   5.394  0.2633  1.3482  0.5645
  117CHL1  H21C14899   5.936   6.974   5.559  0.6892  0.7953 -0.6143
  117CHL1   C2214900   5.769   6.731   5.382 -0.3087 -0.4119  0.0709
  117CHL1  H22A14901   5.743   6.623   5.393  0.2373 -0.8070 -2.1334
  117CHL1  H22B14902   5.665   6.770   5.379 -0.7921 -1.4785  1.5331
  117CHL1   C2314903   5.848   6.733   5.251  0.4421  0.2920  0.7764
  117CHL1  H23A14904   5.900   6.828   5.227  1.0772  0.3580  2.3051
  117CHL1  H23B14905   5.933   6.661   5.257  0.5541  0.1488 -1.5751
  117CHL1   C2414906   5.770   6.683   5.131 -0.2710  0.2250 -0.3201
  117CHL1  H24A14907   5.693   6.605   5.152  2.2727 -2.0658  1.1566
  117CHL1  H24B14908   5.712   6.774   5.104 -2.1952 -0.4895  1.1211
  117CHL1   C2514909   5.868   6.639   5.020 -0.1379 -0.3382  0.3031
  117CHL1   H2514910   5.952   6.710   5.005 -0.3133 -0.5677 -2.0975
  117CHL1   C2614911   5.921   6.491   5.033  0.2553  0.0065 -0.2751
  117CHL1  H26A14912   5.836   6.434   5.077  1.3064 -0.7746  0.8032
  117CHL1  H26B14913   5.945   6.454   4.931 -0.7542 -0.0713 -0.4978
  117CHL1  H26C14914   6.009   6.481   5.100  0.9208 -1.2446 -1.2876
  117CHL1   C2714915   5.795   6.657   4.883 -0.2021  0.1773 -0.5677
  117CHL1  H27A14916   5.746   6.757   4.887 -1.2422 -0.3505  0.1129
  117CHL1  H27B14917   5.861   6.646   4.794 -1.8577 -1.3242 -1.6758
  117CHL1  H27C14918   5.717   6.578   4.878 -0.2640 -0.1660  3.0862
  118CHL1    C314919   0.520   1.514   6.530  0.5735  0.0869  0.1697
  118CHL1    H314920   0.612   1.577   6.528  0.7987 -0.2568 -0.4449
  118CHL1    O314921   0.536   1.422   6.639  0.2189 -0.3112  0.1799
  118CHL1   H3'14922   0.452   1.377   6.639  0.9815 -1.8595 -1.4650
  118CHL1    C414923   0.388   1.598   6.556  0.6220  0.2306 -0.1659
  118CHL1   H4A14924   0.313   1.518   6.572  1.0884 -0.2176 -0.2001
  118CHL1   H4B14925   0.415   1.658   6.646 -0.1317  0.4383 -0.0784
  118CHL1    C514926   0.364   1.677   6.433 -0.9112 -0.2723  0.1839
  118CHL1    C614927   0.361   1.810   6.444  1.0324  0.8269 -0.2432
  118CHL1    H614928   0.386   1.864   6.537 -1.7948  3.7191 -0.9662
  118CHL1    C714929   0.309   1.907   6.333  0.0542  0.6501 -0.0580
  118CHL1   H7A14930   0.235   1.973   6.384  1.4582  1.6560  0.7264
  118CHL1   H7B14931   0.389   1.975   6.296  1.8722 -1.3724  0.0214
  118CHL1    C814932   0.242   1.825   6.217 -0.3727 -0.0044 -0.8361
  118CHL1    H814933   0.139   1.802   6.249 -0.3755  0.8507 -0.1980
  118CHL1   C1414934   0.240   1.910   6.086  0.0524 -0.5210  0.3265
  118CHL1   H1414935   0.346   1.935   6.063  1.0455 -2.9198  1.8721
  118CHL1   C1514936   0.180   2.049   6.102  0.7223 -0.2093 -0.2094
  118CHL1  H15A14937   0.085   2.048   6.159  1.9289  1.1246  1.9560
  118CHL1  H15B14938   0.246   2.116   6.161 -2.0407  0.9268  1.7702
  118CHL1   C1614939   0.157   2.089   5.958 -0.7041 -0.5405 -0.4246
  118CHL1  H16A14940   0.059   2.142   5.966 -0.4502 -0.1881  0.3997
  118CHL1  H16B14941   0.238   2.150   5.915 -1.0683  0.7757  0.6870
  118CHL1   C1714942   0.160   1.964   5.869 -0.2394 -0.0094 -0.0008
  118CHL1   H1714943   0.262   1.973   5.826  0.0405  2.0903  0.9670
  118CHL1   C1314944   0.170   1.840   5.966  0.4021 -0.2364  0.0080
  118CHL1   C1814945   0.025   1.798   5.999 -0.2138 -0.4198  0.0759
  118CHL1  H18A14946   0.019   1.714   6.072 -2.6234 -1.2011 -0.9454
  118CHL1  H18B14947  -0.023   1.879   6.058 -2.4300 -2.6119  1.4371
  118CHL1  H18C14948  -0.049   1.781   5.919 -0.0462  1.0761 -0.4425
  118CHL1   C1214949   0.247   1.711   5.930 -1.0134  0.0749 -0.3524
  118CHL1  H12A14950   0.182   1.669   5.850 -0.0048  0.8065 -1.5863
  118CHL1  H12B14951   0.349   1.740   5.899 -0.2240 -1.1731  0.9237
  118CHL1   C1114952   0.261   1.621   6.056  0.5662  0.0814  0.0435
  118CHL1  H11A14953   0.163   1.577   6.084  1.1740 -0.2651  1.7964
  118CHL1  H11B14954   0.329   1.538   6.026  0.0240 -0.4431  0.2597
  118CHL1    C914955   0.316   1.699   6.178 -0.3415  0.0677 -0.3218
  118CHL1    H914956   0.418   1.735   6.151  0.1777 -1.6791 -0.7924
  118CHL1   C1014957   0.343   1.605   6.307  0.5778 -0.4143  0.9277
  118CHL1   C1914958   0.227   1.499   6.331 -0.2580  0.0324  0.1901
  118CHL1  H19A14959   0.133   1.558   6.339  0.2444  0.8501  0.1338
  118CHL1  H19B14960   0.205   1.441   6.239 -2.0190 -0.0059  0.5877
  118CHL1  H19C14961   0.239   1.430   6.417  0.3500 -0.5711 -0.3699
  118CHL1    C114962   0.476   1.528   6.288  0.3705 -0.4457  0.8415
  118CHL1   H1A14963   0.471   1.465   6.197  1.4149  0.4012  0.1752
  118CHL1   H1B14964   0.562   1.595   6.264  1.1404 -2.7572 -4.0619
  118CHL1    C214965   0.507   1.434   6.397 -0.5595  0.4724  0.2975
  118CHL1   H2A14966   0.602   1.378   6.383 -0.1929  0.6371  1.8601
  118CHL1   H2B14967   0.427   1.357   6.411  0.1585 -0.2507  0.4931
  118CHL1   C2014968   0.059   1.964   5.751  0.1316 -0.0669  0.2563
  118CHL1   H2014969  -0.039   1.940   5.798  1.0482 -1.5485  1.5466
  118CHL1   C2114970   0.073   1.866   5.634  0.2829  0.2675  0.9038
  118CHL1  H21A14971   0.071   1.760   5.666 -1.1179 -0.0834 -0.2544
  118CHL1  H21B14972   0.163   1.895   5.575 -0.0823 -0.3693  0.0184
  118CHL1  H21C14973  -0.023   1.879   5.578  0.2266  1.8350  1.2965
  118CHL1   C2214974   0.050   2.105   5.686 -0.0293  0.0710  0.4749
  118CHL1  H22A14975   0.006   2.175   5.760 -0.3588  1.7350 -1.1989
  118CHL1  H22B14976   0.151   2.152   5.674 -0.7456  2.2084  2.0711
  118CHL1   C2314977  -0.039   2.128   5.553 -0.6301 -0.2495  0.1122
  118CHL1  H23A14978   0.019   2.080   5.472  0.9138 -0.4265  1.2823
  118CHL1  H23B14979  -0.142   2.088   5.569 -1.0658  0.9280  0.4057
  118CHL1   C2414980  -0.058   2.283   5.532 -0.1439  0.3253  0.7293
  118CHL1  H24A14981  -0.124   2.314   5.616  0.1308  0.7424  0.7998
  118CHL1  H24B14982   0.040   2.331   5.554  1.3929 -2.0680 -0.4536
  118CHL1   C2514983  -0.111   2.329   5.396 -0.5700  0.5104 -0.8987
  118CHL1   H2514984  -0.035   2.292   5.324 -0.5288 -0.8862 -0.1814
  118CHL1   C2614985  -0.246   2.260   5.363 -0.1809  0.0315  0.5317
  118CHL1  H26A14986  -0.290   2.307   5.272  0.8634  2.0646  0.9990
  118CHL1  H26B14987  -0.229   2.154   5.338  2.2693  0.3886  0.4921
  118CHL1  H26C14988  -0.319   2.257   5.447  0.5662 -0.4861  1.1692
  118CHL1   C2714989  -0.134   2.475   5.402 -0.3586 -0.7526  0.6084
  118CHL1  H27A14990  -0.036   2.522   5.424 -1.8809  3.4997 -0.7206
  118CHL1  H27B14991  -0.178   2.516   5.308  0.3525  0.8642  0.9490
  118CHL1  H27C14992  -0.196   2.490   5.493 -0.8808 -0.2072  0.1673
  119CHL1    C314993   2.172   0.635   6.531 -0.1427 -0.3350  1.0899
  119CHL1    H314994   2.096   0.579   6.473 -0.2872  0.4765  0.4877
  119CHL1    O314995   2.177   0.588   6.665  0.0257  0.3588 -0.2283
  119CHL1   H3'14996   2.089   0.553   6.680  0.4337 -0.6926 -0.1882
  119CHL1    C414997   2.310   0.636   6.464 -0.2877  0.6403  0.3019
  119CHL1   H4A14998   2.375   0.682   6.542 -1.3037  1.2778  0.8030
  119CHL1   H4B14999   2.345   0.531   6.456 -0.3854  0.5219  1.2146
  119CHL1    C515000   2.295   0.700   6.328 -0.2410 -1.0014  0.7980
  119CHL1    C615001   2.316   0.626   6.220 -0.1273 -0.1491 -0.2647
  119CHL1    H615002   2.343   0.521   6.236  0.1909  0.1862  1.6340
  119CHL1    C715003   2.309   0.671   6.071 -0.0731  0.5025 -0.3434
  119CHL1   H7A15004   2.389   0.626   6.009 -1.1792 -0.6873 -0.9738
  119CHL1   H7B15005   2.209   0.641   6.032  0.3056  1.5231 -2.1859
  119CHL1    C815006   2.320   0.830   6.067 -0.1313  0.3291 -0.6680
  119CHL1    H815007   2.428   0.854   6.079 -0.4407  0.7344  1.6631
  119CHL1   C1415008   2.269   0.880   5.930  0.6627 -0.0722 -0.3448
  119CHL1   H1415009   2.161   0.855   5.929  0.7502 -0.4388 -0.5740
  119CHL1   C1515010   2.334   0.813   5.814 -0.3008  0.6293 -0.1558
  119CHL1  H15A15011   2.443   0.802   5.831 -0.4288 -0.9973 -0.2326
  119CHL1  H15B15012   2.296   0.712   5.788 -1.1142  0.9667 -0.3041
  119CHL1   C1615013   2.315   0.905   5.700 -0.2827  0.3233 -0.2308
  119CHL1  H16A15014   2.402   0.934   5.638 -0.1321  0.5024  0.0603
  119CHL1  H16B15015   2.243   0.860   5.628 -0.4060 -1.2412  0.8287
  119CHL1   C1715016   2.242   1.035   5.757  0.0634  1.0054  0.2851
  119CHL1   H1715017   2.132   1.014   5.752  0.3688 -1.3700  1.6588
  119CHL1   C1315018   2.280   1.029   5.907 -1.1812  0.1530  0.5304
  119CHL1   C1815019   2.423   1.074   5.913 -0.5948  0.1943 -0.9116
  119CHL1  H18A15020   2.490   1.022   5.841  1.3035  0.0194  0.8828
  119CHL1  H18B15021   2.437   1.181   5.888 -0.3598 -0.0348 -1.8026
  119CHL1  H18C15022   2.471   1.061   6.012  2.6744  1.9017 -2.1097
  119CHL1   C1215023   2.183   1.088   6.010 -0.0260  0.7006 -0.2783
  119CHL1  H12A15024   2.179   1.198   5.997  1.3855  0.8792  0.6020
  119CHL1  H12B15025   2.087   1.040   5.980  1.1411 -1.7007 -0.4701
  119CHL1   C1115026   2.214   1.049   6.153 -0.1339  1.5457 -0.7138
  119CHL1  H11A15027   2.301   1.102   6.196 -0.3888  1.0953  0.3977
  119CHL1  H11B15028   2.125   1.068   6.216 -1.8903  3.0058 -3.4256
  119CHL1    C915029   2.230   0.891   6.179 -0.4019 -0.4608 -0.1236
  119CHL1    H915030   2.128   0.851   6.158  0.3229 -1.8561 -1.1809
  119CHL1   C1015031   2.256   0.850   6.326 -0.8336  0.3179 -0.3863
  119CHL1   C1915032   2.369   0.935   6.385 -1.0270 -0.3147 -0.4225
  119CHL1  H19A15033   2.409   0.900   6.483 -2.2792  1.3216  0.7206
  119CHL1  H19B15034   2.452   0.952   6.312 -0.5646 -0.7650 -0.0115
  119CHL1  H19C15035   2.321   1.032   6.409 -0.0761  0.3835 -1.2795
  119CHL1    C115036   2.131   0.862   6.412  0.8508  0.2348 -0.2256
  119CHL1   H1A15037   2.124   0.968   6.445  0.1947 -0.4306  1.8835
  119CHL1   H1B15038   2.041   0.831   6.353  0.6838  0.3838 -0.0513
  119CHL1    C215039   2.125   0.783   6.542  0.0138 -0.4294  0.0549
  119CHL1   H2A15040   2.025   0.786   6.590  1.1518  1.4417  2.5748
  119CHL1   H2B15041   2.196   0.844   6.602 -2.4114  0.7486  1.8822
  119CHL1   C2015042   2.274   1.154   5.671  0.2996  0.1619  0.3663
  119CHL1   H2015043   2.384   1.160   5.656 -0.0300  0.2947 -2.3769
  119CHL1   C2115044   2.236   1.287   5.744 -0.5256  0.2930 -0.1028
  119CHL1  H21A15045   2.278   1.302   5.846 -1.8244  2.5606  0.1776
  119CHL1  H21B15046   2.129   1.285   5.773 -0.2595 -1.0493  0.8568
  119CHL1  H21C15047   2.247   1.378   5.680 -0.8577  0.5546  0.2112
  119CHL1   C2215048   2.208   1.152   5.531  0.5776  0.0355 -0.0212
  119CHL1  H22A15049   2.235   1.060   5.474 -0.2352 -0.6301  0.6373
  119CHL1  H22B15050   2.099   1.162   5.550  1.0977  1.9303  2.4443
  119CHL1   C2315051   2.241   1.278   5.445  1.1275  0.5979  0.8034
  119CHL1  H23A15052   2.178   1.362   5.481  0.1897 -0.0156  0.6116
  119CHL1  H23B15053   2.347   1.311   5.442  1.3815 -0.3113 -1.2124
  119CHL1   C2415054   2.192   1.245   5.302 -0.5615 -0.0201 -0.6007
  119CHL1  H24A15055   2.242   1.152   5.265  1.3391  0.0322  1.6433
  119CHL1  H24B15056   2.084   1.219   5.301 -0.5035 -0.3239 -2.3068
  119CHL1   C2515057   2.218   1.365   5.204 -0.2228  0.5521  0.9764
  119CHL1   H2515058   2.326   1.392   5.197  0.2756 -1.6036 -0.3858
  119CHL1   C2615059   2.190   1.309   5.067  0.2660  0.0007 -0.8493
  119CHL1  H26A15060   2.082   1.284   5.062  0.8886 -3.5544  0.3677
  119CHL1  H26B15061   2.216   1.384   4.989 -0.4165  0.9887 -0.1522
  119CHL1  H26C15062   2.247   1.215   5.056  2.2335  0.6293  2.4600
  119CHL1   C2715063   2.128   1.490   5.235  0.2513  0.5622  0.4350
  119CHL1  H27A15064   2.023   1.463   5.211  0.8332 -0.4441 -1.0771
  119CHL1  H27B15065   2.118   1.521   5.341  0.4043 -0.6017  0.8018
  119CHL1  H27C15066   2.153   1.561   5.153  1.4215 -1.2423 -0.8511
  120CHL1    C315067   1.597   0.213   6.399  1.7113 -0.0507  0.4093
  120CHL1    H315068   1.672   0.293   6.411  1.3235  0.4099 -0.2180
  120CHL1    O315069   1.599   0.126   6.505  0.7598 -0.0060 -0.0677
  120CHL1   H3'15070   1.575   0.044   6.462 -3.9731 -0.1099  2.1441
  120CHL1    C415071   1.448   0.269   6.397 -0.3019  0.2132  0.3052
  120CHL1   H4A15072   1.378   0.184   6.383  0.1680 -0.3170  1.0922
  120CHL1   H4B15073   1.432   0.317   6.496 -0.8208 -1.0208  0.8475
  120CHL1    C515074   1.440   0.370   6.282  0.0703  0.4102  0.0343
  120CHL1    C615075   1.398   0.502   6.306 -0.7677 -0.4409 -0.3336
  120CHL1    H615076   1.370   0.537   6.406 -1.3090  0.5367 -0.8154
  120CHL1    C715077   1.377   0.603   6.200 -0.0844 -0.5218  0.2028
  120CHL1   H7A15078   1.281   0.658   6.214  0.0174 -0.6292  1.4466
  120CHL1   H7B15079   1.452   0.683   6.215 -1.3967  1.0052 -0.9950
  120CHL1    C815080   1.382   0.535   6.063 -0.4423  0.5881  0.3660
  120CHL1    H815081   1.283   0.490   6.042  0.0726 -0.2325 -0.4041
  120CHL1   C1415082   1.392   0.640   5.952 -1.0385 -0.2107  0.2096
  120CHL1   H1415083   1.492   0.686   5.972  0.1826 -1.0067 -3.2849
  120CHL1   C1515084   1.297   0.757   5.962 -0.4310 -0.2562  0.1235
  120CHL1  H15A15085   1.195   0.717   5.979  0.5580 -2.3476  1.6982
  120CHL1  H15B15086   1.326   0.833   6.038 -0.1390  1.0835 -1.2816
  120CHL1   C1615087   1.305   0.824   5.823 -0.8248 -0.1990 -0.0278
  120CHL1  H16A15088   1.207   0.825   5.770 -0.0637 -0.1420 -1.4875
  120CHL1  H16B15089   1.355   0.922   5.835  1.0990 -1.2342  0.9641
  120CHL1   C1715090   1.401   0.730   5.743 -0.7280 -0.4355  0.0624
  120CHL1   H1715091   1.500   0.767   5.775 -0.3420  0.7959 -2.3266
  120CHL1   C1315092   1.388   0.594   5.811 -0.8810  0.7044 -0.4093
  120CHL1   C1815093   1.263   0.522   5.764  0.4190 -0.4064 -0.0573
  120CHL1  H18A15094   1.246   0.444   5.841  0.9385  1.1913  1.7793
  120CHL1  H18B15095   1.173   0.587   5.765 -0.6322 -1.8118  0.2735
  120CHL1  H18C15096   1.265   0.490   5.658 -0.4105  1.6562 -0.7465
  120CHL1   C1215097   1.516   0.506   5.797  0.0928  0.0713 -0.2399
  120CHL1  H12A15098   1.530   0.464   5.695  0.6361  0.6134 -0.3912
  120CHL1  H12B15099   1.599   0.578   5.811  1.2920 -1.4142  0.6364
  120CHL1   C1115100   1.524   0.394   5.904  0.3339 -0.2936  0.5390
  120CHL1  H11A15101   1.442   0.330   5.865 -2.1098  2.5648  0.6896
  120CHL1  H11B15102   1.628   0.353   5.902 -0.2157 -1.7016 -0.3697
  120CHL1    C915103   1.490   0.431   6.049 -1.2736  0.0010 -0.0203
  120CHL1    H915104   1.580   0.490   6.078 -0.2626 -2.3599  2.0975
  120CHL1   C1015105   1.471   0.309   6.138 -0.7664 -0.3416  0.0466
  120CHL1   C1915106   1.365   0.217   6.065 -0.0374 -0.9233 -0.4507
  120CHL1  H19A15107   1.397   0.172   5.968  0.0155 -0.6051 -0.5816
  120CHL1  H19B15108   1.330   0.142   6.139 -0.3146 -1.3599 -1.0148
  120CHL1  H19C15109   1.271   0.271   6.041  0.2190 -0.8894 -1.4327
  120CHL1    C115110   1.606   0.235   6.150  0.2378  0.0386  0.6016
  120CHL1   H1A15111   1.630   0.183   6.055  2.0579  2.5247 -0.4102
  120CHL1   H1B15112   1.686   0.311   6.153 -0.3929  0.6884  1.4253
  120CHL1    C215113   1.620   0.141   6.270 -0.0599 -0.1794 -0.1646
  120CHL1   H2A15114   1.722   0.096   6.274 -0.7456 -2.1881 -2.5809
  120CHL1   H2B15115   1.555   0.054   6.246 -0.0177 -0.6470  1.3101
  120CHL1   C2015116   1.404   0.738   5.593 -0.1499  1.2542  0.3990
  120CHL1   H2015117   1.310   0.688   5.561 -0.1008 -0.6435  2.9015
  120CHL1   C2115118   1.512   0.652   5.523  0.4185  0.5275 -0.0578
  120CHL1  H21A15119   1.596   0.639   5.595  0.6871  0.3789 -0.4002
  120CHL1  H21B15120   1.547   0.688   5.424 -0.1466  0.9419 -0.1167
  120CHL1  H21C15121   1.453   0.559   5.514  0.4703  0.6905 -2.6180
  120CHL1   C2215122   1.415   0.890   5.540 -0.5404  0.0678  0.0904
  120CHL1  H22A15123   1.391   0.885   5.432  0.2946  0.5453 -0.1211
  120CHL1  H22B15124   1.343   0.959   5.589  0.7830  1.0305  0.7471
  120CHL1   C2315125   1.550   0.954   5.554 -0.3968  0.1043  0.1452
  120CHL1  H23A15126   1.567   1.004   5.652  1.3158 -2.3465  1.1863
  120CHL1  H23B15127   1.629   0.877   5.548 -0.3883  0.0088  1.3774
  120CHL1   C2415128   1.573   1.046   5.432  0.8403  0.5329  0.2196
  120CHL1  H24A15129   1.612   0.981   5.351  1.1510  1.7707 -0.6497
  120CHL1  H24B15130   1.481   1.083   5.382 -0.0568 -2.4160 -0.5166
  120CHL1   C2515131   1.672   1.161   5.462 -0.1160  0.1615  0.2782
  120CHL1   H2515132   1.622   1.236   5.527  0.7491  0.8699  0.1484
  120CHL1   C2615133   1.803   1.110   5.524  0.8949 -0.2012 -0.4316
  120CHL1  H26A15134   1.862   1.199   5.553  1.3759 -0.7887  0.4567
  120CHL1  H26B15135   1.780   1.051   5.616 -2.0379 -2.3508 -2.3252
  120CHL1  H26C15136   1.867   1.048   5.458  1.0901 -1.1598  0.6175
  120CHL1   C2715137   1.691   1.232   5.327  0.3605 -0.2023 -0.1556
  120CHL1  H27A15138   1.757   1.157   5.279  0.1078 -0.8398  0.4788
  120CHL1  H27B15139   1.593   1.252   5.278 -0.6101  0.0126  1.7620
  120CHL1  H27C15140   1.749   1.326   5.343 -0.2979  0.3119 -0.7082
  121CHL1    C315141   4.748   3.364   3.680  0.0126  0.0386  0.3077
  121CHL1    H315142   4.652   3.420   3.679 -0.3176 -0.5190 -1.6984
  121CHL1    O315143   4.762   3.300   3.552 -0.5479 -0.2931  0.0287
  121CHL1   H3'15144   4.804   3.365   3.494 -1.6214  1.0835  0.7474
  121CHL1    C415145   4.870   3.460   3.698 -0.1010  0.1315 -0.2352
  121CHL1   H4A15146   4.961   3.396   3.694  0.5677  1.0584 -0.0763
  121CHL1   H4B15147   4.855   3.527   3.611  0.1005 -0.2791 -0.5901
  121CHL1    C515148   4.876   3.527   3.834  0.1150 -1.1310 -0.4423
  121CHL1    C615149   4.885   3.660   3.835 -0.4571  0.1001 -0.7563
  121CHL1    H615150   4.899   3.716   3.741 -2.0244  2.1443  0.1527
  121CHL1    C715151   4.880   3.735   3.962 -0.1240 -0.5185  0.2818
  121CHL1   H7A15152   4.952   3.819   3.972  1.4362 -1.3150 -3.1024
  121CHL1   H7B15153   4.783   3.788   3.952 -0.0999 -0.7980 -1.7170
  121CHL1    C815154   4.909   3.661   4.094 -0.5846  0.2181  0.1208
  121CHL1    H815155   5.016   3.632   4.083 -0.7469  0.0843 -1.3429
  121CHL1   C1415156   4.866   3.740   4.218 -0.6602  0.1378  0.2850
  121CHL1   H1415157   4.760   3.763   4.195  0.0721  2.2219 -1.3202
  121CHL1   C1515158   4.924   3.879   4.229 -0.8898 -0.5343 -0.0421
  121CHL1  H15A15159   5.028   3.874   4.188 -0.8000  1.4373 -0.1755
  121CHL1  H15B15160   4.868   3.956   4.173 -0.7053 -0.4720 -0.1437
  121CHL1   C1615161   4.911   3.903   4.383  0.0905  0.3134  0.2211
  121CHL1  H16A15162   5.003   3.941   4.431  0.0100  0.1605  0.5003
  121CHL1  H16B15163   4.831   3.980   4.395  0.0813  0.3962 -0.3490
  121CHL1   C1715164   4.843   3.782   4.444  0.0002  0.2294 -0.2344
  121CHL1   H1715165   4.734   3.799   4.433  0.2052  1.9750  0.0241
  121CHL1   C1315166   4.875   3.664   4.352 -0.3055  0.9977  0.8080
  121CHL1   C1815167   5.028   3.632   4.378  0.4528 -0.1599  0.5499
  121CHL1  H18A15168   5.062   3.562   4.298 -0.1197 -0.5428  0.6340
  121CHL1  H18B15169   5.090   3.723   4.373  1.0912 -0.6486 -2.0187
  121CHL1  H18C15170   5.041   3.586   4.479 -0.7400  0.0007  0.7932
  121CHL1   C1215171   4.792   3.537   4.353 -0.6006 -0.4265 -0.0352
  121CHL1  H12A15172   4.803   3.479   4.447 -1.3877  2.2887  1.8542
  121CHL1  H12B15173   4.686   3.569   4.353 -0.8773 -1.2983 -0.4924
  121CHL1   C1115174   4.810   3.453   4.225 -0.6580  0.1258  0.1858
  121CHL1  H11A15175   4.912   3.411   4.239 -0.4822  0.7464  0.7872
  121CHL1  H11B15176   4.729   3.378   4.216 -1.1446  0.7000 -0.2776
  121CHL1    C915177   4.819   3.531   4.089 -0.0184  1.5336  0.0520
  121CHL1    H915178   4.718   3.574   4.073 -1.5729 -1.0788  2.1352
  121CHL1   C1015179   4.853   3.443   3.963 -0.2165 -0.2846 -0.1913
  121CHL1   C1915180   4.982   3.362   3.989  0.3286 -0.8270 -0.3896
  121CHL1  H19A15181   4.954   3.299   4.077  0.9992 -0.6361 -0.0286
  121CHL1  H19B15182   5.002   3.304   3.897  1.1816 -0.4283 -0.4663
  121CHL1  H19C15183   5.070   3.423   4.019 -0.7119  1.0171 -0.9764
  121CHL1    C115184   4.728   3.353   3.932 -0.1416  0.6445 -0.1931
  121CHL1   H1A15185   4.708   3.298   4.027  0.3237  0.3458 -0.2658
  121CHL1   H1B15186   4.644   3.423   3.914  0.1651  0.6400 -1.7372
  121CHL1    C215187   4.740   3.273   3.802  0.1548  0.1594  0.2458
  121CHL1   H2A15188   4.653   3.209   3.779  0.5641  0.3040 -1.9126
  121CHL1   H2B15189   4.832   3.210   3.801  0.3693  0.4268 -1.6537
  121CHL1   C2015190   4.874   3.765   4.600 -0.5085 -0.1228  0.5547
  121CHL1   H2015191   4.980   3.748   4.626  0.7142  1.5129 -2.7090
  121CHL1   C2115192   4.785   3.651   4.661  0.2765  0.3498 -0.4451
  121CHL1  H21A15193   4.690   3.655   4.604  0.8111 -1.7634 -1.5795
  121CHL1  H21B15194   4.773   3.670   4.770  1.6577  2.6423 -0.6393
  121CHL1  H21C15195   4.839   3.557   4.637  0.8066  0.9446 -1.7061
  121CHL1   C2215196   4.844   3.903   4.672 -0.4086  0.5547  0.1360
  121CHL1  H22A15197   4.904   3.982   4.621  1.8206  0.0067  1.7400
  121CHL1  H22B15198   4.739   3.931   4.649 -0.7421  1.9124  2.9285
  121CHL1   C2315199   4.879   3.914   4.815  0.1631 -0.3668  0.0482
  121CHL1  H23A15200   4.867   4.023   4.832  0.7677 -0.2971  0.0244
  121CHL1  H23B15201   4.791   3.875   4.872 -0.7471  0.6785 -0.5960
  121CHL1   C2415202   5.013   3.858   4.861  0.0255  0.5878 -0.3481
  121CHL1  H24A15203   5.007   3.751   4.888 -0.4394  0.6975  0.0048
  121CHL1  H24B15204   5.090   3.884   4.786 -0.6228  1.7994 -0.6323
  121CHL1   C2515205   5.060   3.925   4.991 -0.1836  0.1675 -0.1087
  121CHL1   H2515206   5.083   4.030   4.964  1.5095 -0.4809 -1.3369
  121CHL1   C2615207   4.958   3.918   5.107 -0.0949 -0.1634  0.7665
  121CHL1  H26A15208   4.960   3.816   5.149  1.4877 -0.0629  1.0199
  121CHL1  H26B15209   4.997   3.990   5.182  0.7214  1.5854 -1.2221
  121CHL1  H26C15210   4.861   3.960   5.074 -1.7019 -3.7287  0.5046
  121CHL1   C2715211   5.190   3.867   5.045  0.1147 -0.2830 -0.4873
  121CHL1  H27A15212   5.179   3.759   5.070 -1.1943 -0.2771 -0.9630
  121CHL1  H27B15213   5.267   3.891   4.969 -0.3900  2.8445 -0.1263
  121CHL1  H27C15214   5.211   3.926   5.136  1.6981  0.1366 -1.1061
  122CHL1    C315215   2.776   3.577   3.814  0.4552  0.2073  0.2758
  122CHL1    H315216   2.731   3.678   3.819 -1.0083 -0.4133  0.4049
  122CHL1    O315217   2.737   3.508   3.697  0.0994 -0.0310  0.5947
  122CHL1   H3'15218   2.742   3.413   3.709 -0.9900 -0.3960 -1.3380
  122CHL1    C415219   2.926   3.582   3.821  0.1945 -0.4708 -0.0661
  122CHL1   H4A15220   2.974   3.482   3.819 -2.1408 -1.6428 -1.3466
  122CHL1   H4B15221   2.964   3.631   3.729 -0.9973 -0.6680 -0.6773
  122CHL1    C515222   2.968   3.653   3.949 -0.2443 -0.0903  0.1913
  122CHL1    C615223   3.059   3.749   3.945 -0.7298  0.6970 -0.2814
  122CHL1    H615224   3.105   3.754   3.845  1.9829 -0.6151  0.7806
  122CHL1    C715225   3.114   3.826   4.063  0.8431 -0.4200 -0.2195
  122CHL1   H7A15226   3.224   3.840   4.064  0.9828 -1.3025 -1.4389
  122CHL1   H7B15227   3.060   3.923   4.056 -1.5910 -1.7558 -1.1825
  122CHL1    C815228   3.070   3.772   4.202  0.1273 -1.2921 -0.3729
  122CHL1    H815229   3.134   3.688   4.237  2.3267  0.3076 -0.2997
  122CHL1   C1415230   3.075   3.884   4.303  0.2433  0.2276 -0.6244
  122CHL1   H1415231   2.998   3.957   4.272 -1.1189 -0.8470  0.0778
  122CHL1   C1515232   3.207   3.959   4.322 -0.2945  0.5150 -0.1189
  122CHL1  H15A15233   3.277   3.873   4.320 -3.3160 -2.1093 -1.5470
  122CHL1  H15B15234   3.230   4.026   4.236  2.0851 -0.9374 -0.7296
  122CHL1   C1615235   3.195   4.033   4.460 -0.1790 -0.0229  0.7628
  122CHL1  H16A15236   3.274   3.991   4.527 -0.4642 -1.7396  0.0727
  122CHL1  H16B15237   3.216   4.141   4.452  1.1655 -0.3604 -0.7428
  122CHL1   C1715238   3.050   3.996   4.513 -0.4334 -0.7556 -0.0470
  122CHL1   H1715239   2.971   4.067   4.480 -0.0404 -0.3816 -0.1944
  122CHL1   C1315240   3.013   3.859   4.445 -0.2247  0.9017  0.2311
  122CHL1   C1815241   3.104   3.749   4.514  0.1600  0.1794  0.9788
  122CHL1  H18A15242   3.128   3.663   4.447  2.0888  0.3918  1.3283
  122CHL1  H18B15243   3.200   3.796   4.542 -0.1801  1.3346  0.2648
  122CHL1  H18C15244   3.049   3.712   4.603 -0.3924 -1.6920 -0.0888
  122CHL1   C1215245   2.865   3.816   4.428  0.1621  0.2925 -1.0294
  122CHL1  H12A15246   2.825   3.787   4.527  0.7789  2.7608 -0.0067
  122CHL1  H12B15247   2.810   3.898   4.378  0.4907  1.4829  0.5036
  122CHL1   C1115248   2.856   3.697   4.326  0.1673  0.0281  0.0019
  122CHL1  H11A15249   2.914   3.608   4.359 -0.1199 -0.0708  0.2425
  122CHL1  H11B15250   2.750   3.667   4.318 -0.4269  2.1632 -0.7290
  122CHL1    C915251   2.921   3.729   4.191  0.1955  0.6850  0.0656
  122CHL1    H915252   2.866   3.817   4.153  0.7255  0.4372 -1.3565
  122CHL1   C1015253   2.896   3.614   4.083 -0.8542  0.1288 -0.1306
  122CHL1   C1915254   2.951   3.479   4.132 -0.3063 -0.1148  0.5115
  122CHL1  H19A15255   2.883   3.429   4.204  0.0440 -0.9867  0.2464
  122CHL1  H19B15256   2.951   3.401   4.052  1.3945 -0.6554  1.0016
  122CHL1  H19C15257   3.051   3.487   4.179 -0.5121 -1.8727  1.3221
  122CHL1    C115258   2.738   3.588   4.063 -0.6634 -0.5553  0.2244
  122CHL1   H1A15259   2.697   3.542   4.155 -0.7199  0.8288  0.9155
  122CHL1   H1B15260   2.697   3.691   4.051 -2.0340 -0.4647  4.3024
  122CHL1    C215261   2.713   3.505   3.938 -0.4994  0.3104 -0.9425
  122CHL1   H2A15262   2.602   3.497   3.931 -0.3098 -2.3573 -2.0032
  122CHL1   H2B15263   2.744   3.399   3.948 -1.6639  0.0435  0.3028
  122CHL1   C2015264   3.046   4.004   4.669  0.2072 -0.4488  0.6635
  122CHL1   H2015265   3.128   3.936   4.701  0.8613 -1.1803 -2.2384
  122CHL1   C2115266   2.908   3.965   4.721  0.4977 -0.0944  0.1729
  122CHL1  H21A15267   2.907   3.854   4.726 -1.8391 -0.1938 -1.1325
  122CHL1  H21B15268   2.840   4.004   4.642  1.3626  0.9590 -0.0719
  122CHL1  H21C15269   2.882   4.013   4.817  0.5063  2.1781 -0.8904
  122CHL1   C2215270   3.089   4.147   4.719 -0.4719 -0.5722 -0.7889
  122CHL1  H22A15271   3.178   4.182   4.663  0.9367 -0.0113  1.6299
  122CHL1  H22B15272   2.998   4.204   4.690  0.8602  1.9513 -0.2666
  122CHL1   C2315273   3.119   4.136   4.869 -0.1870  0.0671 -0.8889
  122CHL1  H23A15274   3.030   4.093   4.919 -0.0895  0.9592  0.0942
  122CHL1  H23B15275   3.198   4.059   4.880 -0.6412 -0.6501 -2.4218
  122CHL1   C2415276   3.148   4.267   4.944  0.1057  0.1842 -0.1856
  122CHL1  H24A15277   3.228   4.320   4.888 -1.4044  0.3116 -2.3715
  122CHL1  H24B15278   3.057   4.331   4.941 -1.3132 -1.7464 -0.2857
  122CHL1   C2515279   3.186   4.223   5.087 -0.2618 -0.4139  0.6576
  122CHL1   H2515280   3.251   4.133   5.086 -1.8987 -1.6565 -1.3754
  122CHL1   C2615281   3.251   4.333   5.161  0.3891 -0.0987  0.0807
  122CHL1  H26A15282   3.188   4.424   5.162 -2.1627 -1.7438  0.7245
  122CHL1  H26B15283   3.275   4.314   5.268 -0.3352 -0.6214  0.1545
  122CHL1  H26C15284   3.348   4.364   5.116  0.9188  0.1530  1.3395
  122CHL1   C2715285   3.064   4.179   5.168 -0.3714  1.1026 -0.7386
  122CHL1  H27A15286   2.986   4.259   5.158 -1.1867  0.4161 -0.0160
  122CHL1  H27B15287   3.033   4.082   5.125  0.4396  0.1307  0.7961
  122CHL1  H27C15288   3.091   4.167   5.275 -0.0957 -0.5959 -0.9773
  123CHL1    C315289   5.555   3.528   3.173 -0.0228  0.2705 -0.0103
  123CHL1    H315290   5.525   3.427   3.137 -0.0439  0.6942 -1.2412
  123CHL1    O315291   5.541   3.606   3.058  0.1023  0.1656 -0.1171
  123CHL1   H3'15292   5.593   3.686   3.070  0.8034 -0.4663  1.2124
  123CHL1    C415293   5.453   3.576   3.276  0.4171  0.2611 -0.1563
  123CHL1   H4A15294   5.467   3.682   3.303  0.3917  0.9199 -2.5341
  123CHL1   H4B15295   5.351   3.579   3.233  0.3637  1.3178  0.0390
  123CHL1    C515296   5.459   3.498   3.405 -0.4385 -0.3360 -0.4556
  123CHL1    C615297   5.358   3.423   3.453 -0.3633  0.1085 -0.5802
  123CHL1    H615298   5.258   3.420   3.406 -0.3140 -1.3953 -0.6315
  123CHL1    C715299   5.368   3.336   3.573 -0.1616 -0.3809  0.4370
  123CHL1   H7A15300   5.276   3.334   3.634 -0.1282 -1.4735  0.4722
  123CHL1   H7B15301   5.379   3.233   3.531  0.1906 -0.0548 -0.2962
  123CHL1    C815302   5.484   3.374   3.666 -0.6737 -0.1231 -0.0808
  123CHL1    H815303   5.459   3.476   3.702 -0.3040 -0.0802  0.0619
  123CHL1   C1415304   5.508   3.279   3.781  0.4123  0.7031 -0.7793
  123CHL1   H1415305   5.531   3.180   3.737 -1.4954 -0.0439 -0.2058
  123CHL1   C1515306   5.383   3.253   3.873 -0.0321 -0.0795  0.3865
  123CHL1  H15A15307   5.316   3.340   3.887  0.4119  0.1826  0.9486
  123CHL1  H15B15308   5.327   3.177   3.816 -0.1383 -0.9924  1.6674
  123CHL1   C1615309   5.445   3.200   4.001 -0.0826 -0.3246  0.3788
  123CHL1  H16A15310   5.405   3.265   4.082 -0.5368 -1.6639  1.2756
  123CHL1  H16B15311   5.397   3.103   4.027 -0.1073 -0.5163 -0.3604
  123CHL1   C1715312   5.598   3.203   3.983 -0.2712  0.4682 -0.3542
  123CHL1   H1715313   5.635   3.103   3.953 -1.0947 -0.5167  1.7358
  123CHL1   C1315314   5.622   3.316   3.874 -0.2603  0.3751 -0.1962
  123CHL1   C1815315   5.590   3.453   3.930 -0.2033  0.3116  0.1881
  123CHL1  H18A15316   5.560   3.532   3.858  2.0151 -0.0011 -1.1485
  123CHL1  H18B15317   5.521   3.441   4.017  1.0698 -0.2835  1.1442
  123CHL1  H18C15318   5.685   3.487   3.976 -1.0666  0.9953  1.5611
  123CHL1   C1215319   5.745   3.300   3.789 -0.3622 -0.1835 -0.0724
  123CHL1  H12A15320   5.841   3.311   3.844 -0.0158 -0.6705 -0.5499
  123CHL1  H12B15321   5.748   3.201   3.737  1.1530  1.1009 -2.6507
  123CHL1   C1115322   5.742   3.410   3.677  0.1039 -0.0497  0.2938
  123CHL1  H11A15323   5.728   3.506   3.732  1.9136  0.3459  0.1492
  123CHL1  H11B15324   5.826   3.407   3.604 -0.7804  0.3746 -0.7749
  123CHL1    C915325   5.616   3.390   3.582  0.3055  0.1507 -0.9248
  123CHL1    H915326   5.637   3.290   3.539  2.4967 -0.3190  1.0385
  123CHL1   C1015327   5.605   3.496   3.466  0.3296 -0.8401  0.7016
  123CHL1   C1915328   5.646   3.634   3.523  0.2394  0.2572 -0.0425
  123CHL1  H19A15329   5.602   3.649   3.624  2.4686 -2.1906  1.4162
  123CHL1  H19B15330   5.755   3.643   3.545 -0.1584  3.7007  1.0957
  123CHL1  H19C15331   5.620   3.720   3.458  1.4410  2.2592  1.9939
  123CHL1    C115332   5.704   3.451   3.350  0.6148  0.0268 -0.6404
  123CHL1   H1A15333   5.800   3.461   3.404 -0.4544  0.0715  1.3335
  123CHL1   H1B15334   5.677   3.344   3.338  1.6503 -0.8114  3.0761
  123CHL1    C215335   5.699   3.530   3.226  0.2654  0.3113  0.0835
  123CHL1   H2A15336   5.772   3.498   3.148 -2.4592 -1.0626 -2.0953
  123CHL1   H2B15337   5.722   3.636   3.249 -0.7571  0.2683  1.3893
  123CHL1   C2015338   5.663   3.227   4.120  0.1449 -0.8980  0.3932
  123CHL1   H2015339   5.613   3.313   4.169 -0.0592 -0.7364 -0.0865
  123CHL1   C2115340   5.812   3.249   4.103  0.1821 -0.0240 -0.6204
  123CHL1  H21A15341   5.830   3.356   4.082 -1.1952  0.1318 -1.1300
  123CHL1  H21B15342   5.861   3.184   4.027  0.1832 -1.8188  0.8447
  123CHL1  H21C15343   5.867   3.219   4.195  3.9415 -0.7784 -2.8797
  123CHL1   C2215344   5.646   3.104   4.214  0.0731 -0.0882 -0.1662
  123CHL1  H22A15345   5.540   3.073   4.216  0.4232 -1.2648  1.1056
  123CHL1  H22B15346   5.707   3.014   4.196  0.1109 -0.4761  1.6953
  123CHL1   C2315347   5.675   3.152   4.358  0.1593 -0.1325  0.0162
  123CHL1  H23A15348   5.771   3.209   4.362  0.5484 -0.8290  1.0824
  123CHL1  H23B15349   5.591   3.216   4.392  0.3106  0.1147 -0.0694
  123CHL1   C2415350   5.696   3.041   4.452  0.4557  0.1884 -0.0442
  123CHL1  H24A15351   5.603   2.982   4.472  0.5521  0.3879  1.0739
  123CHL1  H24B15352   5.762   2.977   4.390  1.6870  1.6321 -0.2816
  123CHL1   C2515353   5.759   3.070   4.591  0.4046 -0.1648 -0.6229
  123CHL1   H2515354   5.764   2.974   4.646  0.3406 -1.4082 -2.6966
  123CHL1   C2615355   5.898   3.135   4.590 -0.1262  0.0009  0.1618
  123CHL1  H26A15356   5.965   3.078   4.522 -1.0863  0.8393 -1.5537
  123CHL1  H26B15357   5.884   3.241   4.559 -1.1701  0.1056  0.9488
  123CHL1  H26C15358   5.942   3.135   4.692  0.6030 -0.7150 -0.1411
  123CHL1   C2715359   5.664   3.158   4.674  0.7663 -0.2975 -0.4613
  123CHL1  H27A15360   5.563   3.111   4.670  0.9550 -0.6126 -1.6519
  123CHL1  H27B15361   5.707   3.161   4.777  0.7723 -0.8588 -0.4436
  123CHL1  H27C15362   5.654   3.260   4.630  1.4694  0.9950  2.1197
  124CHL1    C315363   4.031   4.379   3.789 -0.4042 -0.3808  0.1522
  124CHL1    H315364   4.026   4.487   3.814  1.1355 -0.3657  0.4714
  124CHL1    O315365   3.944   4.344   3.691  0.0282 -0.4483 -0.5613
  124CHL1   H3'15366   3.974   4.257   3.666 -0.5115 -1.1620  1.1105
  124CHL1    C415367   4.168   4.360   3.728 -1.3316 -0.1656  0.5721
  124CHL1   H4A15368   4.180   4.270   3.664 -3.7944  0.2712 -0.6532
  124CHL1   H4B15369   4.181   4.435   3.647  1.9833  0.2705  1.3745
  124CHL1    C515370   4.283   4.361   3.826  0.5728  0.1992  0.8373
  124CHL1    C615371   4.391   4.426   3.797  0.4515 -0.2526  0.6334
  124CHL1    H615372   4.398   4.490   3.708  1.0618  0.6821  1.3310
  124CHL1    C715373   4.506   4.426   3.888 -0.5202  0.0782 -0.6393
  124CHL1   H7A15374   4.602   4.397   3.840 -0.2330 -1.0694  0.5798
  124CHL1   H7B15375   4.511   4.532   3.923 -0.1417  1.0530 -3.3766
  124CHL1    C815376   4.499   4.338   4.017 -0.6231 -0.3743 -0.9029
  124CHL1    H815377   4.531   4.235   3.992  1.3749  0.5886 -2.6479
  124CHL1   C1415378   4.596   4.390   4.119 -0.5021 -0.2221  0.3241
  124CHL1   H1415379   4.562   4.494   4.139 -1.0143 -0.8686  3.2459
  124CHL1   C1515380   4.740   4.407   4.073 -0.2384 -0.0299  0.5001
  124CHL1  H15A15381   4.777   4.326   4.006  0.9414  2.0852 -1.5745
  124CHL1  H15B15382   4.760   4.494   4.007  0.3798 -0.3708  0.2283
  124CHL1   C1615383   4.819   4.422   4.205 -0.0822 -0.1049 -0.3190
  124CHL1  H16A15384   4.912   4.364   4.222  0.6206  1.9098  4.0735
  124CHL1  H16B15385   4.847   4.530   4.201  2.6404 -0.7055  0.3612
  124CHL1   C1715386   4.713   4.404   4.321 -0.2599 -0.2635 -0.7208
  124CHL1   H1715387   4.674   4.505   4.346  0.5368  0.0332 -0.6482
  124CHL1   C1315388   4.602   4.319   4.256  0.1463 -0.1320  0.0640
  124CHL1   C1815389   4.650   4.177   4.253  0.1321 -0.4683  0.3738
  124CHL1  H18A15390   4.753   4.172   4.210  0.2782  1.4310  0.4348
  124CHL1  H18B15391   4.654   4.128   4.353 -2.1657 -0.8213  0.3425
  124CHL1  H18C15392   4.594   4.109   4.185  2.8473 -0.2214 -2.3251
  124CHL1   C1215393   4.460   4.338   4.311  0.4013  0.6019  0.2674
  124CHL1  H12A15394   4.455   4.297   4.414  0.0171 -0.0502 -0.0020
  124CHL1  H12B15395   4.439   4.447   4.309 -1.0962  0.3350 -0.5523
  124CHL1   C1115396   4.350   4.279   4.218 -0.2096 -0.0154  0.4457
  124CHL1  H11A15397   4.370   4.170   4.219  0.1241  0.0312  1.9815
  124CHL1  H11B15398   4.247   4.303   4.254 -1.1969  1.1428 -2.7822
  124CHL1    C915399   4.364   4.346   4.076 -0.2225 -0.2409  0.7850
  124CHL1    H915400   4.342   4.455   4.079 -1.9754 -0.4590 -1.2597
  124CHL1   C1015401   4.259   4.289   3.969 -0.1544  0.0182  0.5748
  124CHL1   C1915402   4.259   4.137   3.941 -0.4238 -0.2961  0.1381
  124CHL1  H19A15403   4.192   4.106   3.858 -1.3005  0.5048  0.5346
  124CHL1  H19B15404   4.358   4.092   3.920 -0.4614 -0.7826  0.9806
  124CHL1  H19C15405   4.218   4.086   4.031  0.5895  3.0773  2.7382
  124CHL1    C115406   4.120   4.331   4.020  0.2474 -0.1737  0.1833
  124CHL1   H1A15407   4.092   4.287   4.118 -0.0350 -1.4230 -0.4365
  124CHL1   H1B15408   4.100   4.441   4.024 -0.5893 -0.1886 -1.9636
  124CHL1    C215409   4.010   4.302   3.911  0.1101  0.0601 -0.1854
  124CHL1   H2A15410   3.908   4.317   3.952  1.1830 -1.2615  3.2822
  124CHL1   H2B15411   3.999   4.192   3.898 -0.8366  0.2320 -0.9868
  124CHL1   C2015412   4.786   4.354   4.450  0.3009 -0.3104  0.6591
  124CHL1   H2015413   4.817   4.248   4.441  1.5278 -0.1881  2.8991
  124CHL1   C2115414   4.681   4.352   4.571  0.2416 -0.5187 -0.1096
  124CHL1  H21A15415   4.592   4.288   4.550  0.4615 -0.3729 -1.5731
  124CHL1  H21B15416   4.647   4.454   4.598  0.9695 -0.5166  0.8739
  124CHL1  H21C15417   4.721   4.301   4.662 -0.4462 -2.3029 -0.7532
  124CHL1   C2215418   4.907   4.436   4.500 -0.8998 -0.2969 -0.0343
  124CHL1  H22A15419   4.983   4.458   4.422 -0.2873 -4.8755 -1.0400
  124CHL1  H22B15420   4.867   4.532   4.539  2.2846  0.4889  1.7111
  124CHL1   C2315421   4.989   4.371   4.614  0.6322  0.4739 -0.4184
  124CHL1  H23A15422   4.927   4.349   4.703  1.3909 -2.7047 -0.5370
  124CHL1  H23B15423   5.037   4.280   4.571  1.5144  0.1772  1.1338
  124CHL1   C2415424   5.100   4.459   4.663  0.2983 -0.1684  0.5474
  124CHL1  H24A15425   5.167   4.493   4.580  0.4306 -2.1504 -0.2119
  124CHL1  H24B15426   5.057   4.550   4.711 -2.0528 -0.9106 -0.0110
  124CHL1   C2515427   5.201   4.389   4.767  0.2509 -0.5684 -0.1762
  124CHL1   H2515428   5.271   4.464   4.810  0.0988 -0.7254  0.3612
  124CHL1   C2615429   5.122   4.321   4.887  0.0177 -0.1223  0.3419
  124CHL1  H26A15430   5.190   4.291   4.969 -0.0975  2.2467  1.3970
  124CHL1  H26B15431   5.046   4.389   4.931 -0.8716 -0.9190  0.0702
  124CHL1  H26C15432   5.062   4.233   4.853 -1.0568  1.7323 -3.0234
  124CHL1   C2715433   5.300   4.292   4.687  0.1579  0.0404  0.3535
  124CHL1  H27A15434   5.252   4.207   4.634 -1.3168  1.5529 -0.8756
  124CHL1  H27B15435   5.361   4.346   4.612 -0.0711  2.1057  1.5542
  124CHL1  H27C15436   5.368   4.246   4.761  0.6486  0.0838 -0.0682
  125CHL1    C315437   5.039   4.434   3.114  0.3296 -0.4639 -0.0366
  125CHL1    H315438   5.098   4.356   3.168  2.2407  0.4612 -0.7010
  125CHL1    O315439   5.004   4.398   2.984  0.0211 -0.9263  0.1802
  125CHL1   H3'15440   5.015   4.475   2.928 -1.4628  0.1655  1.3044
  125CHL1    C415441   4.908   4.456   3.189 -0.1876  0.4621 -0.2962
  125CHL1   H4A15442   4.850   4.533   3.132  1.2959  1.9907  0.1519
  125CHL1   H4B15443   4.861   4.356   3.190  1.2371 -0.3274 -2.4574
  125CHL1    C515444   4.936   4.508   3.328  0.1042 -0.4397 -0.5762
  125CHL1    C615445   4.872   4.448   3.433  0.5204 -0.1560  0.4453
  125CHL1    H615446   4.810   4.360   3.410 -0.8256  0.5224  1.3260
  125CHL1    C715447   4.885   4.494   3.577  0.6527 -0.1525  0.2244
  125CHL1   H7A15448   4.784   4.517   3.617  0.5324  0.3629 -0.3662
  125CHL1   H7B15449   4.915   4.412   3.646 -1.4506 -1.3228 -0.1496
  125CHL1    C815450   4.969   4.622   3.590 -0.6887 -0.0606  0.3621
  125CHL1    H815451   4.899   4.705   3.572 -0.6871 -0.0497  0.4052
  125CHL1   C1415452   5.020   4.638   3.729  0.4016 -0.6090  0.0879
  125CHL1   H1415453   5.098   4.561   3.743  1.5531  0.3683 -0.7707
  125CHL1   C1515454   4.917   4.618   3.839  0.7971  0.2837  0.1024
  125CHL1  H15A15455   4.828   4.673   3.803 -0.2872 -1.7335 -0.4270
  125CHL1  H15B15456   4.897   4.509   3.849  0.7464  0.4279  1.8904
  125CHL1   C1615457   4.973   4.684   3.960  0.8121  0.0243  0.4081
  125CHL1  H16A15458   4.899   4.754   4.003  1.2043  0.3013  0.6359
  125CHL1  H16B15459   4.994   4.605   4.035  0.1200 -0.7341 -0.1835
  125CHL1   C1715460   5.111   4.746   3.916 -0.9398 -0.5066  0.7800
  125CHL1   H1715461   5.185   4.664   3.924  0.2037  0.2340 -1.4350
  125CHL1   C1315462   5.095   4.765   3.760 -0.0272 -0.2737 -0.0468
  125CHL1   C1815463   5.009   4.890   3.745 -0.2977  0.3266 -0.1947
  125CHL1  H18A15464   4.985   4.901   3.637  0.7375 -1.9650 -0.7301
  125CHL1  H18B15465   4.914   4.867   3.797  0.3980 -0.3466  0.8165
  125CHL1  H18C15466   5.054   4.983   3.785  0.3379 -0.2009  0.3250
  125CHL1   C1215467   5.212   4.777   3.665  0.4479 -0.3153  0.0585
  125CHL1  H12A15468   5.266   4.874   3.673  0.1413 -0.1507  0.1726
  125CHL1  H12B15469   5.285   4.694   3.673 -2.1556 -2.9315 -1.3303
  125CHL1   C1115470   5.170   4.759   3.518 -0.2206  0.7128 -0.7704
  125CHL1  H11A15471   5.131   4.854   3.476  1.0268  0.0627 -3.6679
  125CHL1  H11B15472   5.262   4.749   3.456  0.3121 -0.6511  0.1860
  125CHL1    C915473   5.078   4.636   3.491 -0.2508  0.6042  0.2417
  125CHL1    H915474   5.143   4.547   3.507  0.0041  0.6424 -0.5572
  125CHL1   C1015475   5.034   4.625   3.340  0.2415 -0.2293 -0.1443
  125CHL1   C1915476   4.956   4.751   3.294 -0.0059 -0.3784  0.0234
  125CHL1  H19A15477   4.928   4.740   3.188 -0.1569  0.1468  0.0043
  125CHL1  H19B15478   4.857   4.757   3.344  0.3441  0.1981  0.6723
  125CHL1  H19C15479   5.011   4.848   3.295  1.7145 -1.2823 -1.5448
  125CHL1    C115480   5.161   4.606   3.244  0.4867 -0.1745  0.2704
  125CHL1   H1A15481   5.208   4.706   3.230  0.6429 -0.3476 -0.4319
  125CHL1   H1B15482   5.218   4.519   3.283 -2.2049 -2.3787 -0.4504
  125CHL1    C215483   5.123   4.559   3.097  0.0971  0.5321 -0.3438
  125CHL1   H2A15484   5.218   4.536   3.045  0.6180 -2.2196  1.6166
  125CHL1   H2B15485   5.071   4.642   3.044 -0.0080  0.5254 -0.2537
  125CHL1   C2015486   5.176   4.856   4.002 -0.3787 -0.3429  0.0225
  125CHL1   H2015487   5.112   4.943   4.023  0.0686 -0.4947  2.3033
  125CHL1   C2115488   5.308   4.909   3.940 -0.3691  0.1750  0.0164
  125CHL1  H21A15489   5.283   4.982   3.860  1.4853  0.1403 -0.6452
  125CHL1  H21B15490   5.371   4.825   3.901 -0.9526 -0.8944  1.3087
  125CHL1  H21C15491   5.349   4.981   4.013 -1.6485  0.8492  0.0903
  125CHL1   C2215492   5.207   4.778   4.136  0.5420  0.4428  0.3645
  125CHL1  H22A15493   5.117   4.727   4.176 -1.0779  0.9232 -2.3944
  125CHL1  H22B15494   5.287   4.703   4.115 -0.5521 -0.8403  0.6515
  125CHL1   C2315495   5.259   4.864   4.251 -0.1420  0.1143  0.3182
  125CHL1  H23A15496   5.340   4.932   4.216 -0.5204 -0.3051 -1.4657
  125CHL1  H23B15497   5.176   4.932   4.281 -0.5695 -0.5474  0.6579
  125CHL1   C2415498   5.302   4.777   4.374 -0.1624  0.0012 -0.1801
  125CHL1  H24A15499   5.229   4.694   4.384  0.6780 -0.6284  1.0382
  125CHL1  H24B15500   5.401   4.731   4.351 -0.4165 -1.1170  0.8928
  125CHL1   C2515501   5.322   4.857   4.504  0.4238 -0.1169 -0.1967
  125CHL1   H2515502   5.230   4.919   4.515  1.5712  1.8670 -1.2532
  125CHL1   C2615503   5.324   4.779   4.635  0.2666  0.2204 -0.0821
  125CHL1  H26A15504   5.240   4.705   4.633 -0.9810  1.5639  0.6545
  125CHL1  H26B15505   5.420   4.726   4.653  0.7399  0.7056 -1.1213
  125CHL1  H26C15506   5.305   4.852   4.716 -1.3890  1.9955 -1.9675
  125CHL1   C2715507   5.440   4.951   4.502 -0.3436 -0.1128  0.2885
  125CHL1  H27A15508   5.448   5.011   4.596  0.6663  0.3441 -0.0804
  125CHL1  H27B15509   5.537   4.908   4.469 -0.5781 -0.4007 -0.0261
  125CHL1  H27C15510   5.398   5.026   4.432  1.1865 -0.0576 -0.6086
  126CHL1    C315511   4.279   4.779   3.434  0.4000 -0.4784  0.0905
  126CHL1    H315512   4.303   4.670   3.440  0.3001 -0.6677 -2.1190
  126CHL1    O315513   4.218   4.805   3.307  0.0525 -0.0552 -0.0092
  126CHL1   H3'15514   4.146   4.743   3.295 -0.5715  0.8476 -1.0319
  126CHL1    C415515   4.183   4.824   3.552  0.2361  0.4216  0.7805
  126CHL1   H4A15516   4.144   4.926   3.532 -0.4919 -0.1427 -0.8438
  126CHL1   H4B15517   4.103   4.750   3.535 -0.1904  0.7778  1.2051
  126CHL1    C515518   4.233   4.812   3.700  0.6901  0.6337  0.4095
  126CHL1    C615519   4.172   4.738   3.801  0.0169 -0.5463  0.3949
  126CHL1    H615520   4.075   4.690   3.780 -1.0492  1.5128  0.2632
  126CHL1    C715521   4.220   4.719   3.940  0.9564  0.3250 -0.0533
  126CHL1   H7A15522   4.131   4.734   4.005 -0.7121  2.4881 -2.6325
  126CHL1   H7B15523   4.273   4.621   3.946  2.4999  1.1496  0.1920
  126CHL1    C815524   4.332   4.825   3.976 -0.1888  0.4836  0.0089
  126CHL1    H815525   4.276   4.920   3.983 -3.1617 -1.1246 -0.0744
  126CHL1   C1415526   4.408   4.784   4.098 -0.9131 -0.6192  0.2619
  126CHL1   H1415527   4.462   4.690   4.073 -0.7858  0.0948 -2.4404
  126CHL1   C1515528   4.325   4.756   4.225  0.1958  0.0381 -0.1089
  126CHL1  H15A15529   4.236   4.820   4.242  1.5051  1.5030  1.5690
  126CHL1  H15B15530   4.273   4.658   4.218 -1.2596  0.8968 -2.2632
  126CHL1   C1615531   4.427   4.768   4.341  0.2074  0.8146 -0.7051
  126CHL1  H16A15532   4.396   4.846   4.414  0.2106  0.7267 -0.6089
  126CHL1  H16B15533   4.438   4.673   4.397 -1.8223  1.6221  1.1950
  126CHL1   C1715534   4.565   4.806   4.271 -0.1796 -0.0305  0.7644
  126CHL1   H1715535   4.598   4.706   4.236 -0.8623  0.0586 -0.1468
  126CHL1   C1315536   4.515   4.880   4.140 -0.3657  0.7162 -0.1046
  126CHL1   C1815537   4.455   5.016   4.177 -0.0140  0.4969 -0.5108
  126CHL1  H18A15538   4.539   5.088   4.189 -1.4095  2.3951 -1.7056
  126CHL1  H18B15539   4.399   5.062   4.093 -1.5906 -0.5409 -0.0791
  126CHL1  H18C15540   4.399   5.011   4.273 -1.0737  1.8008 -1.0322
  126CHL1   C1215541   4.623   4.896   4.037 -0.8557  0.1827  0.1961
  126CHL1  H12A15542   4.699   4.974   4.059 -1.1597  0.3668  0.5989
  126CHL1  H12B15543   4.675   4.798   4.034 -0.3642  0.4473  0.0685
  126CHL1   C1115544   4.562   4.928   3.899  0.1145 -0.1257  0.2238
  126CHL1  H11A15545   4.537   5.036   3.909  2.1125  0.4929 -0.9351
  126CHL1  H11B15546   4.640   4.922   3.820 -1.6127  2.3676 -1.8394
  126CHL1    C915547   4.434   4.841   3.862 -0.0988 -0.3596  0.2597
  126CHL1    H915548   4.463   4.734   3.851 -1.5988 -0.7798  0.1005
  126CHL1   C1015549   4.374   4.874   3.720  0.0868  0.7709  0.5803
  126CHL1   C1915550   4.356   5.027   3.717  0.0201  0.3476 -0.3024
  126CHL1  H19A15551   4.291   5.056   3.803 -0.7152 -2.0679  0.0373
  126CHL1  H19B15552   4.455   5.073   3.740 -0.8365  2.2845 -0.2842
  126CHL1  H19C15553   4.314   5.065   3.622  2.6084  2.7348 -0.6065
  126CHL1    C115554   4.463   4.826   3.604 -0.1645  0.5188 -0.3829
  126CHL1   H1A15555   4.567   4.863   3.616  0.4381 -1.1766 -0.1308
  126CHL1   H1B15556   4.479   4.718   3.628  0.6868  0.6927 -0.1392
  126CHL1    C215557   4.416   4.851   3.457  0.3708 -1.2684 -0.4065
  126CHL1   H2A15558   4.484   4.821   3.374  1.1334 -1.4727  0.2847
  126CHL1   H2B15559   4.397   4.960   3.448 -0.5036 -1.3112  0.6838
  126CHL1   C2015560   4.671   4.862   4.358  0.5691  0.1840 -0.4325
  126CHL1   H2015561   4.672   4.973   4.354 -0.1848  0.1668 -2.9797
  126CHL1   C2115562   4.814   4.830   4.302 -0.2317  0.3498 -0.2698
  126CHL1  H21A15563   4.814   4.826   4.191  0.2018 -1.9281 -0.2383
  126CHL1  H21B15564   4.859   4.736   4.340  1.7326  0.6871 -1.5963
  126CHL1  H21C15565   4.881   4.915   4.327  0.2707  0.1154 -0.7987
  126CHL1   C2215566   4.668   4.820   4.511  0.1697 -0.3675  0.3912
  126CHL1  H22A15567   4.577   4.856   4.563  0.5525 -2.6712  2.8554
  126CHL1  H22B15568   4.674   4.709   4.505 -1.6198 -0.4189 -3.3883
  126CHL1   C2315569   4.792   4.866   4.583 -0.4341  0.2605 -0.0619
  126CHL1  H23A15570   4.887   4.830   4.538  0.3653 -0.3261  1.9937
  126CHL1  H23B15571   4.799   4.977   4.576  2.0133  0.2675  1.3435
  126CHL1   C2415572   4.781   4.819   4.729  0.1628  0.4167  0.8482
  126CHL1  H24A15573   4.689   4.865   4.771 -0.1804  0.4936  0.0229
  126CHL1  H24B15574   4.777   4.708   4.734  2.5799  0.2698  0.4807
  126CHL1   C2515575   4.902   4.850   4.820  0.1308  0.4090  0.3746
  126CHL1   H2515576   4.988   4.785   4.795 -0.0133 -0.0659  1.0773
  126CHL1   C2615577   4.955   4.996   4.808 -0.9436 -0.1757  0.0402
  126CHL1  H26A15578   4.983   5.020   4.703  1.1483  0.8519  0.7912
  126CHL1  H26B15579   4.880   5.073   4.838 -0.4457  0.6751 -0.8413
  126CHL1  H26C15580   5.048   5.007   4.867 -0.5438 -0.3240 -0.5562
  126CHL1   C2715581   4.864   4.815   4.964 -0.0380 -0.8303 -0.2636
  126CHL1  H27A15582   4.850   4.705   4.975  2.1482 -1.1747 -0.5436
  126CHL1  H27B15583   4.942   4.851   5.035  1.0586  1.5599 -2.5207
  126CHL1  H27C15584   4.767   4.855   5.001 -0.0796 -2.5660  1.7006
  127CHL1    C315585   4.595   5.503   3.131 -0.8640 -0.7209  0.2624
  127CHL1    H315586   4.672   5.429   3.161 -1.6163 -1.4221  0.5152
  127CHL1    O315587   4.603   5.515   2.991  0.4110  0.1231 -0.1388
  127CHL1   H3'15588   4.557   5.596   2.968  1.1395  0.7047  0.4308
  127CHL1    C415589   4.454   5.455   3.181 -0.2474  0.4228  0.0724
  127CHL1   H4A15590   4.375   5.511   3.125 -0.5041 -0.2243 -0.2192
  127CHL1   H4B15591   4.450   5.352   3.140  1.5813  1.3298 -2.6033
  127CHL1    C515592   4.443   5.470   3.334 -0.1865  0.7213 -0.0898
  127CHL1    C615593   4.411   5.352   3.407 -0.0013 -0.4231 -0.1617
  127CHL1    H615594   4.382   5.261   3.352 -0.5715  1.5757 -3.4001
  127CHL1    C715595   4.412   5.350   3.556 -0.4689  1.0049  0.1604
  127CHL1   H7A15596   4.330   5.290   3.601  0.2786  0.8442  1.3132
  127CHL1   H7B15597   4.501   5.303   3.601 -1.5758 -0.0990  1.2753
  127CHL1    C815598   4.409   5.490   3.618  0.2810  0.6002 -0.1043
  127CHL1    H815599   4.306   5.523   3.592 -0.8272 -1.8423  0.8970
  127CHL1   C1415600   4.419   5.478   3.767 -0.0892 -0.9114  0.1841
  127CHL1   H1415601   4.525   5.450   3.785  0.1964  1.3142  2.5020
  127CHL1   C1515602   4.331   5.378   3.854  0.0561  0.2424 -0.1638
  127CHL1  H15A15603   4.224   5.369   3.827  0.0510  1.0367 -0.4149
  127CHL1  H15B15604   4.372   5.275   3.855  0.4673  0.4005  1.2776
  127CHL1   C1615605   4.343   5.434   4.000 -0.4810 -0.3642  0.0613
  127CHL1  H16A15606   4.241   5.438   4.044 -0.5191 -0.1945 -0.0412
  127CHL1  H16B15607   4.407   5.365   4.058 -0.1294  0.3888  0.5906
  127CHL1   C1715608   4.409   5.572   3.987  0.2714  0.5294 -0.4688
  127CHL1   H1715609   4.518   5.561   4.002  0.1569 -0.6943 -0.3792
  127CHL1   C1315610   4.401   5.609   3.839 -0.3548  0.0113 -0.4080
  127CHL1   C1815611   4.271   5.689   3.810  1.0593 -0.7972  0.4051
  127CHL1  H18A15612   4.177   5.641   3.846  0.3478  0.0582 -0.2466
  127CHL1  H18B15613   4.274   5.794   3.846 -0.1979 -0.3788 -0.6105
  127CHL1  H18C15614   4.258   5.717   3.703  0.8358  0.3472  0.7092
  127CHL1   C1215615   4.526   5.695   3.791  0.1005  0.2122  0.7196
  127CHL1  H12A15616   4.528   5.792   3.844  0.2929 -0.2396  1.5714
  127CHL1  H12B15617   4.619   5.634   3.798 -0.2871 -0.6109 -0.8112
  127CHL1   C1115618   4.517   5.722   3.645  0.0064  0.1041  0.0939
  127CHL1  H11A15619   4.431   5.791   3.638 -2.1272 -2.4838 -0.9336
  127CHL1  H11B15620   4.613   5.766   3.610  2.3530 -0.8007  4.6220
  127CHL1    C915621   4.509   5.594   3.559  0.7005  0.1182 -0.5458
  127CHL1    H915622   4.605   5.545   3.588 -0.1419 -0.8195  0.7958
  127CHL1   C1015623   4.498   5.596   3.404  0.0412 -0.6262 -0.5279
  127CHL1   C1915624   4.395   5.712   3.368  0.5509  0.8649  0.3827
  127CHL1  H19A15625   4.297   5.683   3.411  1.7407 -0.0281  2.6422
  127CHL1  H19B15626   4.429   5.811   3.406  0.1905  1.7415 -1.4507
  127CHL1  H19C15627   4.378   5.724   3.258 -1.5303 -0.1352  0.5365
  127CHL1    C115628   4.635   5.622   3.348 -0.2522  0.3419  0.6838
  127CHL1   H1A15629   4.674   5.716   3.393  0.1419  1.8904 -2.5793
  127CHL1   H1B15630   4.707   5.543   3.380  2.8702  2.6898 -0.0296
  127CHL1    C215631   4.642   5.636   3.196 -0.6208 -0.2167  0.1300
  127CHL1   H2A15632   4.745   5.661   3.161 -0.6591  1.5093  1.1755
  127CHL1   H2B15633   4.577   5.717   3.158 -2.3300 -1.2524  0.7637
  127CHL1   C2015634   4.345   5.663   4.093 -0.0943 -0.2620  0.0239
  127CHL1   H2015635   4.236   5.664   4.070 -0.3733  2.4215  1.1680
  127CHL1   C2115636   4.401   5.806   4.086  0.4726  0.4955 -0.2146
  127CHL1  H21A15637   4.399   5.839   3.980  1.4559  0.7001 -0.1768
  127CHL1  H21B15638   4.507   5.812   4.117  1.1861  0.1974 -2.3775
  127CHL1  H21C15639   4.342   5.877   4.147  1.7595  1.5029 -0.1140
  127CHL1   C2215640   4.355   5.611   4.235  0.4954  0.2438  0.0545
  127CHL1  H22A15641   4.312   5.509   4.235  0.1990  0.3687  0.3508
  127CHL1  H22B15642   4.460   5.593   4.267  0.1118  0.4744  1.4901
  127CHL1   C2315643   4.285   5.697   4.345  0.0893  0.3654  0.3247
  127CHL1  H23A15644   4.349   5.788   4.349 -0.7038  0.9016  0.9624
  127CHL1  H23B15645   4.186   5.734   4.312  0.4683  3.0728  1.9393
  127CHL1   C2415646   4.280   5.615   4.473 -0.0303  0.1588 -0.0190
  127CHL1  H24A15647   4.239   5.516   4.444  0.9057 -0.0790 -0.5662
  127CHL1  H24B15648   4.383   5.592   4.507  0.1205  1.9927  0.8935
  127CHL1   C2515649   4.195   5.689   4.583  0.5857 -0.6494  0.4632
  127CHL1   H2515650   4.179   5.615   4.664 -0.4187 -0.0865  0.7981
  127CHL1   C2615651   4.284   5.805   4.636 -0.4483  0.6958  0.1570
  127CHL1  H26A15652   4.237   5.833   4.733  0.8546  1.1325  0.6768
  127CHL1  H26B15653   4.387   5.767   4.651 -0.9768 -0.2139  1.7297
  127CHL1  H26C15654   4.281   5.882   4.557 -0.1604  2.2820  1.6404
  127CHL1   C2715655   4.057   5.735   4.531 -0.5942  0.0319  0.0511
  127CHL1  H27A15656   4.005   5.778   4.619 -1.5890  0.0437 -0.5360
  127CHL1  H27B15657   4.069   5.812   4.452  1.4186  0.4890  0.7370
  127CHL1  H27C15658   3.999   5.648   4.494 -1.4780 -0.6427  2.7604
  128CHL1    C315659   1.584   0.390   3.957 -0.2401  0.4311 -0.2332
  128CHL1    H315660   1.520   0.330   4.026  1.1089  0.4472  1.0787
  128CHL1    O315661   1.612   0.310   3.837 -0.1184 -0.0828  0.0024
  128CHL1   H3'15662   1.643   0.376   3.775  3.2629 -0.1435  1.3873
  128CHL1    C415663   1.513   0.524   3.929 -0.1681  0.1066  0.6058
  128CHL1   H4A15664   1.569   0.582   3.853 -1.9350 -0.3406 -1.1221
  128CHL1   H4B15665   1.414   0.499   3.886  1.0570 -1.7489 -1.3324
  128CHL1    C515666   1.491   0.605   4.060 -0.2368 -0.4491  0.1568
  128CHL1    C615667   1.370   0.644   4.102 -0.2268  0.4177  0.3179
  128CHL1    H615668   1.280   0.620   4.043 -1.4063  1.9662  1.4145
  128CHL1    C715669   1.353   0.741   4.224 -0.9931 -0.6341 -0.3831
  128CHL1   H7A15670   1.294   0.828   4.190 -0.5895 -0.8113 -1.5738
  128CHL1   H7B15671   1.308   0.698   4.317 -1.3311  0.6225  0.0574
  128CHL1    C815672   1.489   0.795   4.287  0.0935  0.1848 -0.4644
  128CHL1    H815673   1.520   0.881   4.224 -1.1362  1.0689  0.1077
  128CHL1   C1415674   1.463   0.843   4.432  0.7579  0.2926  0.4192
  128CHL1   H1415675   1.420   0.761   4.493  0.3522  0.6329  0.5975
  128CHL1   C1515676   1.368   0.962   4.453 -0.3836  0.0458  0.4527
  128CHL1  H15A15677   1.399   1.038   4.378  1.3326 -1.9655 -0.9951
  128CHL1  H15B15678   1.260   0.940   4.442 -1.6129  4.8641  0.7914
  128CHL1   C1615679   1.396   1.012   4.591 -0.0142 -0.3562  0.7101
  128CHL1  H16A15680   1.437   1.115   4.584  0.8266 -0.4517  3.0594
  128CHL1  H16B15681   1.306   1.001   4.655 -0.1549 -0.9277  0.4180
  128CHL1   C1715682   1.521   0.929   4.643  0.6437 -0.6190  0.0905
  128CHL1   H1715683   1.472   0.841   4.691 -2.4908  1.7005  1.5163
  128CHL1   C1315684   1.586   0.885   4.509 -0.0869 -0.6580 -0.1544
  128CHL1   C1815685   1.658   1.004   4.447  0.6728 -0.7577  0.2066
  128CHL1  H18A15686   1.591   1.092   4.444 -0.6754 -1.7601 -0.1821
  128CHL1  H18B15687   1.753   1.025   4.501  0.1709 -0.3837  0.9568
  128CHL1  H18C15688   1.679   0.980   4.341 -2.3312 -1.8918 -0.2250
  128CHL1   C1215689   1.687   0.769   4.516  0.0409 -0.4455 -0.0229
  128CHL1  H12A15690   1.779   0.816   4.556 -1.0420  0.8488  1.0565
  128CHL1  H12B15691   1.640   0.687   4.573  2.7740 -1.0224  1.5250
  128CHL1   C1115692   1.722   0.706   4.378 -0.6997  0.2775  0.3278
  128CHL1  H11A15693   1.790   0.784   4.338 -2.0044  1.3377  0.1085
  128CHL1  H11B15694   1.762   0.603   4.390 -3.0800 -0.7485 -0.0089
  128CHL1    C915695   1.594   0.687   4.286 -0.3659  0.3011 -0.1170
  128CHL1    H915696   1.548   0.608   4.350  1.6714  1.0397  2.4193
  128CHL1   C1015697   1.627   0.634   4.142 -0.5309 -0.4061  1.0421
  128CHL1   C1915698   1.707   0.741   4.062 -0.3986  0.9098 -0.3478
  128CHL1  H19A15699   1.803   0.760   4.113 -1.8671  1.1865  2.5315
  128CHL1  H19B15700   1.725   0.706   3.958 -3.5606 -2.0797 -0.0954
  128CHL1  H19C15701   1.648   0.836   4.060 -1.5371  0.2155 -0.7574
  128CHL1    C115702   1.719   0.507   4.147  0.0312  0.5913  0.1795
  128CHL1   H1A15703   1.820   0.531   4.185 -0.3484 -0.3890  1.9278
  128CHL1   H1B15704   1.677   0.443   4.228  1.3458 -0.7249 -0.1396
  128CHL1    C215705   1.729   0.421   4.028  0.3051  0.7486  0.4231
  128CHL1   H2A15706   1.782   0.330   4.062 -0.3402 -0.6807 -2.1389
  128CHL1   H2B15707   1.791   0.480   3.956 -1.1964  2.0730  0.1511
  128CHL1   C2015708   1.606   0.992   4.754  0.2214 -0.7020 -0.0705
  128CHL1   H2015709   1.668   1.076   4.714 -0.2350  0.1423  0.9548
  128CHL1   C2115710   1.695   0.891   4.826  0.1030 -0.1213  0.7693
  128CHL1  H21A15711   1.636   0.798   4.837  0.5535 -0.4971  0.0636
  128CHL1  H21B15712   1.725   0.914   4.930 -0.7084 -0.4186  1.0755
  128CHL1  H21C15713   1.789   0.879   4.768 -1.2535  0.3052 -1.6618
  128CHL1   C2215714   1.507   1.063   4.859 -0.3168  0.0457  0.3698
  128CHL1  H22A15715   1.589   1.099   4.926  0.9944 -2.1333  0.0412
  128CHL1  H22B15716   1.455   1.147   4.809  0.0426 -1.1533 -2.1596
  128CHL1   C2315717   1.400   0.975   4.925  0.4491 -0.8544 -0.2935
  128CHL1  H23A15718   1.324   0.946   4.850  1.0053  1.1344 -1.6984
  128CHL1  H23B15719   1.446   0.886   4.972 -1.2036 -0.6418  1.9085
  128CHL1   C2415720   1.329   1.046   5.042  0.1010  0.5601  0.2920
  128CHL1  H24A15721   1.411   1.074   5.112  2.1006 -0.2300 -1.6375
  128CHL1  H24B15722   1.276   1.133   4.997  0.7934  1.6806  1.5531
  128CHL1   C2515723   1.232   0.954   5.117 -0.0872  0.8931 -0.0592
  128CHL1   H2515724   1.160   0.913   5.042 -1.0437  0.8492  0.8610
  128CHL1   C2615725   1.290   0.830   5.179  0.4624  0.2778  0.0790
  128CHL1  H26A15726   1.380   0.847   5.242  0.1865  1.1906  0.2363
  128CHL1  H26B15727   1.212   0.774   5.235  0.8555  1.1683  1.5633
  128CHL1  H26C15728   1.321   0.765   5.094 -0.1772  1.9182 -1.4856
  128CHL1   C2715729   1.158   1.025   5.228  0.7693 -0.1280 -0.4626
  128CHL1  H27A15730   1.086   0.950   5.268  0.4604  0.2148 -0.3772
  128CHL1  H27B15731   1.224   1.057   5.312  1.2647 -0.8293 -0.5788
  128CHL1  H27C15732   1.112   1.124   5.207 -1.2872 -0.7353  0.9045
  129CHL1    C315733   6.289   6.356   3.544 -0.0839 -0.1065  0.2089
  129CHL1    H315734   6.199   6.306   3.586 -1.1176  1.7464  0.3234
  129CHL1    O315735   6.254   6.399   3.413 -0.1060 -0.2675 -0.1513
  129CHL1   H3'15736   6.334   6.434   3.374 -0.5326 -0.3599 -1.1491
  129CHL1    C415737   6.345   6.476   3.626 -0.0835 -0.6209 -0.1426
  129CHL1   H4A15738   6.420   6.521   3.557  0.7771 -1.8269 -0.0257
  129CHL1   H4B15739   6.263   6.549   3.642  0.8480  0.1888  1.1026
  129CHL1    C515740   6.408   6.436   3.759  0.0264 -0.9479 -0.7060
  129CHL1    C615741   6.373   6.504   3.874  0.3912  0.2760  0.4683
  129CHL1    H615742   6.307   6.591   3.868  0.1675  0.0306 -1.4041
  129CHL1    C715743   6.422   6.466   4.015  0.8110  0.3880  0.2304
  129CHL1   H7A15744   6.459   6.557   4.067  1.4613 -0.0754  0.5894
  129CHL1   H7B15745   6.338   6.427   4.076  1.9249  0.9360  2.2011
  129CHL1    C815746   6.539   6.362   4.003  0.7085  0.6900 -0.7792
  129CHL1    H815747   6.629   6.421   3.977  0.7425  1.8249  1.6247
  129CHL1   C1415748   6.584   6.302   4.142 -0.1040 -1.0017 -0.6753
  129CHL1   H1415749   6.489   6.254   4.173 -0.5149  0.4115  0.3420
  129CHL1   C1515750   6.629   6.410   4.242  0.8591  0.2281  0.5440
  129CHL1  H15A15751   6.708   6.474   4.197  1.4908 -0.4495  0.6602
  129CHL1  H15B15752   6.537   6.468   4.265  1.4322  0.8825  1.2078
  129CHL1   C1615753   6.696   6.322   4.355  0.3165 -0.0478 -0.0181
  129CHL1  H16A15754   6.797   6.366   4.370 -1.3168  4.3395 -0.4353
  129CHL1  H16B15755   6.637   6.338   4.448  2.3144  0.9595  1.1323
  129CHL1   C1715756   6.699   6.179   4.306  0.2402 -0.1944 -0.6541
  129CHL1   H1715757   6.606   6.128   4.336  0.6332 -1.3000 -1.2370
  129CHL1   C1315758   6.690   6.194   4.152 -0.4640 -0.0802 -0.3278
  129CHL1   C1815759   6.828   6.248   4.103  0.6131  0.3095 -0.0030
  129CHL1  H18A15760   6.876   6.316   4.177  0.1253  1.4946 -0.7359
  129CHL1  H18B15761   6.890   6.160   4.078 -1.4115 -0.6910 -1.7867
  129CHL1  H18C15762   6.820   6.313   4.012  0.6088 -0.1473 -0.3312
  129CHL1   C1215763   6.645   6.078   4.058 -0.1250 -0.2633  0.0493
  129CHL1  H12A15764   6.718   5.996   4.040  0.2107  0.3823 -1.7497
  129CHL1  H12B15765   6.556   6.032   4.106  1.0315 -1.1107  1.4859
  129CHL1   C1115766   6.606   6.130   3.912 -0.5375  0.4145 -0.6633
  129CHL1  H11A15767   6.708   6.151   3.871  0.3118  1.1649  1.6904
  129CHL1  H11B15768   6.560   6.043   3.860 -0.8162 -0.5012  1.0382
  129CHL1    C915769   6.513   6.256   3.898 -0.7225  0.6029 -0.2743
  129CHL1    H915770   6.411   6.219   3.923  0.5956 -2.6229  0.7679
  129CHL1   C1015771   6.499   6.313   3.755  0.7143 -0.9150  0.6417
  129CHL1   C1915772   6.638   6.352   3.698  0.2065 -0.0574  0.1326
  129CHL1  H19A15773   6.688   6.262   3.656 -0.0916  1.3559 -3.5694
  129CHL1  H19B15774   6.635   6.431   3.621 -0.5643  0.1414  0.3601
  129CHL1  H19C15775   6.701   6.399   3.777 -0.2614 -0.0744  0.5192
  129CHL1    C115776   6.443   6.201   3.664 -0.6470  0.2709 -0.0027
  129CHL1   H1A15777   6.516   6.118   3.652  1.8535  2.0846  1.6423
  129CHL1   H1B15778   6.359   6.155   3.721 -1.3641 -0.0960 -1.3295
  129CHL1    C215779   6.398   6.246   3.527  0.2216 -0.1229 -0.7783
  129CHL1   H2A15780   6.347   6.165   3.470 -0.8726 -0.8015  1.0857
  129CHL1   H2B15781   6.479   6.279   3.459  1.4254 -1.2545  0.0423
  129CHL1   C2015782   6.821   6.109   4.366 -0.0262 -0.4599 -0.4518
  129CHL1   H2015783   6.916   6.134   4.315 -0.7586 -0.6627 -1.9709
  129CHL1   C2115784   6.793   5.960   4.354 -0.3287  0.0488  0.4010
  129CHL1  H21A15785   6.784   5.921   4.250  2.7068  0.1468  0.0389
  129CHL1  H21B15786   6.697   5.929   4.401 -0.1010 -1.4357 -0.0543
  129CHL1  H21C15787   6.876   5.903   4.402  0.7495 -0.1053 -1.5469
  129CHL1   C2215788   6.851   6.157   4.514  0.7453 -0.1296  0.5714
  129CHL1  H22A15789   6.851   6.267   4.531  1.8973 -0.2387  1.3682
  129CHL1  H22B15790   6.765   6.119   4.573  0.0443 -0.3647 -0.5614
  129CHL1   C2315791   6.969   6.095   4.580 -0.0889  0.2680 -0.0473
  129CHL1  H23A15792   6.946   5.987   4.585  1.4965 -0.0302  3.1063
  129CHL1  H23B15793   7.067   6.117   4.533  1.5217  0.7056  3.2294
  129CHL1   C2415794   6.985   6.137   4.726  0.4136 -0.6648 -1.0566
  129CHL1  H24A15795   7.000   6.247   4.728 -0.8040 -0.4848 -0.7323
  129CHL1  H24B15796   6.888   6.113   4.774  0.4629 -2.5300 -1.7949
  129CHL1   C2515797   7.093   6.075   4.809  0.1299  0.4363  0.2217
  129CHL1   H2515798   7.176   6.063   4.736  0.4084  1.7594  0.2937
  129CHL1   C2615799   7.121   6.169   4.927  0.1506  0.3111  0.0982
  129CHL1  H26A15800   7.024   6.189   4.978  0.6406  0.8001  0.8619
  129CHL1  H26B15801   7.186   6.129   5.008  0.4964  0.0378 -0.3067
  129CHL1  H26C15802   7.176   6.259   4.892 -2.2797  1.1501 -1.8896
  129CHL1   C2715803   7.057   5.938   4.856 -0.4876  0.3118  0.4783
  129CHL1  H27A15804   7.045   5.876   4.765 -1.9511 -1.1090  1.5784
  129CHL1  H27B15805   7.149   5.918   4.915  0.0354  0.4756 -0.2734
  129CHL1  H27C15806   6.963   5.953   4.913 -1.8037  2.6614 -2.0964
  130CHL1    C315807   4.218   6.068   3.692  0.3525  0.2332 -0.0959
  130CHL1    H315808   4.294   6.012   3.750 -1.1483 -1.3243  0.4473
  130CHL1    O315809   4.193   6.005   3.565  0.3853  0.0397  0.4197
  130CHL1   H3'15810   4.151   5.920   3.576 -0.4317  0.2397 -0.8929
  130CHL1    C415811   4.089   6.048   3.778  0.2466 -0.0704  0.0458
  130CHL1   H4A15812   4.010   6.100   3.718  1.0598  1.2043  0.0340
  130CHL1   H4B15813   4.060   5.941   3.786  2.7413 -0.7459  0.9229
  130CHL1    C515814   4.115   6.110   3.916 -0.0332  0.2352  0.1578
  130CHL1    C615815   4.114   6.034   4.026  0.0706  0.5136 -1.1734
  130CHL1    H615816   4.105   5.926   4.004  1.2921  0.7547 -3.1270
  130CHL1    C715817   4.135   6.087   4.168 -0.7067  0.8743  0.5575
  130CHL1   H7A15818   4.069   6.036   4.242 -0.0062 -0.0859  0.5289
  130CHL1   H7B15819   4.235   6.053   4.202  0.1738  3.0977  0.3856
  130CHL1    C815820   4.120   6.237   4.176 -0.2932  0.0195 -0.0327
  130CHL1    H815821   4.014   6.267   4.171  0.0408  1.0218 -1.5169
  130CHL1   C1415822   4.185   6.292   4.300 -0.2333 -0.4908 -0.2183
  130CHL1   H1415823   4.295   6.283   4.290  0.1119  1.5354  1.1321
  130CHL1   C1515824   4.145   6.213   4.430 -0.1242 -0.2247 -0.7661
  130CHL1  H15A15825   4.035   6.202   4.427 -0.3060  1.0096  0.3717
  130CHL1  H15B15826   4.206   6.120   4.430 -1.7014 -1.2917 -1.0068
  130CHL1   C1615827   4.183   6.316   4.546  0.7769  0.1312 -0.3248
  130CHL1  H16A15828   4.090   6.326   4.605 -0.1187 -1.1174 -1.4533
  130CHL1  H16B15829   4.269   6.265   4.596  0.7913 -3.4880 -3.5155
  130CHL1   C1715830   4.222   6.443   4.473  0.1477  0.5268 -0.0734
  130CHL1   H1715831   4.332   6.435   4.464  0.2368  0.2799  1.1166
  130CHL1   C1315832   4.164   6.442   4.331  0.0898  0.3541 -0.1076
  130CHL1   C1815833   4.015   6.482   4.333  0.3773 -0.2384  0.1405
  130CHL1  H18A15834   3.949   6.421   4.398 -0.4399  3.0473  2.6118
  130CHL1  H18B15835   3.993   6.583   4.372  1.4345  0.1110 -0.1325
  130CHL1  H18C15836   3.961   6.471   4.236 -0.1422 -0.6758  0.4745
  130CHL1   C1215837   4.236   6.519   4.218 -0.4711  0.2125 -0.3731
  130CHL1  H12A15838   4.222   6.629   4.232  0.8239  0.2594  0.7853
  130CHL1  H12B15839   4.344   6.500   4.238 -0.6530 -0.3769  0.0864
  130CHL1   C1115840   4.191   6.459   4.080  0.5670  0.1085 -0.3576
  130CHL1  H11A15841   4.095   6.505   4.049  0.9521  1.5216  0.4328
  130CHL1  H11B15842   4.273   6.488   4.011  1.6096 -0.7022  0.5178
  130CHL1    C915843   4.197   6.299   4.063  0.3770  0.0959 -0.1523
  130CHL1    H915844   4.303   6.268   4.073  0.2212  0.0035  1.4780
  130CHL1   C1015845   4.154   6.257   3.918 -0.0762 -0.3021 -0.2468
  130CHL1   C1915846   4.034   6.342   3.864  0.3076 -0.7850  0.3152
  130CHL1  H19A15847   3.949   6.344   3.936  0.5278 -0.0662  0.5596
  130CHL1  H19B15848   4.069   6.443   3.835 -1.6746 -0.3315 -0.7386
  130CHL1  H19C15849   3.992   6.299   3.770  0.2548 -0.1972  0.0648
  130CHL1    C115850   4.270   6.283   3.822  0.0795 -0.2210 -0.3893
  130CHL1   H1A15851   4.292   6.390   3.798  3.9066 -0.6837  0.3911
  130CHL1   H1B15852   4.361   6.241   3.870 -0.2585 -1.5350 -0.8814
  130CHL1    C215853   4.261   6.216   3.680  0.0062 -0.2703  0.2325
  130CHL1   H2A15854   4.356   6.216   3.622 -0.6815 -0.8254 -0.9273
  130CHL1   H2B15855   4.190   6.280   3.623 -1.7369 -0.7567  1.7430
  130CHL1   C2015856   4.201   6.569   4.560  0.9012  0.2614 -0.3026
  130CHL1   H2015857   4.095   6.581   4.592  1.4929  2.1890  1.1310
  130CHL1   C2115858   4.249   6.701   4.498  0.0501 -0.0315  0.2385
  130CHL1  H21A15859   4.199   6.716   4.400  0.3299 -0.1994  0.0718
  130CHL1  H21B15860   4.359   6.704   4.484  0.0454 -0.8468 -0.0393
  130CHL1  H21C15861   4.223   6.792   4.556  2.2817 -1.0888  3.1467
  130CHL1   C2215862   4.279   6.553   4.692  0.6195  0.1394  0.0311
  130CHL1  H22A15863   4.258   6.460   4.749  1.2405  0.5600  0.9892
  130CHL1  H22B15864   4.390   6.547   4.681  0.3723 -0.2864 -3.1691
  130CHL1   C2315865   4.239   6.666   4.796  0.1565  0.8373  0.1792
  130CHL1  H23A15866   4.262   6.768   4.760  1.0204  0.7270  0.3833
  130CHL1  H23B15867   4.130   6.665   4.813  0.0272 -3.1590  0.2111
  130CHL1   C2415868   4.299   6.646   4.938  0.0014 -0.4272 -0.2799
  130CHL1  H24A15869   4.264   6.738   4.989 -0.7497 -0.8001 -0.1019
  130CHL1  H24B15870   4.246   6.561   4.986 -0.3418  0.3027  0.6526
  130CHL1   C2515871   4.451   6.639   4.934 -0.3698  0.5886  0.3362
  130CHL1   H2515872   4.480   6.560   4.861  0.9301  0.4633  0.9721
  130CHL1   C2615873   4.524   6.767   4.901  0.2580  0.1959 -0.0956
  130CHL1  H26A15874   4.632   6.745   4.910  0.2022  0.4655  1.6545
  130CHL1  H26B15875   4.502   6.805   4.799  0.8255 -0.8556 -0.6198
  130CHL1  H26C15876   4.494   6.847   4.972  0.8114  2.0040 -1.8049
  130CHL1   C2715877   4.502   6.581   5.068 -0.2599 -0.1628 -0.3425
  130CHL1  H27A15878   4.492   6.656   5.149  0.1763  0.9523 -1.2860
  130CHL1  H27B15879   4.437   6.495   5.091  2.0804 -1.4723  1.8078
  130CHL1  H27C15880   4.605   6.538   5.070 -0.3586 -0.6660 -2.6087
  131CHL1    C315881   1.105   4.266   3.567 -0.0674  0.3194 -0.5016
  131CHL1    H315882   1.005   4.222   3.545 -0.1393  1.0582 -1.7619
  131CHL1    O315883   1.193   4.228   3.465 -0.5354  0.3870  0.2394
  131CHL1   H3'15884   1.133   4.224   3.390  0.6472 -0.9426 -0.6762
  131CHL1    C415885   1.095   4.419   3.572  0.4958 -0.0633 -0.0618
  131CHL1   H4A15886   1.193   4.471   3.572  0.3044  0.3052 -0.5240
  131CHL1   H4B15887   1.049   4.449   3.475  1.6447  1.2260 -0.2307
  131CHL1    C515888   1.015   4.474   3.695  0.2367  0.8555 -0.3514
  131CHL1    C615889   0.909   4.553   3.680 -0.4718 -0.6898  0.1058
  131CHL1    H615890   0.879   4.596   3.584 -1.1874  1.0378  1.0652
  131CHL1    C715891   0.836   4.615   3.800 -0.0685 -0.8644 -0.2542
  131CHL1   H7A15892   0.830   4.724   3.780 -0.2496 -1.2901 -2.7890
  131CHL1   H7B15893   0.732   4.578   3.788 -0.3086 -0.2999  0.0609
  131CHL1    C815894   0.911   4.599   3.931 -0.4939 -0.3554  0.2989
  131CHL1    H815895   0.992   4.676   3.930 -0.0996 -0.7460  1.1896
  131CHL1   C1415896   0.822   4.619   4.054 -0.2581  0.4583 -0.7442
  131CHL1   H1415897   0.749   4.537   4.040 -0.5956  0.8148 -1.1007
  131CHL1   C1515898   0.737   4.748   4.051 -0.6156 -0.3011 -0.6885
  131CHL1  H15A15899   0.808   4.833   4.045  0.6686 -1.2290  0.7787
  131CHL1  H15B15900   0.660   4.746   3.970 -0.4966  1.3439 -0.8776
  131CHL1   C1615901   0.674   4.747   4.193 -0.3212 -0.2313  0.7389
  131CHL1  H16A15902   0.686   4.851   4.231  1.4339  0.0692 -0.5198
  131CHL1  H16B15903   0.569   4.714   4.208 -0.1923 -0.1876  1.8694
  131CHL1   C1715904   0.753   4.636   4.270  0.2978  0.1140 -0.8324
  131CHL1   H1715905   0.693   4.543   4.264 -0.1728  0.2728  0.8521
  131CHL1   C1315906   0.880   4.602   4.191  0.4800  0.0945 -0.8745
  131CHL1   C1815907   0.987   4.709   4.232  0.4847  0.1704 -0.5812
  131CHL1  H18A15908   1.073   4.694   4.163  0.8177  1.0524 -0.3751
  131CHL1  H18B15909   0.941   4.809   4.221 -0.3538 -0.3454 -2.0330
  131CHL1  H18C15910   1.022   4.687   4.335 -1.2517  0.2392  0.0566
  131CHL1   C1215911   0.932   4.463   4.209  0.5078 -0.5151  0.4045
  131CHL1  H12A15912   0.989   4.469   4.305  0.7744  1.0548  0.1687
  131CHL1  H12B15913   0.848   4.392   4.222 -0.8381  1.1543  1.1813
  131CHL1   C1115914   1.027   4.428   4.095 -0.2227  0.0348  0.2450
  131CHL1  H11A15915   1.111   4.499   4.112 -2.1501  2.0157  2.0381
  131CHL1  H11B15916   1.068   4.325   4.100  0.3955  0.2399 -0.3979
  131CHL1    C915917   0.967   4.453   3.949 -0.3000 -0.0479 -0.6328
  131CHL1    H915918   0.881   4.386   3.925  0.8084 -1.0686 -1.9474
  131CHL1   C1015919   1.069   4.415   3.833 -0.0374  0.0712 -0.3254
  131CHL1   C1915920   1.216   4.461   3.874  0.2440  0.1402 -0.5977
  131CHL1  H19A15921   1.248   4.403   3.963  0.9974 -0.1621 -1.0553
  131CHL1  H19B15922   1.299   4.433   3.806  0.7551  1.1284 -0.3906
  131CHL1  H19C15923   1.216   4.572   3.883 -3.0545  0.0870  2.2854
  131CHL1    C115924   1.069   4.254   3.815  0.4188 -0.8159 -0.3756
  131CHL1   H1A15925   1.106   4.205   3.907  0.3489 -2.5300 -1.2141
  131CHL1   H1B15926   0.965   4.218   3.802 -0.1728  0.9409 -0.7651
  131CHL1    C215927   1.160   4.213   3.700 -0.0897  0.9740 -0.1751
  131CHL1   H2A15928   1.159   4.102   3.691  1.0982  0.7553  1.8073
  131CHL1   H2B15929   1.265   4.247   3.714 -0.1801  0.8087  0.9592
  131CHL1   C2015930   0.758   4.669   4.427  0.3030 -0.8647 -0.2301
  131CHL1   H2015931   0.830   4.754   4.431  0.8137 -0.9045 -4.1683
  131CHL1   C2115932   0.827   4.559   4.506 -0.7083 -0.1690  0.2166
  131CHL1  H21A15933   0.780   4.461   4.484 -4.5772  1.4110  0.6940
  131CHL1  H21B15934   0.827   4.583   4.615  0.2596 -1.3484  0.4970
  131CHL1  H21C15935   0.935   4.552   4.480 -0.7340  1.7060 -0.6160
  131CHL1   C2215936   0.621   4.716   4.489  0.2804  0.6992  0.0354
  131CHL1  H22A15937   0.587   4.811   4.443  1.4079 -0.1719 -2.8551
  131CHL1  H22B15938   0.552   4.635   4.456  0.6932  0.8341 -1.2312
  131CHL1   C2315939   0.624   4.744   4.633  0.1988  0.6821 -0.0937
  131CHL1  H23A15940   0.619   4.652   4.695 -0.5628  2.1640  2.1773
  131CHL1  H23B15941   0.715   4.802   4.659 -0.3493  2.1407 -1.2577
  131CHL1   C2415942   0.508   4.841   4.667  1.2917  0.0535 -0.6229
  131CHL1  H24A15943   0.534   4.946   4.640 -0.6771  1.3112  1.9456
  131CHL1  H24B15944   0.418   4.807   4.611  0.9893  0.5886 -0.4672
  131CHL1   C2515945   0.453   4.847   4.807 -0.4864  0.1161 -0.2068
  131CHL1   H2515946   0.433   4.744   4.845 -3.7260  0.3295 -1.0013
  131CHL1   C2615947   0.545   4.918   4.908  0.1140 -0.3664 -0.4970
  131CHL1  H26A15948   0.557   5.027   4.889 -2.2923 -0.0070 -0.3008
  131CHL1  H26B15949   0.505   4.900   5.010  1.9169 -2.6460 -0.1064
  131CHL1  H26C15950   0.650   4.884   4.900  0.1467  0.1424 -2.8549
  131CHL1   C2715951   0.320   4.917   4.814 -0.2430 -0.0672 -0.4941
  131CHL1  H27A15952   0.336   5.024   4.791 -0.2713 -0.0102 -0.2466
  131CHL1  H27B15953   0.257   4.868   4.737  0.9300 -1.0040 -0.8936
  131CHL1  H27C15954   0.269   4.927   4.912 -2.3705  0.9424 -1.6309
  132CHL1    C315955   5.143   5.946   3.314  0.0242  0.4248 -0.2718
  132CHL1    H315956   5.176   6.037   3.369  0.9542 -0.0002 -0.1012
  132CHL1    O315957   5.165   5.962   3.174 -0.3325 -0.0626  0.2320
  132CHL1   H3'15958   5.118   5.890   3.132 -0.2495  0.3779 -0.6324
  132CHL1    C415959   5.221   5.826   3.367 -0.9953  0.0314 -0.3707
  132CHL1   H4A15960   5.193   5.737   3.308 -0.6293  0.4891 -1.2578
  132CHL1   H4B15961   5.329   5.845   3.351 -0.3473 -2.1181  1.0211
  132CHL1    C515962   5.204   5.805   3.517 -1.0206  0.1872 -0.8723
  132CHL1    C615963   5.305   5.811   3.602  0.5197 -1.0283 -0.2725
  132CHL1    H615964   5.401   5.843   3.559 -0.2454  2.4134  0.3039
  132CHL1    C715965   5.302   5.778   3.748 -0.1286 -0.2210  0.5176
  132CHL1   H7A15966   5.378   5.703   3.779 -0.1405  0.4111  2.2052
  132CHL1   H7B15967   5.332   5.878   3.788 -3.3201  0.5764  1.2164
  132CHL1    C815968   5.166   5.735   3.795  0.0640  0.7659 -0.1323
  132CHL1    H815969   5.157   5.625   3.782  1.5833  0.8815 -2.8723
  132CHL1   C1415970   5.152   5.765   3.947 -0.2402 -0.0268  0.3233
  132CHL1   H1415971   5.156   5.876   3.956 -1.2953  0.3089 -2.2282
  132CHL1   C1515972   5.260   5.715   4.043 -0.5558 -0.4512  0.3805
  132CHL1  H15A15973   5.290   5.619   3.996  3.8645  0.9409 -0.0958
  132CHL1  H15B15974   5.349   5.780   4.058  0.6626 -2.3981  2.1455
  132CHL1   C1615975   5.191   5.713   4.177 -0.0343  0.1185 -0.3400
  132CHL1  H16A15976   5.207   5.616   4.229 -1.0111  0.1536  0.0483
  132CHL1  H16B15977   5.227   5.797   4.241 -1.8698  1.4091 -0.9165
  132CHL1   C1715978   5.038   5.738   4.149  0.1187  0.3469  0.4553
  132CHL1   H1715979   5.019   5.847   4.153 -3.6529 -0.0870 -0.8775
  132CHL1   C1315980   5.017   5.714   4.005 -0.2412 -0.6988 -0.0259
  132CHL1   C1815981   5.007   5.561   4.002 -0.5639 -0.5237  0.4965
  132CHL1  H18A15982   5.023   5.515   3.902  0.0094 -0.1578  0.4221
  132CHL1  H18B15983   5.088   5.506   4.056 -0.4700 -2.3130 -1.3222
  132CHL1  H18C15984   4.906   5.529   4.036 -0.7478  0.1013  0.5502
  132CHL1   C1215985   4.900   5.784   3.925 -0.5902 -0.0094 -0.3686
  132CHL1  H12A15986   4.797   5.764   3.962 -0.8006  2.2948  0.4327
  132CHL1  H12B15987   4.918   5.892   3.941 -1.4333 -0.2663  2.8760
  132CHL1   C1115988   4.910   5.750   3.772  0.0287 -0.7517  0.1670
  132CHL1  H11A15989   4.882   5.643   3.766  1.1500 -0.9748 -2.2716
  132CHL1  H11B15990   4.828   5.809   3.727 -0.2153 -0.2985  1.1708
  132CHL1    C915991   5.045   5.797   3.719 -0.5775 -0.2663  0.3665
  132CHL1    H915992   5.048   5.907   3.732 -1.7836 -0.2536  0.6062
  132CHL1   C1015993   5.061   5.787   3.562 -0.3188  0.2154  0.1277
  132CHL1   C1915994   5.014   5.646   3.523  0.8457 -0.6053  0.4492
  132CHL1  H19A15995   5.066   5.566   3.581 -1.3342 -1.0973  1.8549
  132CHL1  H19B15996   4.912   5.624   3.560  2.5275 -3.4597  3.9835
  132CHL1  H19C15997   5.022   5.622   3.414 -1.1430 -0.6109  0.2716
  132CHL1    C115998   4.978   5.897   3.492 -0.1336  0.4395 -0.7179
  132CHL1   H1A15999   4.876   5.875   3.532  0.6957 -0.3522  1.0707
  132CHL1   H1B16000   5.010   5.995   3.534  1.0818 -0.1938 -0.1301
  132CHL1    C216001   4.989   5.920   3.343 -0.1019  0.2930  0.1508
  132CHL1   H2A16002   4.925   6.007   3.317  2.9382  2.5864 -0.1626
  132CHL1   H2B16003   4.958   5.828   3.289 -2.0741  1.5849 -1.0644
  132CHL1   C2016004   4.944   5.673   4.259 -0.5333 -0.2695 -0.2223
  132CHL1   H2016005   4.945   5.562   4.256  0.6917 -0.2859 -3.3874
  132CHL1   C2116006   4.801   5.725   4.236 -0.0043 -0.1918  0.0521
  132CHL1  H21A16007   4.731   5.715   4.321 -0.0197 -1.6161 -0.1051
  132CHL1  H21B16008   4.749   5.660   4.163  0.2568 -1.1283  0.6889
  132CHL1  H21C16009   4.787   5.831   4.204 -1.7992 -0.3769  0.1104
  132CHL1   C2216010   4.993   5.717   4.403 -0.3731 -0.6136 -0.0705
  132CHL1  H22A16011   5.097   5.681   4.419 -0.1676  0.7359  1.9570
  132CHL1  H22B16012   4.981   5.827   4.412 -0.3744 -0.7158  1.3369
  132CHL1   C2316013   4.911   5.664   4.516  0.3514  0.6205 -0.9276
  132CHL1  H23A16014   4.808   5.704   4.530 -0.7282 -2.3071  0.3518
  132CHL1  H23B16015   4.889   5.559   4.486 -0.9895  0.4414  0.5181
  132CHL1   C2416016   4.988   5.669   4.645 -0.2651 -0.0914  0.5804
  132CHL1  H24A16017   5.087   5.625   4.622 -1.2067 -1.7827 -0.3981
  132CHL1  H24B16018   4.996   5.776   4.675  0.2781  0.0601 -0.0797
  132CHL1   C2516019   4.927   5.581   4.755 -0.2532  0.8154 -0.0770
  132CHL1   H2516020   4.905   5.483   4.707  1.1999  1.1489 -1.5150
  132CHL1   C2616021   5.032   5.562   4.873 -0.5312  0.4796  0.0977
  132CHL1  H26A16022   5.105   5.482   4.847 -1.3736 -0.1753 -0.2940
  132CHL1  H26B16023   5.088   5.653   4.902 -1.1493  0.4213  1.5662
  132CHL1  H26C16024   4.971   5.522   4.957 -2.4202  0.2306 -1.3343
  132CHL1   C2716025   4.792   5.644   4.806  0.4004 -0.2107  0.0236
  132CHL1  H27A16026   4.724   5.648   4.719  0.2256 -0.2741  0.1580
  132CHL1  H27B16027   4.758   5.577   4.888 -2.0563  0.2540 -0.5389
  132CHL1  H27C16028   4.795   5.748   4.845 -0.3063  1.0836 -3.0623
  133CHL1    C316029   3.549   1.397   3.727 -0.5213 -0.0031  0.6376
  133CHL1    H316030   3.504   1.295   3.723 -1.8975  0.6247 -2.6814
  133CHL1    O316031   3.523   1.458   3.601 -0.4539  0.6297 -0.6376
  133CHL1   H3'16032   3.598   1.516   3.584  0.7307 -0.1241  1.5422
  133CHL1    C416033   3.480   1.474   3.844 -0.4951  0.1447  0.0732
  133CHL1   H4A16034   3.527   1.574   3.837  1.2051 -0.6390 -0.2736
  133CHL1   H4B16035   3.373   1.461   3.816 -0.4036 -0.9979  0.2225
  133CHL1    C516036   3.509   1.412   3.976 -0.0314  0.4802 -0.5270
  133CHL1    C616037   3.401   1.381   4.062 -0.4129  0.5871  0.4906
  133CHL1    H616038   3.297   1.397   4.030 -0.2474 -0.6965 -0.8027
  133CHL1    C716039   3.427   1.331   4.200  0.4589 -0.6831  0.3227
  133CHL1   H7A16040   3.355   1.380   4.268  0.7306 -1.6252  1.3049
  133CHL1   H7B16041   3.395   1.225   4.204 -0.6356 -0.3261  1.5822
  133CHL1    C816042   3.561   1.341   4.252 -0.9902  0.3028 -0.4206
  133CHL1    H816043   3.572   1.445   4.291  1.6523  0.1302 -0.5030
  133CHL1   C1416044   3.579   1.244   4.373 -0.5066  0.6614  0.5476
  133CHL1   H1416045   3.580   1.141   4.332  2.2893  0.8229  0.0546
  133CHL1   C1516046   3.470   1.249   4.487 -0.9216 -0.0354  0.5237
  133CHL1  H15A16047   3.445   1.356   4.507  0.2435  0.0857  1.4094
  133CHL1  H15B16048   3.381   1.187   4.464  1.1407 -2.3128 -1.9782
  133CHL1   C1616049   3.542   1.207   4.613  1.0232  0.2275  1.0916
  133CHL1  H16A16050   3.541   1.283   4.694  2.1290  1.1784  0.2612
  133CHL1  H16B16051   3.495   1.116   4.656  2.1383 -0.9532 -0.1194
  133CHL1   C1716052   3.687   1.173   4.568 -0.5085 -0.1767  0.4482
  133CHL1   H1716053   3.696   1.066   4.541  2.9614  0.2009 -0.2650
  133CHL1   C1316054   3.713   1.262   4.444 -0.1693 -0.3231  0.8090
  133CHL1   C1816055   3.744   1.409   4.496  0.4098  0.2956  0.3521
  133CHL1  H18A16056   3.668   1.451   4.565  1.1014  1.1430  0.6329
  133CHL1  H18B16057   3.843   1.430   4.543  0.2000  3.7999 -0.4849
  133CHL1  H18C16058   3.743   1.472   4.404 -2.9209  0.3058  0.2892
  133CHL1   C1216059   3.820   1.204   4.339 -0.0363 -0.4486 -0.1089
  133CHL1  H12A16060   3.920   1.223   4.384 -0.2103 -0.4998  0.3029
  133CHL1  H12B16061   3.802   1.097   4.316 -2.6175  0.3953 -2.4120
  133CHL1   C1116062   3.815   1.289   4.207 -0.1795  0.5116 -0.3503
  133CHL1  H11A16063   3.864   1.387   4.228 -0.2918  0.0698  2.4597
  133CHL1  H11B16064   3.877   1.233   4.135  1.5324  3.2131 -1.1497
  133CHL1    C916065   3.668   1.306   4.150 -0.5488 -0.0511 -1.0922
  133CHL1    H916066   3.639   1.205   4.115 -2.2056  0.0202 -0.0100
  133CHL1   C1016067   3.652   1.391   4.025  0.0521  0.0089  0.5468
  133CHL1   C1916068   3.725   1.520   4.060  0.2107 -0.2175 -0.1469
  133CHL1  H19A16069   3.835   1.510   4.046  0.3665  0.0973  0.7747
  133CHL1  H19B16070   3.690   1.607   4.001  0.6417  0.3079  0.3615
  133CHL1  H19C16071   3.701   1.538   4.167 -0.8539 -1.6831 -0.1139
  133CHL1    C116072   3.731   1.326   3.905 -0.0010 -0.2763  0.0387
  133CHL1   H1A16073   3.839   1.333   3.929 -0.4722 -1.2247  2.9137
  133CHL1   H1B16074   3.721   1.216   3.898  2.8963 -0.9985  3.6691
  133CHL1    C216075   3.699   1.383   3.762  0.6572  0.2185 -0.7215
  133CHL1   H2A16076   3.769   1.332   3.693  1.0593 -0.4791  0.1827
  133CHL1   H2B16077   3.737   1.487   3.767 -0.2423  0.5834 -1.1559
  133CHL1   C2016078   3.787   1.178   4.683  0.6839 -0.2821 -0.9675
  133CHL1   H2016079   3.800   1.284   4.712 -1.1309  0.0842 -1.3190
  133CHL1   C2116080   3.928   1.134   4.643  0.4653 -0.0389 -0.2939
  133CHL1  H21A16081   3.997   1.113   4.728 -0.5767 -0.8397  0.3915
  133CHL1  H21B16082   3.975   1.213   4.582  0.0180  1.4770  1.2239
  133CHL1  H21C16083   3.928   1.042   4.580  2.2347 -0.7538  0.6786
  133CHL1   C2216084   3.747   1.100   4.812  0.5441  0.6950  1.0560
  133CHL1  H22A16085   3.830   1.095   4.887  1.9264  1.9557 -0.3279
  133CHL1  H22B16086   3.665   1.161   4.854 -0.8953  0.1164 -0.7813
  133CHL1   C2316087   3.701   0.957   4.786  0.0062 -0.5159  0.5528
  133CHL1  H23A16088   3.615   0.947   4.717 -1.8872  0.2678  2.6719
  133CHL1  H23B16089   3.780   0.904   4.729  1.1040  1.1483  0.4619
  133CHL1   C2416090   3.675   0.891   4.915  0.3881  0.2717 -0.3862
  133CHL1  H24A16091   3.773   0.884   4.967  0.9729  3.0491 -0.9803
  133CHL1  H24B16092   3.620   0.961   4.982  0.2598  0.9623 -1.2062
  133CHL1   C2516093   3.604   0.753   4.896 -0.6266 -0.2440 -0.0004
  133CHL1   H2516094   3.534   0.769   4.811  0.1853  0.0424 -0.6295
  133CHL1   C2616095   3.694   0.642   4.840  0.2463 -0.3819 -0.1727
  133CHL1  H26A16096   3.763   0.680   4.762 -0.3829 -0.9388 -1.0208
  133CHL1  H26B16097   3.756   0.608   4.926 -0.6567 -0.1981  0.5671
  133CHL1  H26C16098   3.618   0.569   4.804 -1.7584  1.7637 -0.5780
  133CHL1   C2716099   3.539   0.708   5.028  0.9511  0.0259 -0.4063
  133CHL1  H27A16100   3.465   0.785   5.059  1.0928  0.3145 -0.7919
  133CHL1  H27B16101   3.498   0.604   5.020  1.3105 -0.0984 -0.6191
  133CHL1  H27C16102   3.618   0.709   5.105 -1.0337 -2.0063  1.8435
  134CHL1    C316103   0.772   3.214   3.408  0.3004 -0.0611  0.0411
  134CHL1    H316104   0.781   3.305   3.345 -2.7424  0.5611  0.3415
  134CHL1    O316105   0.722   3.111   3.321  0.3968  0.1273 -0.6236
  134CHL1   H3'16106   0.713   3.033   3.377 -0.4922  0.3859 -0.3790
  134CHL1    C416107   0.912   3.174   3.453  0.0271 -0.4650 -0.0210
  134CHL1   H4A16108   0.899   3.071   3.492 -3.0133 -0.2479 -0.2359
  134CHL1   H4B16109   0.981   3.172   3.366  0.0227  1.2467 -0.1059
  134CHL1    C516110   0.966   3.259   3.563  0.0662 -0.1948 -0.7771
  134CHL1    C616111   1.093   3.299   3.554 -0.0203  0.3203  0.3592
  134CHL1    H616112   1.155   3.277   3.466 -2.4872  0.0910 -1.4000
  134CHL1    C716113   1.150   3.381   3.667 -0.4034  1.0138  0.4009
  134CHL1   H7A16114   1.259   3.365   3.683 -0.3522  1.0842  0.1359
  134CHL1   H7B16115   1.152   3.491   3.646  2.4043  0.7529 -1.2823
  134CHL1    C816116   1.073   3.373   3.802  0.0277  0.4921 -0.4705
  134CHL1    H816117   1.106   3.271   3.834  0.2505 -0.5948 -3.7834
  134CHL1   C1416118   1.106   3.480   3.900  0.3398 -0.5852 -0.8774
  134CHL1   H1416119   1.074   3.580   3.864  1.5550  1.3744  2.9800
  134CHL1   C1516120   1.251   3.522   3.929  0.1555 -0.8216  0.9195
  134CHL1  H15A16121   1.319   3.435   3.940  0.2607 -0.8853 -0.1571
  134CHL1  H15B16122   1.283   3.588   3.845 -3.0156 -0.7921 -0.4063
  134CHL1   C1616123   1.240   3.606   4.055 -0.1523  0.5930  0.4091
  134CHL1  H16A16124   1.311   3.567   4.130 -0.2815 -1.6851 -0.5756
  134CHL1  H16B16125   1.268   3.713   4.044  0.0032  0.6239  1.0532
  134CHL1   C1716126   1.100   3.585   4.113  0.1294  0.3908 -0.2943
  134CHL1   H1716127   1.048   3.669   4.061  2.1079  1.3623 -0.8171
  134CHL1   C1316128   1.048   3.454   4.038 -0.1820 -0.2076 -0.5315
  134CHL1   C1816129   1.111   3.329   4.097  0.8528  0.5348  0.3982
  134CHL1  H18A16130   1.219   3.345   4.117  0.5360  0.5875  2.1962
  134CHL1  H18B16131   1.068   3.305   4.197 -0.2528  0.1127 -0.1552
  134CHL1  H18C16132   1.095   3.239   4.034 -3.3528  0.0482  1.8168
  134CHL1   C1216133   0.895   3.459   4.032  0.7198 -0.1870 -0.4497
  134CHL1  H12A16134   0.845   3.439   4.129  0.3964  2.3648 -0.0320
  134CHL1  H12B16135   0.880   3.565   4.003  3.1261  0.2935 -0.1548
  134CHL1   C1116136   0.848   3.379   3.917 -0.6621 -0.2378 -0.5793
  134CHL1  H11A16137   0.853   3.280   3.968  0.9694 -0.0953 -0.4152
  134CHL1  H11B16138   0.738   3.388   3.907 -0.9313 -1.2619  1.0940
  134CHL1    C916139   0.927   3.371   3.783  0.1931  0.1539 -0.0731
  134CHL1    H916140   0.898   3.467   3.736 -0.5146 -0.3649 -0.7314
  134CHL1   C1016141   0.876   3.268   3.687  0.3288 -0.1574  0.5798
  134CHL1   C1916142   0.880   3.131   3.762 -0.0477 -0.5370 -0.0031
  134CHL1  H19A16143   0.829   3.052   3.702  0.7049  0.4107 -1.9880
  134CHL1  H19B16144   0.984   3.092   3.772  1.1111  2.0215 -1.1662
  134CHL1  H19C16145   0.830   3.133   3.861 -0.7454  0.8475 -0.3629
  134CHL1    C116146   0.736   3.304   3.641  0.6566 -0.4313 -0.0252
  134CHL1   H1A16147   0.666   3.293   3.727 -0.2580  1.9772 -0.3819
  134CHL1   H1B16148   0.732   3.412   3.614  2.8263 -0.4511 -0.5871
  134CHL1    C216149   0.677   3.227   3.528  0.7045  0.6322 -0.3748
  134CHL1   H2A16150   0.582   3.273   3.495  0.7375  2.0814  1.3501
  134CHL1   H2B16151   0.662   3.123   3.565  1.3301  0.6742  0.0254
  134CHL1   C2016152   1.077   3.606   4.266  0.1524  0.5774  0.0540
  134CHL1   H2016153   0.971   3.586   4.290  0.1206 -0.9128 -1.1697
  134CHL1   C2116154   1.092   3.760   4.288 -0.4572  0.6672  0.3211
  134CHL1  H21A16155   1.051   3.778   4.389 -2.2443 -2.3441  0.2478
  134CHL1  H21B16156   1.036   3.822   4.214  1.0765  0.1597 -1.3614
  134CHL1  H21C16157   1.201   3.781   4.297 -0.6339  0.6094  3.9572
  134CHL1   C2216158   1.178   3.520   4.361  0.2664  0.1893 -0.6750
  134CHL1  H22A16159   1.165   3.413   4.333  0.2999  0.1144 -0.4054
  134CHL1  H22B16160   1.282   3.551   4.340  0.6877 -0.0581  0.9368
  134CHL1   C2316161   1.140   3.522   4.505  0.8231 -0.4096 -0.3738
  134CHL1  H23A16162   1.157   3.625   4.543 -2.4059 -0.2132  0.8130
  134CHL1  H23B16163   1.030   3.512   4.513  0.7787 -0.8405 -1.4298
  134CHL1   C2416164   1.211   3.414   4.587 -0.3790  0.0577  0.7606
  134CHL1  H24A16165   1.201   3.316   4.536 -0.9362  1.1690 -1.3688
  134CHL1  H24B16166   1.320   3.434   4.590 -0.0129 -1.8571  2.1621
  134CHL1   C2516167   1.169   3.412   4.739  0.3582 -1.3174  0.1280
  134CHL1   H2516168   1.060   3.395   4.741  0.5631 -3.0752 -1.0238
  134CHL1   C2616169   1.227   3.281   4.811  0.5658 -0.3440 -0.0348
  134CHL1  H26A16170   1.191   3.190   4.759 -0.5956 -0.7687  1.4367
  134CHL1  H26B16171   1.338   3.283   4.817  0.5575 -2.1304  3.3148
  134CHL1  H26C16172   1.164   3.271   4.901 -1.8712  0.6248 -1.5249
  134CHL1   C2716173   1.224   3.530   4.817 -0.1119 -0.5731 -0.0453
  134CHL1  H27A16174   1.188   3.521   4.922  0.0681 -0.6011  0.0143
  134CHL1  H27B16175   1.335   3.538   4.816 -0.1010 -0.6261  0.7144
  134CHL1  H27C16176   1.177   3.628   4.795  0.1703  0.0526  1.9889
  135CHL1    C316177   1.292   2.828   3.617  0.2361  0.5190 -0.2692
  135CHL1    H316178   1.309   2.726   3.657  1.0277  1.2480  1.3757
  135CHL1    O316179   1.229   2.819   3.488  0.3897 -0.2063  0.1181
  135CHL1   H3'16180   1.227   2.908   3.452  0.1122  0.0273  0.6903
  135CHL1    C416181   1.197   2.892   3.715 -0.3729  0.1058 -0.3641
  135CHL1   H4A16182   1.164   2.989   3.673  2.8322  1.2359 -0.5729
  135CHL1   H4B16183   1.109   2.825   3.716 -0.8790  0.7425 -1.2116
  135CHL1    C516184   1.259   2.917   3.855  0.0680 -0.2749  0.2029
  135CHL1    C616185   1.200   2.866   3.965 -0.1292  0.6022 -0.6430
  135CHL1    H616186   1.113   2.799   3.968 -1.1049  1.8611  0.3471
  135CHL1    C716187   1.257   2.897   4.111  0.4311 -0.0761  0.0473
  135CHL1   H7A16188   1.167   2.924   4.171 -0.7429  1.9349 -2.4504
  135CHL1   H7B16189   1.305   2.810   4.161  2.3812  1.4021  0.8804
  135CHL1    C816190   1.355   3.014   4.110 -0.1141 -0.7589  0.0092
  135CHL1    H816191   1.296   3.107   4.099  0.7722 -0.3258 -1.2892
  135CHL1   C1416192   1.430   3.013   4.243  0.0973  0.0480 -0.6789
  135CHL1   H1416193   1.490   2.920   4.239  0.3285  0.0807  1.1257
  135CHL1   C1516194   1.348   3.032   4.371  0.0797  0.4463  0.2501
  135CHL1  H15A16195   1.290   3.126   4.360  1.3223  1.1173 -0.8459
  135CHL1  H15B16196   1.274   2.955   4.399  0.0113  0.3874 -0.0904
  135CHL1   C1616197   1.448   3.052   4.482 -0.7929  0.2962 -0.2522
  135CHL1  H16A16198   1.420   3.138   4.547 -1.1180 -0.8229  1.1423
  135CHL1  H16B16199   1.468   2.963   4.546 -0.2890  0.1879 -0.5546
  135CHL1   C1716200   1.587   3.070   4.401 -0.1835  0.2020 -0.1420
  135CHL1   H1716201   1.625   2.966   4.394 -0.0069  0.3312 -1.2938
  135CHL1   C1316202   1.546   3.112   4.258  0.1642  0.3060  0.0473
  135CHL1   C1816203   1.508   3.261   4.254 -0.3804  0.4639 -0.5751
  135CHL1  H18A16204   1.453   3.292   4.345  2.4992 -0.3373  1.5809
  135CHL1  H18B16205   1.599   3.324   4.248  0.2647 -0.3915 -0.0876
  135CHL1  H18C16206   1.439   3.270   4.168 -0.4523 -1.9537 -0.8573
  135CHL1   C1216207   1.651   3.078   4.147  0.3846 -0.3616  0.0465
  135CHL1  H12A16208   1.729   3.158   4.142  0.6138 -0.5597  0.3758
  135CHL1  H12B16209   1.689   2.975   4.162 -2.7701 -1.5074  1.0066
  135CHL1   C1116210   1.583   3.070   4.002 -0.5219 -0.2319 -0.5549
  135CHL1  H11A16211   1.548   3.175   3.986 -1.5589 -0.4451  0.2320
  135CHL1  H11B16212   1.656   3.032   3.928  0.6389 -2.6657  1.7222
  135CHL1    C916213   1.455   2.983   3.994  0.1557  0.2615 -0.1103
  135CHL1    H916214   1.490   2.879   4.015  0.2656  0.5192  1.0152
  135CHL1   C1016215   1.387   2.989   3.855  0.0691  0.7744  0.5912
  135CHL1   C1916216   1.352   3.139   3.818 -0.2270  0.3444  0.3702
  135CHL1  H19A16217   1.287   3.152   3.728 -0.6269 -0.3397  0.5595
  135CHL1  H19B16218   1.303   3.173   3.911  1.9026  0.8702  1.3537
  135CHL1  H19C16219   1.447   3.196   3.813  1.0607 -1.5592  1.6086
  135CHL1    C116220   1.485   2.934   3.750  0.5428  0.2323  0.3589
  135CHL1   H1A16221   1.568   3.005   3.731  1.9440 -1.4211 -0.0141
  135CHL1   H1B16222   1.520   2.838   3.793 -2.6001 -1.1251  0.1571
  135CHL1    C216223   1.418   2.915   3.610 -0.2193  0.0062  0.1263
  135CHL1   H2A16224   1.488   2.849   3.554 -3.7361 -4.3571  0.2967
  135CHL1   H2B16225   1.399   3.019   3.575  1.6273  0.9969  1.8379
  135CHL1   C2016226   1.695   3.150   4.470  0.6793 -0.9629  0.6358
  135CHL1   H2016227   1.675   3.259   4.467 -0.3947 -1.1506  0.7023
  135CHL1   C2116228   1.828   3.118   4.399  0.8321 -0.7324  0.0995
  135CHL1  H21A16229   1.918   3.139   4.460  1.5179  0.2290 -1.1833
  135CHL1  H21B16230   1.837   3.175   4.303  2.2420 -2.8569 -1.0984
  135CHL1  H21C16231   1.832   3.014   4.361  1.8835  0.1178 -2.3156
  135CHL1   C2216232   1.700   3.107   4.621 -0.6661  0.5834  0.7210
  135CHL1  H22A16233   1.610   3.145   4.673 -0.5543  0.8742  0.7032
  135CHL1  H22B16234   1.696   2.996   4.625 -2.1441  0.6036  0.4473
  135CHL1   C2316235   1.829   3.158   4.694 -0.1400  0.1689  0.6135
  135CHL1  H23A16236   1.917   3.102   4.657  0.8088  1.6996  0.5018
  135CHL1  H23B16237   1.853   3.265   4.680 -2.1254  0.7400  1.1825
  135CHL1   C2416238   1.831   3.128   4.840  0.0902 -0.4023 -0.7403
  135CHL1  H24A16239   1.751   3.181   4.896  1.0563 -0.5089  0.7756
  135CHL1  H24B16240   1.814   3.019   4.845 -0.3885 -0.2942  0.0730
  135CHL1   C2516241   1.965   3.178   4.904  1.0100  0.5004 -0.1357
  135CHL1   H2516242   1.999   3.274   4.859  1.5346 -0.2305 -1.3753
  135CHL1   C2616243   1.930   3.195   5.053 -0.7201  0.0225  0.0630
  135CHL1  H26A16244   1.928   3.095   5.101 -0.1232  1.2629  2.9278
  135CHL1  H26B16245   1.997   3.265   5.109  1.2508 -2.2492  0.7087
  135CHL1  H26C16246   1.832   3.245   5.070 -1.2187 -0.4256 -1.3916
  135CHL1   C2716247   2.074   3.066   4.892  0.5273 -0.5564  0.4160
  135CHL1  H27A16248   2.168   3.097   4.943 -0.0022 -0.1188  1.1440
  135CHL1  H27B16249   2.049   2.972   4.946  0.8486  0.2286  2.0180
  135CHL1  H27C16250   2.092   3.034   4.787  1.1722 -0.5876  0.5271
  136CHL1    C316251   5.659   7.169   3.111 -0.0130  0.2496 -0.0046
  136CHL1    H316252   5.756   7.220   3.129  1.1617 -2.6399  2.9517
  136CHL1    O316253   5.615   7.159   2.974 -0.1688  0.1121  0.3340
  136CHL1   H3'16254   5.527   7.123   2.988 -0.9105  2.0984  1.2261
  136CHL1    C416255   5.685   7.027   3.177  0.3692  0.0520 -0.9282
  136CHL1   H4A16256   5.592   6.969   3.163 -0.2994  0.9686 -0.3745
  136CHL1   H4B16257   5.765   6.978   3.118  1.1535  0.6795 -0.4157
  136CHL1    C516258   5.700   7.047   3.326 -0.7186  0.1616  0.6429
  136CHL1    C616259   5.808   6.988   3.383  0.2565  0.0692 -1.1690
  136CHL1    H616260   5.874   6.918   3.329  1.7284 -0.1465  0.7676
  136CHL1    C716261   5.819   6.983   3.532  0.1619  0.1552  0.0669
  136CHL1   H7A16262   5.839   6.879   3.566 -2.0533 -0.7708 -1.2974
  136CHL1   H7B16263   5.898   7.049   3.575 -0.6377  0.4025  1.1855
  136CHL1    C816264   5.689   7.032   3.614  0.1462 -0.2005  0.4196
  136CHL1    H816265   5.615   6.949   3.613 -0.1412  0.0141 -1.7787
  136CHL1   C1416266   5.730   7.065   3.765  0.2618  0.1937  0.7718
  136CHL1   H1416267   5.797   7.154   3.757 -0.3398  0.5230 -1.2071
  136CHL1   C1516268   5.801   6.959   3.849 -0.8006  0.4301 -0.4477
  136CHL1  H15A16269   5.757   6.857   3.842 -1.9122  0.8916 -0.4543
  136CHL1  H15B16270   5.910   6.961   3.827 -0.8203  2.2916 -0.4992
  136CHL1   C1616271   5.783   7.007   3.998 -0.0868 -0.7274  0.5344
  136CHL1  H16A16272   5.754   6.927   4.070  1.7920  0.4563  2.7282
  136CHL1  H16B16273   5.876   7.056   4.035  0.0562 -1.8479  1.7364
  136CHL1   C1716274   5.659   7.109   3.987  0.5618 -0.0861 -0.6270
  136CHL1   H1716275   5.698   7.212   4.000 -0.4965  0.3167 -0.5771
  136CHL1   C1316276   5.606   7.104   3.847  0.3021  0.2617 -0.5280
  136CHL1   C1816277   5.504   6.988   3.834  0.1995 -0.0514 -0.0320
  136CHL1  H18A16278   5.457   6.980   3.733  0.3450 -2.3225  0.0239
  136CHL1  H18B16279   5.554   6.890   3.848 -0.9511 -0.4681  1.3359
  136CHL1  H18C16280   5.423   6.992   3.909 -1.6319  0.8348 -1.9650
  136CHL1   C1216281   5.542   7.235   3.789 -0.0014  0.3143  0.5216
  136CHL1  H12A16282   5.442   7.247   3.835 -0.6045 -0.1780 -0.6124
  136CHL1  H12B16283   5.608   7.320   3.816  0.6831  0.2896 -0.9699
  136CHL1   C1116284   5.521   7.227   3.630 -0.0692  0.0761  0.0217
  136CHL1  H11A16285   5.418   7.188   3.618 -0.7874  1.2799  1.7495
  136CHL1  H11B16286   5.525   7.333   3.595  2.6013 -0.4619 -1.5483
  136CHL1    C916287   5.630   7.157   3.550  0.7505  0.0653  0.5791
  136CHL1    H916288   5.718   7.224   3.543 -0.3428  1.4094 -0.9465
  136CHL1   C1016289   5.594   7.132   3.402  0.7525  0.0001  0.2489
  136CHL1   C1916290   5.463   7.047   3.406 -0.6037 -0.4036  0.0312
  136CHL1  H19A16291   5.375   7.112   3.430  0.9991  1.4543  1.1612
  136CHL1  H19B16292   5.447   7.009   3.303  1.2437 -0.2070 -0.3603
  136CHL1  H19C16293   5.467   6.960   3.474  2.0897 -1.3182 -1.1647
  136CHL1    C116294   5.565   7.266   3.333 -1.0720 -0.0028 -0.0298
  136CHL1   H1A16295   5.483   7.328   3.375 -1.1512 -0.3702  0.3561
  136CHL1   H1B16296   5.660   7.322   3.349 -1.6805  1.2799 -0.7495
  136CHL1    C216297   5.554   7.252   3.180  0.3672 -0.1542 -0.1604
  136CHL1   H2A16298   5.542   7.347   3.123 -0.2092  0.0290  0.2479
  136CHL1   H2B16299   5.461   7.193   3.164 -1.0658  1.9722 -0.1933
  136CHL1   C2016300   5.563   7.098   4.107  0.4448 -0.2650  0.2846
  136CHL1   H2016301   5.521   6.996   4.111  1.2647 -0.7030 -1.3812
  136CHL1   C2116302   5.453   7.198   4.096 -0.6256  0.1813 -0.3534
  136CHL1  H21A16303   5.371   7.153   4.036 -1.6781 -2.9514  3.0621
  136CHL1  H21B16304   5.491   7.291   4.049  3.3882 -1.2832 -0.3890
  136CHL1  H21C16305   5.411   7.246   4.187 -2.2498 -1.0420 -0.4197
  136CHL1   C2216306   5.632   7.119   4.243 -0.0581  0.0152 -0.2548
  136CHL1  H22A16307   5.733   7.072   4.237  0.0961  0.5567 -4.2553
  136CHL1  H22B16308   5.656   7.223   4.275  1.8301 -0.8085  1.2334
  136CHL1   C2316309   5.561   7.050   4.363  1.1763 -0.1618  0.2491
  136CHL1  H23A16310   5.451   7.061   4.374  1.4137  1.5973  1.2535
  136CHL1  H23B16311   5.575   6.940   4.350 -0.0686 -0.2102 -0.9568
  136CHL1   C2416312   5.616   7.086   4.505  0.1440 -0.4263  0.3626
  136CHL1  H24A16313   5.725   7.065   4.506 -0.0060 -1.2008  1.0861
  136CHL1  H24B16314   5.602   7.194   4.526 -0.5033  0.0123 -1.9581
  136CHL1   C2516315   5.531   7.011   4.611 -0.5373  0.2882  0.2075
  136CHL1   H2516316   5.482   6.916   4.579 -0.0494 -0.0025  0.3101
  136CHL1   C2616317   5.622   6.963   4.729  0.5538 -1.1616 -0.3529
  136CHL1  H26A16318   5.658   7.056   4.777 -2.2665  0.6030 -1.3811
  136CHL1  H26B16319   5.578   6.896   4.806  3.3038 -0.6994  1.7655
  136CHL1  H26C16320   5.709   6.915   4.679 -0.5071 -0.9883 -2.4934
  136CHL1   C2716321   5.417   7.107   4.655  0.1338  0.0100 -0.2177
  136CHL1  H27A16322   5.335   7.066   4.718  0.4631  0.4964  0.5414
  136CHL1  H27B16323   5.470   7.179   4.722  1.2631 -1.3747  0.4224
  136CHL1  H27C16324   5.363   7.154   4.570 -1.6483  0.3711  1.0379
  137CHL1    C316325   1.434   2.342   3.669  1.1054  0.0755  0.2740
  137CHL1    H316326   1.463   2.236   3.684 -0.5244 -1.1748 -3.9235
  137CHL1    O316327   1.408   2.372   3.532  0.3593 -0.1232 -0.0672
  137CHL1   H3'16328   1.341   2.307   3.507 -0.2188  1.0093 -1.6243
  137CHL1    C416329   1.307   2.376   3.747 -0.1860  0.4652 -0.1688
  137CHL1   H4A16330   1.276   2.480   3.724 -1.5692 -0.1721 -1.3702
  137CHL1   H4B16331   1.227   2.306   3.713 -0.5744  0.3377  0.9544
  137CHL1    C516332   1.336   2.366   3.889  0.1507  0.2406 -0.5286
  137CHL1    C616333   1.260   2.291   3.966 -0.3335 -0.0885  0.1028
  137CHL1    H616334   1.171   2.246   3.921 -1.3154  2.2682 -0.4351
  137CHL1    C716335   1.269   2.284   4.119 -0.8349 -0.3586 -0.4427
  137CHL1   H7A16336   1.167   2.289   4.163 -0.3396 -1.3721  0.8787
  137CHL1   H7B16337   1.300   2.184   4.156 -0.5488  0.4391  1.5788
  137CHL1    C816338   1.364   2.393   4.174 -0.3591  0.6365  0.1749
  137CHL1    H816339   1.313   2.492   4.168 -0.0141  0.7856 -0.3742
  137CHL1   C1416340   1.392   2.356   4.314 -0.1168 -0.9575  0.0784
  137CHL1   H1416341   1.438   2.255   4.316 -0.6392 -1.1969  0.6702
  137CHL1   C1516342   1.276   2.345   4.416 -0.5230 -0.2913  0.6404
  137CHL1  H15A16343   1.215   2.438   4.418 -1.8464 -1.1416  1.0736
  137CHL1  H15B16344   1.203   2.264   4.394 -0.6811  0.1385 -0.4588
  137CHL1   C1616345   1.344   2.337   4.549 -0.8835 -0.7087  0.2427
  137CHL1  H16A16346   1.298   2.413   4.615  0.3386 -0.2659  0.6184
  137CHL1  H16B16347   1.333   2.237   4.595  1.2816 -0.7732  0.7305
  137CHL1   C1716348   1.497   2.368   4.525  0.4854  0.1137  0.1527
  137CHL1   H1716349   1.548   2.271   4.506  0.4045  0.1141 -0.0703
  137CHL1   C1316350   1.496   2.443   4.388 -0.3511 -0.2389 -0.3306
  137CHL1   C1816351   1.446   2.593   4.423  0.5343 -0.5274 -0.2923
  137CHL1  H18A16352   1.427   2.642   4.325  2.0853 -0.8444 -0.7763
  137CHL1  H18B16353   1.348   2.597   4.476  0.5660  0.8101 -0.2934
  137CHL1  H18C16354   1.522   2.656   4.474  0.2300  0.2551 -0.7754
  137CHL1   C1216355   1.628   2.445   4.307  0.4187 -0.1510  0.8941
  137CHL1  H12A16356   1.707   2.503   4.358  1.6351 -1.2947  0.3953
  137CHL1  H12B16357   1.666   2.341   4.293  0.0897 -0.0365 -1.2209
  137CHL1   C1116358   1.596   2.498   4.159 -0.0203  0.1927 -0.7294
  137CHL1  H11A16359   1.555   2.601   4.167  0.3747  0.5366 -2.7685
  137CHL1  H11B16360   1.688   2.496   4.098  0.9073 -2.7648  0.5661
  137CHL1    C916361   1.489   2.408   4.091  0.8194 -0.6447 -0.5873
  137CHL1    H916362   1.526   2.304   4.087 -0.2724 -1.0902  0.4166
  137CHL1   C1016363   1.453   2.447   3.947  0.2083 -1.1826 -0.1101
  137CHL1   C1916364   1.407   2.596   3.934 -0.0218  0.3126  0.2894
  137CHL1  H19A16365   1.476   2.664   3.987  0.9341 -0.5746  0.2113
  137CHL1  H19B16366   1.399   2.644   3.834 -0.8738 -1.4022 -0.5274
  137CHL1  H19C16367   1.312   2.609   3.989 -0.2982 -0.9382  0.1405
  137CHL1    C116368   1.582   2.434   3.862 -0.1561 -0.4355  0.2776
  137CHL1   H1A16369   1.657   2.510   3.894 -0.0268 -0.5560  0.2616
  137CHL1   H1B16370   1.628   2.336   3.887 -1.5201 -0.2546  4.1065
  137CHL1    C216371   1.543   2.439   3.712  0.8539  0.5174  0.1559
  137CHL1   H2A16372   1.631   2.417   3.647  1.2445  1.9102  0.1847
  137CHL1   H2B16373   1.507   2.542   3.690 -0.5242  0.3146  1.3355
  137CHL1   C2016374   1.588   2.429   4.635 -0.1042 -0.2108 -0.2999
  137CHL1   H2016375   1.596   2.539   4.623  2.2586 -0.0849  1.7192
  137CHL1   C2116376   1.727   2.361   4.622 -0.0273  0.2766 -0.5101
  137CHL1  H21A16377   1.806   2.411   4.683 -0.4041  3.2178 -2.2706
  137CHL1  H21B16378   1.768   2.358   4.519 -0.6774  2.3599 -0.8600
  137CHL1  H21C16379   1.712   2.257   4.660 -0.1973  0.7032  0.6261
  137CHL1   C2216380   1.531   2.415   4.778 -0.3146 -0.5287  0.1271
  137CHL1  H22A16381   1.439   2.474   4.798  0.1219 -0.0048  0.6117
  137CHL1  H22B16382   1.508   2.308   4.796 -1.0918 -0.0798  1.9983
  137CHL1   C2316383   1.631   2.447   4.894 -0.4229  0.0814  0.1514
  137CHL1  H23A16384   1.587   2.447   4.997  2.7506  2.1244  1.6699
  137CHL1  H23B16385   1.709   2.368   4.901 -0.3089  0.2264  0.5682
  137CHL1   C2416386   1.680   2.586   4.875 -0.7359 -0.0428 -0.5309
  137CHL1  H24A16387   1.741   2.590   4.783 -0.3665  0.1064 -0.2833
  137CHL1  H24B16388   1.591   2.652   4.873 -1.2719 -0.6066  1.5105
  137CHL1   C2516389   1.775   2.629   4.990  0.1296 -0.2883  1.2198
  137CHL1   H2516390   1.836   2.541   5.016 -0.7996 -1.2722  0.1648
  137CHL1   C2616391   1.870   2.745   4.945 -0.1550  0.3423 -0.5513
  137CHL1  H26A16392   1.938   2.770   5.029 -0.1771 -0.7238 -0.1918
  137CHL1  H26B16393   1.936   2.723   4.858  0.9327  0.4724  0.2260
  137CHL1  H26C16394   1.806   2.833   4.924 -1.1541 -0.7351 -2.2324
  137CHL1   C2716395   1.703   2.674   5.115 -0.1680 -0.3083  0.5180
  137CHL1  H27A16396   1.652   2.587   5.162  0.9990 -0.9064  0.6985
  137CHL1  H27B16397   1.763   2.710   5.200  1.9509 -2.0678 -0.1423
  137CHL1  H27C16398   1.617   2.743   5.101 -0.0339 -0.3820 -0.8824
  138CHL1    C316399   6.309   0.347   3.269  0.2475 -0.6025 -0.6099
  138CHL1    H316400   6.313   0.237   3.254  0.4734 -0.5221 -1.1567
  138CHL1    O316401   6.297   0.420   3.145  0.3234  0.0648 -0.0674
  138CHL1   H3'16402   6.207   0.401   3.116  1.2997 -4.4752 -0.8933
  138CHL1    C416403   6.198   0.378   3.368 -0.3553  0.0168 -0.2350
  138CHL1   H4A16404   6.192   0.488   3.382  0.9774 -0.1803  2.5212
  138CHL1   H4B16405   6.102   0.343   3.325 -1.1177  0.6934  0.8549
  138CHL1    C516406   6.213   0.322   3.512 -0.1693 -0.0745  0.2712
  138CHL1    C616407   6.116   0.250   3.575  0.7482 -0.6483  0.1295
  138CHL1    H616408   6.018   0.238   3.526 -0.2824 -0.5369  2.0650
  138CHL1    C716409   6.132   0.192   3.713 -0.2631  0.7202  0.2673
  138CHL1   H7A16410   6.037   0.201   3.771  0.7381  3.5128  1.6604
  138CHL1   H7B16411   6.157   0.086   3.693  1.0673  1.1031 -0.1980
  138CHL1    C816412   6.249   0.256   3.792 -0.6448  0.2283  0.0877
  138CHL1    H816413   6.221   0.359   3.824 -1.9310  0.4242 -1.5404
  138CHL1   C1416414   6.291   0.180   3.920 -0.1188 -0.5599 -0.1428
  138CHL1   H1416415   6.323   0.076   3.898  0.6988 -0.3756  0.1320
  138CHL1   C1516416   6.179   0.172   4.024 -0.2981  0.0652  0.0192
  138CHL1  H15A16417   6.134   0.272   4.041 -0.5471  0.1671 -1.1138
  138CHL1  H15B16418   6.094   0.112   3.984  1.0758 -0.9815 -1.4821
  138CHL1   C1616419   6.254   0.118   4.147 -0.3803 -0.0483  0.1522
  138CHL1  H16A16420   6.228   0.187   4.231  1.0948 -1.4885  1.8994
  138CHL1  H16B16421   6.227   0.013   4.170 -1.6736 -0.2470 -2.0718
  138CHL1   C1716422   6.405   0.131   4.121 -0.4908  0.1177  0.2490
  138CHL1   H1716423   6.448   0.033   4.090  1.0430  0.7565  0.2697
  138CHL1   C1316424   6.411   0.232   4.005  0.0633 -0.3333 -0.1183
  138CHL1   C1816425   6.403   0.374   4.064  0.4850 -0.0783  0.5090
  138CHL1  H18A16426   6.397   0.450   3.983  0.0776 -1.2803 -0.6152
  138CHL1  H18B16427   6.314   0.395   4.127 -0.0093  0.5984 -0.4012
  138CHL1  H18C16428   6.494   0.397   4.123  0.1062  1.4121  0.5681
  138CHL1   C1216429   6.530   0.213   3.912 -0.2010  0.0963 -0.1429
  138CHL1  H12A16430   6.623   0.246   3.961 -0.6414  0.5041  0.4263
  138CHL1  H12B16431   6.537   0.105   3.885 -0.0558 -0.3089  1.4523
  138CHL1   C1116432   6.508   0.292   3.783 -0.1527 -1.2679 -0.4244
  138CHL1  H11A16433   6.510   0.398   3.815 -2.0064 -0.8659 -1.5605
  138CHL1  H11B16434   6.593   0.289   3.711 -0.9413 -2.9077 -1.3377
  138CHL1    C916435   6.374   0.261   3.708 -0.8062  0.6819  0.4100
  138CHL1    H916436   6.396   0.157   3.677 -1.9073  1.0135 -1.6411
  138CHL1   C1016437   6.354   0.345   3.573 -0.5083 -0.4236 -0.4726
  138CHL1   C1916438   6.360   0.493   3.622  0.0780  0.1914 -0.0546
  138CHL1  H19A16439   6.459   0.522   3.665  0.1064  0.0448 -0.0184
  138CHL1  H19B16440   6.344   0.557   3.532 -1.7477  0.0667  0.1535
  138CHL1  H19C16441   6.274   0.515   3.688  0.5495 -1.3920  1.1416
  138CHL1    C116442   6.462   0.309   3.470  0.0503  0.4627  0.3084
  138CHL1   H1A16443   6.556   0.352   3.512  0.3392  0.8725 -0.7388
  138CHL1   H1B16444   6.492   0.203   3.459  1.3426  0.8537 -0.1010
  138CHL1    C216445   6.445   0.387   3.337  0.0240 -0.6390 -0.4905
  138CHL1   H2A16446   6.527   0.367   3.265 -0.9222  0.0872 -1.8187
  138CHL1   H2B16447   6.463   0.494   3.357 -0.8541 -0.7596  1.0978
  138CHL1   C2016448   6.483   0.155   4.252  0.5850  0.0467 -1.0049
  138CHL1   H2016449   6.450   0.253   4.292  2.2032 -0.8613  3.0078
  138CHL1   C2116450   6.632   0.160   4.214 -0.2663 -0.2133 -0.0279
  138CHL1  H21A16451   6.668   0.078   4.149 -0.8971 -0.0116 -0.6426
  138CHL1  H21B16452   6.687   0.143   4.309 -0.4667 -0.4361  0.0483
  138CHL1  H21C16453   6.660   0.263   4.183  1.5396  0.3863  3.1472
  138CHL1   C2216454   6.448   0.050   4.359 -0.0648 -0.3904  0.0087
  138CHL1  H22A16455   6.499   0.067   4.456 -0.2645 -0.2801  0.0961
  138CHL1  H22B16456   6.338   0.052   4.376 -0.2683  0.1663 -1.2376
  138CHL1   C2316457   6.484  -0.102   4.321 -0.1235 -0.5395  0.2209
  138CHL1  H23A16458   6.413  -0.130   4.241  1.7943  0.6546 -2.0281
  138CHL1  H23B16459   6.587  -0.110   4.281 -0.7383 -0.1791 -1.5113
  138CHL1   C2416460   6.470  -0.198   4.446 -0.1940 -0.1114  0.3051
  138CHL1  H24A16461   6.533  -0.166   4.533 -1.3439  2.4667  0.2692
  138CHL1  H24B16462   6.366  -0.197   4.484 -0.5507 -3.5730 -0.2034
  138CHL1   C2516463   6.491  -0.346   4.422 -0.3839 -0.1648  0.9811
  138CHL1   H2516464   6.443  -0.367   4.324  0.3186  1.2424  0.2909
  138CHL1   C2616465   6.639  -0.387   4.407 -0.5555 -0.6586  0.2848
  138CHL1  H26A16466   6.681  -0.324   4.326 -1.8973 -0.8569 -0.6115
  138CHL1  H26B16467   6.693  -0.365   4.502 -0.9073  0.0923  0.3173
  138CHL1  H26C16468   6.640  -0.496   4.385  0.1122 -0.5741 -0.1284
  138CHL1   C2716469   6.429  -0.418   4.533 -0.0632 -0.3907 -0.6682
  138CHL1  H27A16470   6.318  -0.420   4.526 -0.2258 -1.3164  1.5411
  138CHL1  H27B16471   6.464  -0.522   4.546  0.4251  0.0146  1.5717
  138CHL1  H27C16472   6.465  -0.366   4.624  3.0676 -0.6068 -1.6747
  139CHL1    C316473   0.214   6.521   3.624  0.2041  0.0477  0.5169
  139CHL1    H316474   0.117   6.467   3.624  0.1880 -0.0102 -1.7680
  139CHL1    O316475   0.272   6.549   3.493  0.6430  0.5319  0.1524
  139CHL1   H3'16476   0.359   6.508   3.488  0.5207 -0.0225  1.8017
  139CHL1    C416477   0.208   6.645   3.704 -0.0597 -0.0132  0.6180
  139CHL1   H4A16478   0.305   6.698   3.695  0.5495 -0.9148  1.6492
  139CHL1   H4B16479   0.134   6.713   3.657 -0.2151  0.1601  1.1115
  139CHL1    C516480   0.183   6.621   3.856 -0.2998  0.5313 -0.3499
  139CHL1    C616481   0.068   6.662   3.913 -0.3435 -0.5416 -0.8075
  139CHL1    H616482  -0.013   6.699   3.849 -0.7475 -1.5703 -0.9013
  139CHL1    C716483   0.037   6.637   4.062 -0.2798 -0.0245  0.1243
  139CHL1   H7A16484  -0.005   6.730   4.106  0.7463 -0.3727  1.9194
  139CHL1   H7B16485  -0.028   6.549   4.076  1.5106 -1.1507  1.8570
  139CHL1    C816486   0.170   6.609   4.142  0.1420  0.0801  0.0315
  139CHL1    H816487   0.222   6.707   4.146 -0.9361  0.6282  2.3343
  139CHL1   C1416488   0.139   6.565   4.283 -0.1352 -0.1237  0.2522
  139CHL1   H1416489   0.084   6.470   4.271  1.8821 -1.6833  2.3225
  139CHL1   C1516490   0.045   6.650   4.371 -0.2412  0.5201 -0.4726
  139CHL1  H15A16491   0.080   6.755   4.363 -0.7751  0.6721 -0.9203
  139CHL1  H15B16492  -0.065   6.648   4.351 -0.4540  0.0377  0.7110
  139CHL1   C1616493   0.070   6.600   4.514 -0.4737  0.0824  0.6105
  139CHL1  H16A16494   0.081   6.694   4.572 -0.7151  0.0144  0.7650
  139CHL1  H16B16495  -0.024   6.553   4.549 -0.6302  0.9928  1.4582
  139CHL1   C1716496   0.180   6.496   4.503  0.4887 -0.3328  0.5754
  139CHL1   H1716497   0.123   6.403   4.478 -1.2498  0.7651  0.3045
  139CHL1   C1316498   0.255   6.531   4.376  0.2421  0.2513  0.1548
  139CHL1   C1816499   0.343   6.659   4.390  0.1901  0.4141 -0.4071
  139CHL1  H18A16500   0.279   6.736   4.437  2.4646  1.0507  1.9203
  139CHL1  H18B16501   0.430   6.628   4.452 -0.9839 -1.0091  0.5833
  139CHL1  H18C16502   0.383   6.682   4.288  3.1097 -2.5246 -0.1218
  139CHL1   C1216503   0.331   6.416   4.306 -0.2127  0.7437  0.4351
  139CHL1  H12A16504   0.415   6.385   4.371 -0.4655 -0.6713  0.1080
  139CHL1  H12B16505   0.257   6.333   4.311  0.3463  0.1344 -0.8263
  139CHL1   C1116506   0.376   6.447   4.163 -0.8446 -0.0769 -0.0411
  139CHL1  H11A16507   0.455   6.525   4.168 -2.1200  1.3019 -0.9021
  139CHL1  H11B16508   0.419   6.358   4.111  1.6221  0.4275  0.9620
  139CHL1    C916509   0.260   6.506   4.080  0.3370 -0.2013  1.2053
  139CHL1    H916510   0.185   6.424   4.075 -1.2031  1.2252 -0.2111
  139CHL1   C1016511   0.293   6.544   3.933  0.2867 -0.2860  0.2144
  139CHL1   C1916512   0.420   6.625   3.939  0.2696 -0.5900  0.3112
  139CHL1  H19A16513   0.457   6.659   3.840  1.0245  0.4073  0.9185
  139CHL1  H19B16514   0.402   6.721   3.992  0.2321  0.0512 -0.8237
  139CHL1  H19C16515   0.509   6.569   3.975  0.5609 -1.1960 -1.2569
  139CHL1    C116516   0.305   6.419   3.850 -0.0792  0.4467  0.1358
  139CHL1   H1A16517   0.387   6.350   3.878 -1.2468 -0.6558  0.9220
  139CHL1   H1B16518   0.221   6.349   3.869 -1.6171  1.9739 -0.7023
  139CHL1    C216519   0.314   6.427   3.697 -0.4995 -0.9886  0.0910
  139CHL1   H2A16520   0.310   6.329   3.644 -0.6202 -0.6971 -0.4379
  139CHL1   H2B16521   0.414   6.470   3.675 -1.4010 -0.0243 -2.3954
  139CHL1   C2016522   0.266   6.480   4.626 -0.1726  0.4738  0.0909
  139CHL1   H2016523   0.368   6.522   4.618 -0.3164  1.2520  2.0056
  139CHL1   C2116524   0.287   6.332   4.635  0.3090  0.4625 -0.5351
  139CHL1  H21A16525   0.190   6.278   4.634  1.2551 -1.3493 -1.7848
  139CHL1  H21B16526   0.341   6.303   4.727  1.2994 -1.6337 -1.7085
  139CHL1  H21C16527   0.345   6.287   4.552  1.7928 -1.1904  1.3032
  139CHL1   C2216528   0.210   6.553   4.756  0.0149 -0.3306 -0.1956
  139CHL1  H22A16529   0.236   6.661   4.755  2.3471 -0.8145  1.0094
  139CHL1  H22B16530   0.099   6.549   4.760 -0.1479  2.3149 -0.4383
  139CHL1   C2316531   0.274   6.507   4.887  0.8394  0.5754  0.5103
  139CHL1  H23A16532   0.270   6.397   4.894  3.2762  0.5197  2.4673
  139CHL1  H23B16533   0.385   6.515   4.888  0.8819  0.0674  2.2901
  139CHL1   C2416534   0.208   6.573   5.007  0.0542 -0.6533  0.4491
  139CHL1  H24A16535   0.202   6.683   5.000  1.4990 -0.5972 -0.2710
  139CHL1  H24B16536   0.106   6.530   5.020 -1.1410  1.7128 -0.4543
  139CHL1   C2516537   0.283   6.530   5.138 -0.1382  0.2255  0.8668
  139CHL1   H2516538   0.389   6.555   5.118  0.0518 -1.2883 -0.1465
  139CHL1   C2616539   0.222   6.603   5.255  0.5816  0.5258 -0.2919
  139CHL1  H26A16540   0.119   6.565   5.269  0.0522  2.3514  1.2959
  139CHL1  H26B16541   0.273   6.586   5.353 -0.0742 -0.5539 -0.1235
  139CHL1  H26C16542   0.217   6.713   5.240 -3.1052  0.3457 -1.3843
  139CHL1   C2716543   0.281   6.377   5.157 -0.6289 -0.1679 -0.5095
  139CHL1  H27A16544   0.355   6.337   5.084  0.3774 -0.6765  0.7443
  139CHL1  H27B16545   0.324   6.349   5.256 -1.0304 -0.4846 -0.4211
  139CHL1  H27C16546   0.184   6.330   5.128 -0.3154 -0.9870 -0.2849
  140CHL1    C316547   6.824   0.559   3.438  0.5609 -0.6474 -0.8744
  140CHL1    H316548   6.730   0.501   3.450  0.8762 -0.7868  1.1456
  140CHL1    O316549   6.855   0.576   3.304 -0.2464 -0.8637 -0.5597
  140CHL1   H3'16550   6.951   0.567   3.307  0.1275  2.0293  3.3493
  140CHL1    C416551   6.808   0.699   3.505  0.3666  0.3311 -0.0190
  140CHL1   H4A16552   6.899   0.753   3.470 -0.0143  0.5007 -0.7676
  140CHL1   H4B16553   6.719   0.748   3.461  0.9502  1.6435  0.2060
  140CHL1    C516554   6.784   0.690   3.658  0.3031  0.2252 -0.1396
  140CHL1    C616555   6.678   0.745   3.714  0.0717 -0.0365 -0.4334
  140CHL1    H616556   6.612   0.805   3.649  0.3769  1.4645  0.5853
  140CHL1    C716557   6.642   0.748   3.860  0.1897  0.2223 -0.9743
  140CHL1   H7A16558   6.620   0.850   3.897  0.5132  0.1005 -0.4326
  140CHL1   H7B16559   6.558   0.675   3.869  2.8305 -2.7952  1.4179
  140CHL1    C816560   6.754   0.697   3.946  0.4829  0.0891 -0.1407
  140CHL1    H816561   6.827   0.779   3.958  1.5239 -0.9898  1.2910
  140CHL1   C1416562   6.703   0.662   4.084  0.4163  0.3849  0.3347
  140CHL1   H1416563   6.640   0.573   4.061  0.3744  0.9533 -1.9788
  140CHL1   C1516564   6.608   0.763   4.148  0.4502  0.1279  0.2177
  140CHL1  H15A16565   6.649   0.866   4.145  0.3763  0.1545  0.0557
  140CHL1  H15B16566   6.514   0.751   4.089  1.0066  0.7486 -0.8456
  140CHL1   C1616567   6.597   0.704   4.289  0.4489  0.0896  0.2292
  140CHL1  H16A16568   6.604   0.787   4.362 -2.8371 -0.9436  1.9061
  140CHL1  H16B16569   6.490   0.674   4.291  0.7115 -1.1550 -1.6115
  140CHL1   C1716570   6.706   0.591   4.303 -0.9146  0.6339 -0.3853
  140CHL1   H1716571   6.664   0.490   4.280  1.9188 -0.7165 -0.1447
  140CHL1   C1316572   6.804   0.611   4.181 -0.2164  0.0927  0.1758
  140CHL1   C1816573   6.898   0.730   4.216 -0.6983  0.2848 -0.5942
  140CHL1  H18A16574   6.985   0.702   4.278 -1.6390 -2.2963 -0.3038
  140CHL1  H18B16575   6.943   0.771   4.123  0.8708 -1.8393 -0.8641
  140CHL1  H18C16576   6.841   0.806   4.273 -0.2027 -0.0109  0.3101
  140CHL1   C1216577   6.888   0.485   4.122  0.3338 -0.3044  0.5751
  140CHL1  H12A16578   6.973   0.458   4.188  3.5008 -0.4017 -3.1378
  140CHL1  H12B16579   6.820   0.397   4.127  2.1214 -1.6529  3.2415
  140CHL1   C1116580   6.932   0.504   3.971 -0.3755  0.1628 -0.3772
  140CHL1  H11A16581   7.029   0.555   3.986 -0.2972  0.0221 -0.4121
  140CHL1  H11B16582   6.960   0.407   3.925 -1.1564  0.0138 -0.5530
  140CHL1    C916583   6.823   0.576   3.881  0.3618  0.0436 -0.1530
  140CHL1    H916584   6.742   0.502   3.866  1.0529 -1.0670  1.3793
  140CHL1   C1016585   6.881   0.605   3.742  0.3201 -0.0449  0.0757
  140CHL1   C1916586   7.007   0.688   3.752  1.0607 -0.1326  0.7104
  140CHL1  H19A16587   7.044   0.699   3.648  1.5634 -0.9484  0.7896
  140CHL1  H19B16588   6.997   0.789   3.799  0.0045  0.0336  0.1425
  140CHL1  H19C16589   7.084   0.629   3.807  0.8480 -1.7765 -0.6809
  140CHL1    C116590   6.903   0.467   3.663  0.1289  0.0828  0.4186
  140CHL1   H1A16591   6.981   0.397   3.702  2.2358  0.5806 -2.5131
  140CHL1   H1B16592   6.807   0.413   3.668 -0.7459  1.5872  0.3910
  140CHL1    C216593   6.934   0.476   3.508 -0.8705 -0.0869  0.4764
  140CHL1   H2A16594   6.920   0.377   3.460 -1.0549  0.0790  0.1798
  140CHL1   H2B16595   7.039   0.509   3.498 -1.3588  2.2937  2.1512
  140CHL1   C2016596   6.769   0.572   4.444 -0.5302  0.1822  0.2305
  140CHL1   H2016597   6.828   0.663   4.471 -2.4081  2.0483 -1.5684
  140CHL1   C2116598   6.850   0.442   4.455 -0.5961 -0.7070 -0.0722
  140CHL1  H21A16599   6.792   0.353   4.425  1.6789 -2.2026 -0.3314
  140CHL1  H21B16600   6.887   0.418   4.557 -0.3233 -1.3835 -0.3193
  140CHL1  H21C16601   6.941   0.444   4.391 -1.0858 -2.3870 -0.8782
  140CHL1   C2216602   6.667   0.577   4.563  0.3961  0.6466 -0.2265
  140CHL1  H22A16603   6.727   0.590   4.656  1.2359  0.8770 -0.7804
  140CHL1  H22B16604   6.608   0.670   4.549  1.3826  1.3973  0.4589
  140CHL1   C2316605   6.569   0.460   4.577  0.4444  0.5226  0.0679
  140CHL1  H23A16606   6.514   0.451   4.481 -0.8428  1.6521  0.6777
  140CHL1  H23B16607   6.642   0.376   4.589 -0.0150  0.0757 -0.2107
  140CHL1   C2416608   6.482   0.452   4.703  0.1427 -0.0533 -0.4315
  140CHL1  H24A16609   6.549   0.439   4.791  3.0471  0.6299 -2.4022
  140CHL1  H24B16610   6.423   0.546   4.714 -1.9550 -1.0940 -2.1580
  140CHL1   C2516611   6.375   0.334   4.703 -0.2770 -0.0930 -1.0877
  140CHL1   H2516612   6.438   0.245   4.678 -0.4942 -0.6205  0.1788
  140CHL1   C2616613   6.269   0.345   4.593 -0.4483 -0.0211  0.2258
  140CHL1  H26A16614   6.329   0.345   4.500  0.7176  2.2703  0.8949
  140CHL1  H26B16615   6.189   0.269   4.602  0.5730 -1.5309 -2.4964
  140CHL1  H26C16616   6.226   0.447   4.599  0.0141  0.1833  0.1107
  140CHL1   C2716617   6.314   0.317   4.840  0.3827 -0.2467  0.0545
  140CHL1  H27A16618   6.260   0.409   4.869  0.0547 -1.4929  3.9213
  140CHL1  H27B16619   6.235   0.238   4.838  1.4301 -1.3207 -1.3153
  140CHL1  H27C16620   6.394   0.297   4.914  0.6885 -0.0359 -0.2184
  141DOPC     N16621   4.893   3.217   7.496 -0.3802 -0.2129 -0.0098
  141DOPC   C1216622   5.029   3.179   7.438  0.1790 -0.3673  0.0293
  141DOPC  H12A16623   5.086   3.137   7.519 -1.2772 -1.2601  0.6294
  141DOPC  H12B16624   5.077   3.270   7.406 -0.5255  0.8882  2.3294
  141DOPC   C1316625   4.904   3.309   7.616  0.0780  0.3810 -0.2121
  141DOPC  H13A16626   4.916   3.409   7.579  1.6937  1.0756  1.9822
  141DOPC  H13B16627   4.810   3.304   7.668  0.1778 -1.8512 -0.1483
  141DOPC  H13C16628   4.991   3.277   7.672  0.7456 -0.3800 -1.6175
  141DOPC   C1416629   4.830   3.088   7.547  0.1499  0.0246 -0.6078
  141DOPC  H14A16630   4.805   3.023   7.465  0.2020 -0.6071 -0.1385
  141DOPC  H14B16631   4.900   3.038   7.613 -0.3977 -0.0617 -0.0788
  141DOPC  H14C16632   4.739   3.112   7.600  2.1708  2.2494  2.2293
  141DOPC   C1516633   4.803   3.297   7.406 -0.1582 -0.1808  0.4764
  141DOPC  H15A16634   4.729   3.238   7.352  0.5911 -1.4483  0.7986
  141DOPC  H15B16635   4.861   3.349   7.332 -1.9682 -0.1094 -0.9796
  141DOPC  H15C16636   4.741   3.367   7.460  1.4100  0.1849  1.8581
  141DOPC   C1116637   5.045   3.070   7.330 -0.1156  0.1095 -0.9886
  141DOPC  H11A16638   5.146   3.071   7.284  0.5960 -2.2103  0.3533
  141DOPC  H11B16639   5.037   2.974   7.386  0.2983 -0.3641 -1.7202
  141DOPC     P16640   4.894   2.945   7.156 -0.2681  0.1007 -0.2964
  141DOPC   O1316641   4.787   2.991   7.062  0.1426  0.6196  0.9006
  141DOPC   O1416642   4.859   2.849   7.267 -0.0247 -0.4761  0.4294
  141DOPC   O1216643   4.959   3.078   7.224  0.0035  0.7236 -0.1476
  141DOPC   O1116644   5.025   2.894   7.078  0.5312  0.5024 -0.0398
  141DOPC    C116645   5.083   2.990   6.988 -0.3263 -0.1940 -0.2016
  141DOPC    HA16646   5.185   3.013   7.027 -0.5085  0.9063 -0.3386
  141DOPC    HB16647   5.023   3.083   6.974  1.0547  1.1812  2.2753
  141DOPC    C216648   5.101   2.933   6.847 -0.4370  0.1155 -0.1172
  141DOPC    HS16649   5.147   3.013   6.785 -1.4114 -1.3706 -2.9031
  141DOPC   O2116650   4.985   2.882   6.784  0.2484  0.4500  0.0644
  141DOPC   C2116651   4.880   2.956   6.765  0.5081 -0.0952  0.3450
  141DOPC   O2216652   4.863   3.075   6.788 -0.7646 -0.2594 -0.0043
  141DOPC   C2216653   4.764   2.872   6.707  0.5462 -0.4794 -0.4289
  141DOPC   H2R16654   4.674   2.933   6.728  0.1011 -1.0382 -0.6845
  141DOPC   H2S16655   4.755   2.776   6.762  0.6560 -0.4075 -0.2855
  141DOPC    C316656   5.202   2.817   6.856  0.4312 -0.0096  0.4414
  141DOPC    HX16657   5.152   2.740   6.918 -0.0628  1.0282  1.3746
  141DOPC    HY16658   5.298   2.848   6.903 -0.1972 -1.8009  3.0737
  141DOPC   O3116659   5.234   2.773   6.726  0.0803 -0.0346  0.0073
  141DOPC   C3116660   5.162   2.683   6.663  0.0819 -0.2761  0.4029
  141DOPC   O3216661   5.072   2.619   6.714  0.1345 -0.3877  0.3485
  141DOPC   C3216662   5.227   2.658   6.523  0.7568 -0.0595  0.5261
  141DOPC   H2X16663   5.205   2.752   6.468  3.5147  0.2594 -0.1954
  141DOPC   H2Y16664   5.337   2.665   6.540  0.6110  0.5932  1.2559
  141DOPC   C2316665   4.754   2.859   6.556  0.1745  0.5022  0.1554
  141DOPC   H3R16666   4.788   2.945   6.495  2.3956 -0.2593  0.2155
  141DOPC   H3S16667   4.646   2.850   6.536 -0.0185 -0.8893  1.5589
  141DOPC   C2416668   4.812   2.727   6.501  0.6433 -0.5465 -0.0812
  141DOPC   H4R16669   4.762   2.636   6.540  0.1358  0.1892  1.0447
  141DOPC   H4S16670   4.915   2.718   6.541  1.5630  2.1193 -1.5494
  141DOPC   C2516671   4.812   2.708   6.349 -0.2938  0.2094  0.3462
  141DOPC   H5R16672   4.718   2.747   6.305  0.1565  1.3967  0.3751
  141DOPC   H5S16673   4.814   2.600   6.324  2.4645  0.2591 -0.0543
  141DOPC   C2616674   4.932   2.785   6.280  0.5968  0.6524 -0.3488
  141DOPC   H6R16675   5.026   2.734   6.311 -0.0285 -0.3423 -0.0445
  141DOPC   H6S16676   4.940   2.886   6.327 -0.7256  0.7393 -0.2694
  141DOPC   C2716677   4.907   2.796   6.130 -0.2111  0.0562  0.6669
  141DOPC   H7R16678   4.828   2.870   6.101  0.2697 -0.1027 -1.1888
  141DOPC   H7S16679   4.868   2.704   6.083  0.6069 -0.0250  0.1220
  141DOPC   C2816680   5.044   2.836   6.058 -0.1912 -0.0263 -0.9062
  141DOPC   H8R16681   5.105   2.885   6.137 -0.5306 -0.7702 -0.1601
  141DOPC   H8S16682   5.013   2.913   5.984  0.0463  1.5090  0.5152
  141DOPC   C2916683   5.117   2.722   6.002 -0.5652  0.0534 -0.7926
  141DOPC   H9R16684   5.179   2.665   6.072 -1.1654  1.1023  0.6406
  141DOPC  C21016685   5.092   2.685   5.875  0.0577  0.4471  0.5796
  141DOPC  H10R16686   5.131   2.585   5.852 -0.0071  0.3829  0.7485
  141DOPC  C21116687   5.018   2.753   5.760  0.2532 -1.0875  1.1872
  141DOPC  H11R16688   4.933   2.816   5.794  0.7735 -0.6373  1.6874
  141DOPC  H11S16689   4.986   2.679   5.683  0.6719 -1.5209  1.4206
  141DOPC  C21216690   5.114   2.852   5.690 -0.4861  0.0412  0.2305
  141DOPC  H12R16691   5.219   2.819   5.671 -0.5397 -0.2484  0.4362
  141DOPC  H12S16692   5.122   2.934   5.764 -0.8713 -2.3126  3.0877
  141DOPC  C21316693   5.065   2.917   5.557  0.0485  0.3665  0.7865
  141DOPC  H13R16694   5.141   2.982   5.509 -1.0156 -0.2271 -1.9205
  141DOPC  H13S16695   4.962   2.959   5.560 -0.7717 -1.5353  0.8257
  141DOPC  C21416696   5.044   2.807   5.447  0.6547  0.5287 -0.2037
  141DOPC  H14R16697   4.955   2.743   5.466  1.5204 -0.7142 -0.2193
  141DOPC  H14S16698   5.122   2.728   5.449 -0.3101 -0.6845 -3.4534
  141DOPC  C21516699   5.043   2.858   5.305  0.1380 -0.2010  0.2825
  141DOPC  H15R16700   5.148   2.883   5.280  1.0369 -0.5325  3.3601
  141DOPC  H15S16701   4.980   2.949   5.297  1.4750  0.6986 -0.3584
  141DOPC  C21616702   4.989   2.758   5.198 -0.1013  0.1778  0.1571
  141DOPC  H16R16703   4.984   2.819   5.106 -2.3827  0.1138  0.1901
  141DOPC  H16S16704   4.884   2.730   5.223 -0.7111  0.7527 -1.6286
  141DOPC  C21716705   5.070   2.626   5.196 -0.8632 -0.2042 -0.9616
  141DOPC  H17R16706   5.049   2.569   5.289  2.4159 -0.9395 -0.5380
  141DOPC  H17S16707   5.170   2.674   5.197 -0.5075 -0.8809 -1.9254
  141DOPC  C21816708   5.053   2.542   5.071  0.2450 -0.4231  0.0701
  141DOPC  H18R16709   4.945   2.518   5.057  0.4191 -0.4332 -1.4591
  141DOPC  H18S16710   5.097   2.441   5.086  2.6838  0.6136  0.3088
  141DOPC  H18T16711   5.082   2.601   4.982 -0.3612 -0.9340 -0.4746
  141DOPC   C3316712   5.175   2.543   6.442  0.5796  0.0853  0.4130
  141DOPC   H3X16713   5.068   2.548   6.410  0.4714 -1.7435  0.3865
  141DOPC   H3Y16714   5.170   2.455   6.510  0.6486  1.7968  2.7441
  141DOPC   C3416715   5.265   2.511   6.325 -0.4857  0.1850  0.8533
  141DOPC   H4X16716   5.363   2.466   6.353  0.6421  2.1590  0.3057
  141DOPC   H4Y16717   5.282   2.609   6.274  0.8462 -0.0172  0.8711
  141DOPC   C3516718   5.200   2.414   6.227  0.0244 -0.3026  0.7817
  141DOPC   H5X16719   5.111   2.460   6.179 -0.3945 -1.7936  0.0554
  141DOPC   H5Y16720   5.162   2.320   6.272 -0.2646 -1.2707 -1.3783
  141DOPC   C3616721   5.297   2.382   6.113 -0.1840  0.0898  0.5757
  141DOPC   H6X16722   5.341   2.476   6.074  0.6485 -1.5136 -2.7052
  141DOPC   H6Y16723   5.383   2.320   6.144  2.0324  0.9066 -3.2546
  141DOPC   C3716724   5.245   2.305   5.988 -0.0246 -0.2817  0.1665
  141DOPC   H7X16725   5.197   2.216   6.035  0.4818  0.5246  2.3060
  141DOPC   H7Y16726   5.167   2.367   5.939  0.8286 -1.4556 -2.8645
  141DOPC   C3816727   5.348   2.267   5.878 -0.1705 -0.0637 -0.1303
  141DOPC   H8X16728   5.425   2.199   5.920  0.3356  0.4540 -0.2099
  141DOPC   H8Y16729   5.394   2.366   5.860 -3.3691  1.3539 -1.1616
  141DOPC   C3916730   5.275   2.223   5.752 -0.0547  1.1151 -0.2275
  141DOPC   H9X16731   5.241   2.119   5.762  0.4984  1.0017  0.5565
  141DOPC  C31016732   5.257   2.288   5.636 -0.9625  0.5105 -0.3842
  141DOPC  H10X16733   5.206   2.239   5.552 -1.2301 -1.4595  0.8604
  141DOPC  C31116734   5.297   2.436   5.608 -0.2710 -0.1920  0.0503
  141DOPC  H11X16735   5.406   2.444   5.631 -0.1118 -0.2882 -0.6344
  141DOPC  H11Y16736   5.250   2.502   5.683  0.3126  1.0134 -0.6193
  141DOPC  C31216737   5.284   2.490   5.458 -0.1663  0.2351 -0.0587
  141DOPC  H12X16738   5.299   2.601   5.460 -3.7384  0.8919 -1.8587
  141DOPC  H12Y16739   5.182   2.463   5.425  0.2870 -1.0857 -0.4294
  141DOPC  C31316740   5.394   2.444   5.363 -0.0917 -0.1360 -0.1013
  141DOPC  H13X16741   5.493   2.483   5.395  0.6727 -2.9882  1.2810
  141DOPC  H13Y16742   5.390   2.333   5.370  0.5781 -0.1111  0.7687
  141DOPC  C31416743   5.383   2.475   5.208 -0.3191  0.4680 -0.2857
  141DOPC  H14X16744   5.293   2.422   5.170 -0.4210 -1.3814  2.2715
  141DOPC  H14Y16745   5.375   2.586   5.206  1.5556  0.6253 -1.0520
  141DOPC  C31516746   5.499   2.429   5.119 -0.0169  1.1400 -0.4426
  141DOPC  H15X16747   5.510   2.319   5.132 -0.0925  1.2664  0.8118
  141DOPC  H15Y16748   5.585   2.490   5.154  1.8697 -1.2445 -0.6965
  141DOPC  C31616749   5.461   2.454   4.977  0.2728  0.2129 -0.7957
  141DOPC  H16X16750   5.361   2.412   4.954 -0.6836  3.2376 -2.7900
  141DOPC  H16Y16751   5.461   2.561   4.947  1.2271  0.3623 -0.2906
  141DOPC  C31716752   5.560   2.396   4.873 -0.4479  0.1759 -0.0504
  141DOPC  H17X16753   5.559   2.286   4.886 -0.8747  0.2155  0.2936
  141DOPC  H17Y16754   5.511   2.423   4.777 -1.0861 -2.0529 -0.3966
  141DOPC  C31816755   5.707   2.444   4.870  0.3093 -0.2748  0.1318
  141DOPC  H18X16756   5.772   2.388   4.800 -0.3133  0.4510 -1.0447
  141DOPC  H18Y16757   5.698   2.551   4.843  0.6447 -0.2066  0.2850
  141DOPC  H18Z16758   5.746   2.434   4.974 -2.1793 -2.6281  0.9640
  142DOPC     N16759   6.123   2.947   7.220  0.1292  0.2779  0.0173
  142DOPC   C1216760   6.130   3.025   7.088  0.4036  0.1247  0.6594
  142DOPC  H12A16761   6.232   3.059   7.074  0.6488 -1.1297 -0.9742
  142DOPC  H12B16762   6.066   3.110   7.103  0.1575  0.3066 -1.1971
  142DOPC   C1316763   6.186   3.020   7.330  0.1098 -1.0339  0.0597
  142DOPC  H13A16764   6.163   3.125   7.323 -0.3005 -1.1882 -1.1895
  142DOPC  H13B16765   6.156   2.975   7.424  0.1995 -0.9489  0.1287
  142DOPC  H13C16766   6.293   3.024   7.324  0.0377  0.2790 -0.5571
  142DOPC   C1416767   6.193   2.816   7.212 -0.7823  0.2489 -0.5214
  142DOPC  H14A16768   6.183   2.760   7.304 -1.4896  2.5249  0.8654
  142DOPC  H14B16769   6.152   2.755   7.133 -0.9291  1.2599 -1.2546
  142DOPC  H14C16770   6.297   2.832   7.187 -0.3511 -0.0268  0.9945
  142DOPC   C1516771   5.973   2.923   7.236 -0.2018  0.5768 -0.1457
  142DOPC  H15A16772   5.958   2.866   7.327  4.8085 -3.1368 -1.1772
  142DOPC  H15B16773   5.935   2.866   7.152  0.1198 -0.9279  0.6889
  142DOPC  H15C16774   5.914   3.013   7.248  0.8388  1.5438 -1.9201
  142DOPC   C1116775   6.088   2.958   6.948  0.1688  0.0893 -0.0148
  142DOPC  H11A16776   6.112   3.038   6.875  2.1522 -0.4025  0.0306
  142DOPC  H11B16777   6.166   2.883   6.920  2.2146  2.2365 -0.4224
  142DOPC     P16778   5.840   3.004   6.879  0.2122  0.2485 -0.4639
  142DOPC   O1316779   5.833   3.134   6.946  0.0126  0.2466  0.4456
  142DOPC   O1416780   5.715   2.925   6.883 -0.3700 -0.2721 -0.0940
  142DOPC   O1216781   5.957   2.909   6.944  1.0155 -0.3138 -0.0336
  142DOPC   O1116782   5.880   3.028   6.729 -0.2150 -0.0367 -0.4669
  142DOPC    C116783   5.942   2.923   6.655 -0.6465  0.0524  0.0477
  142DOPC    HA16784   5.871   2.839   6.640 -0.9065 -0.2075  2.4112
  142DOPC    HB16785   6.032   2.881   6.706 -0.5190 -2.4303 -2.0511
  142DOPC    C216786   5.992   2.970   6.512  0.5228  0.1655 -0.1148
  142DOPC    HS16787   6.088   2.919   6.489  0.7866  0.6303 -0.0477
  142DOPC   O2116788   6.015   3.108   6.506 -0.4774 -0.0896  0.0966
  142DOPC   C2116789   6.125   3.144   6.577 -0.2426  0.3755 -0.6260
  142DOPC   O2216790   6.212   3.068   6.618  0.1687 -0.3024  0.5275
  142DOPC   C2216791   6.117   3.294   6.600  0.0762 -0.1428  0.0899
  142DOPC   H2R16792   6.086   3.306   6.706  0.5626  1.0926  0.1183
  142DOPC   H2S16793   6.036   3.339   6.539  0.0168  1.5612  1.3385
  142DOPC    C316794   5.892   2.946   6.397 -0.1751  0.2047 -0.5130
  142DOPC    HX16795   5.794   2.999   6.405  0.0781  0.7096 -0.7244
  142DOPC    HY16796   5.871   2.838   6.404 -1.1538  0.3657 -0.8027
  142DOPC   O3116797   5.945   2.979   6.270  0.2582  0.7595 -0.3719
  142DOPC   C3116798   6.014   2.870   6.215 -0.3395  0.2073 -0.5779
  142DOPC   O3216799   6.027   2.765   6.270  0.5704 -0.0286  0.6603
  142DOPC   C3216800   6.066   2.910   6.073 -0.2549  0.1336 -0.5886
  142DOPC   H2X16801   6.017   3.006   6.042 -0.2476  0.6163  0.8243
  142DOPC   H2Y16802   6.175   2.929   6.076 -0.2726  0.3684 -1.3392
  142DOPC   C2316803   6.250   3.375   6.573  0.2334  0.0071 -0.0599
  142DOPC   H3R16804   6.333   3.311   6.611 -0.2250 -2.2600 -2.5183
  142DOPC   H3S16805   6.245   3.468   6.632 -0.6258  0.2773 -0.5387
  142DOPC   C2416806   6.275   3.422   6.424 -0.5606  0.2148 -0.0468
  142DOPC   H4R16807   6.361   3.493   6.425 -0.5816  0.2392  0.5976
  142DOPC   H4S16808   6.190   3.482   6.386 -1.0372  0.3134  1.1034
  142DOPC   C2516809   6.312   3.311   6.321  0.4018 -0.5325 -0.2641
  142DOPC   H5R16810   6.228   3.239   6.326 -0.5458  0.5295 -0.4407
  142DOPC   H5S16811   6.403   3.250   6.343  0.6466 -0.6709 -1.5630
  142DOPC   C2616812   6.333   3.362   6.182  0.2572 -0.3416  1.0473
  142DOPC   H6R16813   6.414   3.438   6.182  0.7189 -0.8157  0.1924
  142DOPC   H6S16814   6.244   3.415   6.142  1.6482 -0.1903 -2.1653
  142DOPC   C2716815   6.366   3.251   6.078  0.7861 -0.5016 -0.2804
  142DOPC   H7R16816   6.305   3.165   6.112 -2.0822  1.3811 -0.2934
  142DOPC   H7S16817   6.475   3.230   6.080  0.8620 -0.0653  1.0430
  142DOPC   C2816818   6.335   3.294   5.941  0.3348  0.1556  0.4716
  142DOPC   H8R16819   6.402   3.373   5.900 -0.9547  1.6389  1.1120
  142DOPC   H8S16820   6.239   3.348   5.930 -0.5987 -1.9509 -3.8014
  142DOPC   C2916821   6.342   3.176   5.850 -0.2802 -0.0509  0.0575
  142DOPC   H9R16822   6.363   3.081   5.901  1.3771  1.8363  3.2245
  142DOPC  C21016823   6.342   3.177   5.714  0.3376 -0.0818  0.4180
  142DOPC  H10R16824   6.363   3.080   5.666 -3.0578 -0.8563  0.2675
  142DOPC  C21116825   6.326   3.303   5.632  0.2020 -0.8377  0.2290
  142DOPC  H11R16826   6.286   3.391   5.687  0.2799 -0.2182 -0.6852
  142DOPC  H11S16827   6.256   3.294   5.547  1.2288  2.3041 -1.0826
  142DOPC  C21216828   6.462   3.336   5.566  0.6454  0.0094 -0.1093
  142DOPC  H12R16829   6.534   3.346   5.651  0.7060  1.8916 -0.3300
  142DOPC  H12S16830   6.447   3.433   5.514  1.7890 -0.9605 -2.3681
  142DOPC  C21316831   6.514   3.241   5.467  0.3812 -0.5023 -0.0556
  142DOPC  H13R16832   6.545   3.141   5.505  0.2798  0.3534  2.4836
  142DOPC  H13S16833   6.607   3.289   5.430  0.4019  0.2286  0.9145
  142DOPC  C21416834   6.425   3.218   5.340 -0.2628 -0.0527  0.3094
  142DOPC  H14R16835   6.320   3.203   5.371 -1.0289  0.4767 -1.8056
  142DOPC  H14S16836   6.443   3.123   5.284 -0.0458 -0.3767  0.9270
  142DOPC  C21516837   6.432   3.336   5.245 -0.5715  0.4015  0.1511
  142DOPC  H15R16838   6.539   3.367   5.239 -0.3749 -0.2443  0.1936
  142DOPC  H15S16839   6.367   3.414   5.289 -2.1934 -0.1568 -1.1820
  142DOPC  C21616840   6.389   3.293   5.099 -0.0212  0.2209  0.4825
  142DOPC  H16R16841   6.300   3.228   5.108 -0.6657  0.8971 -0.8246
  142DOPC  H16S16842   6.480   3.242   5.060  0.5214  0.4350  1.4117
  142DOPC  C21716843   6.331   3.413   5.023  0.5505 -0.0863  0.2172
  142DOPC  H17R16844   6.327   3.375   4.918 -0.3850 -1.6061  0.7740
  142DOPC  H17S16845   6.397   3.502   5.023  1.1356 -0.5018  1.2213
  142DOPC  C21816846   6.193   3.449   5.071 -0.3468  0.5193 -0.1799
  142DOPC  H18R16847   6.147   3.539   5.025 -0.6118 -0.7627 -2.5637
  142DOPC  H18S16848   6.193   3.454   5.182  0.4143 -0.6058 -0.1036
  142DOPC  H18T16849   6.119   3.369   5.051  1.1130 -0.4339 -2.0717
  142DOPC   C3316850   6.042   2.796   5.964  0.0131  0.1267 -0.4372
  142DOPC   H3X16851   5.932   2.790   5.955  0.0224 -2.7522  0.4319
  142DOPC   H3Y16852   6.081   2.702   6.008 -0.3924  0.3335  0.3745
  142DOPC   C3416853   6.114   2.832   5.831  0.1025  0.0768  0.0571
  142DOPC   H4X16854   6.215   2.785   5.835 -0.0021 -0.4158 -2.0151
  142DOPC   H4Y16855   6.132   2.941   5.824  1.5142 -0.2524 -3.2817
  142DOPC   C3516856   6.040   2.798   5.700  0.3491  0.2902 -0.1723
  142DOPC   H5X16857   5.951   2.864   5.687 -1.1589 -2.0307 -2.7498
  142DOPC   H5Y16858   5.997   2.698   5.719  2.4263 -0.4750  0.7642
  142DOPC   C3616859   6.121   2.784   5.574  0.0732 -0.3710  0.0431
  142DOPC   H6X16860   6.170   2.881   5.549 -0.4934 -0.2602 -0.6817
  142DOPC   H6Y16861   6.201   2.707   5.584  1.2469  0.7654 -0.3151
  142DOPC   C3716862   6.027   2.753   5.458 -0.8753 -0.4434  0.5653
  142DOPC   H7X16863   5.995   2.646   5.461 -0.2041 -0.6582  0.3489
  142DOPC   H7Y16864   5.942   2.824   5.468  0.3566  1.1657 -0.0063
  142DOPC   C3816865   6.105   2.766   5.326 -0.1607 -0.1613 -0.2522
  142DOPC   H8X16866   6.178   2.682   5.319 -0.2064 -0.1035 -1.5371
  142DOPC   H8Y16867   6.164   2.860   5.332 -0.3047 -0.0152 -1.1181
  142DOPC   C3916868   6.012   2.747   5.203  0.2492  0.1453 -0.5782
  142DOPC   H9X16869   5.928   2.679   5.217 -0.2191  0.9231  0.4660
  142DOPC  C31016870   6.033   2.813   5.087  0.1492 -0.0052 -0.3247
  142DOPC  H10X16871   5.956   2.803   5.010 -1.2274  2.1831  0.6765
  142DOPC  C31116872   6.134   2.923   5.060  0.1052 -0.5970  0.0994
  142DOPC  H11X16873   6.195   2.957   5.146  0.5061 -0.3049 -0.2968
  142DOPC  H11Y16874   6.081   3.014   5.026  1.4342 -0.0442 -0.5781
  142DOPC  C31216875   6.235   2.883   4.948  0.4110  0.1200 -0.4623
  142DOPC  H12X16876   6.172   2.860   4.860 -3.2879  3.7317  0.9173
  142DOPC  H12Y16877   6.293   2.793   4.978  0.9943  0.2247 -1.2489
  142DOPC  C31316878   6.336   2.993   4.909 -0.0617 -0.1694 -0.4044
  142DOPC  H13X16879   6.271   3.073   4.867  0.0155  0.4002  0.5281
  142DOPC  H13Y16880   6.381   3.035   5.002 -3.3924  1.6607  0.5535
  142DOPC  C31416881   6.446   2.949   4.805 -0.5317 -0.2040 -0.1460
  142DOPC  H14X16882   6.404   2.958   4.702 -0.9570  0.7228  0.0938
  142DOPC  H14Y16883   6.531   3.021   4.801 -0.6511 -0.0673 -0.2438
  142DOPC  C31516884   6.480   2.804   4.823 -0.4376 -0.4134 -0.6383
  142DOPC  H15X16885   6.548   2.774   4.739 -1.0992 -4.8985  0.1693
  142DOPC  H15Y16886   6.404   2.724   4.827 -1.5698  0.5686 -1.8097
  142DOPC  C31616887   6.569   2.783   4.955 -0.3375  0.2747 -0.4268
  142DOPC  H16X16888   6.514   2.831   5.039  0.2349  0.6163 -0.2389
  142DOPC  H16Y16889   6.581   2.674   4.974  0.1328  0.6000  1.3031
  142DOPC  C31716890   6.704   2.865   4.957 -0.0092  0.3473 -1.0696
  142DOPC  H17X16891   6.751   2.838   4.860  0.0153 -0.5347 -0.8234
  142DOPC  H17Y16892   6.696   2.975   4.965  0.0769  0.3291 -0.7255
  142DOPC  C31816893   6.791   2.821   5.075 -0.1152  0.3134  0.1131
  142DOPC  H18X16894   6.745   2.843   5.174 -0.8837  0.5883 -0.3017
  142DOPC  H18Y16895   6.815   2.713   5.065  2.3956  0.7397  0.6850
  142DOPC  H18Z16896   6.886   2.878   5.066 -1.8092  3.2781 -0.1023
  143DOPC     N16897   2.952   4.068   7.861  0.0298 -0.4479  0.2199
  143DOPC   C1216898   2.897   3.957   7.773  0.6404 -0.2159  0.5839
  143DOPC  H12A16899   2.794   3.946   7.802  0.0321  0.4333 -1.1809
  143DOPC  H12B16900   2.933   3.860   7.802  0.2383 -0.4476  0.3218
  143DOPC   C1316901   3.102   4.064   7.858  0.1008 -0.4821 -0.1691
  143DOPC  H13A16902   3.144   4.154   7.900  1.6243 -2.2515  2.4260
  143DOPC  H13B16903   3.140   3.970   7.896  0.9515 -0.4593 -0.9296
  143DOPC  H13C16904   3.135   4.075   7.756 -2.0046  1.3515 -0.7131
  143DOPC   C1416905   2.902   4.041   7.998 -0.6460  0.3547 -0.5990
  143DOPC  H14A16906   2.802   4.002   7.998 -0.3665 -0.3923  0.2463
  143DOPC  H14B16907   2.963   3.971   8.053 -0.0565  0.9080 -0.5293
  143DOPC  H14C16908   2.903   4.132   8.057  1.6898 -0.3583  0.5731
  143DOPC   C1516909   2.903   4.197   7.808 -0.5054  0.3558 -0.0880
  143DOPC  H15A16910   2.797   4.203   7.786 -0.7152  1.3086  1.0758
  143DOPC  H15B16911   2.947   4.213   7.711 -0.4674  0.3439 -0.0726
  143DOPC  H15C16912   2.929   4.282   7.870  1.3804 -0.4372  0.2712
  143DOPC   C1116913   2.900   3.958   7.617  0.3859  0.1122  0.4103
  143DOPC  H11A16914   2.851   3.862   7.589  0.9536 -0.4251  1.1957
  143DOPC  H11B16915   2.847   4.039   7.564  0.6990  0.2640  0.3289
  143DOPC     P16916   3.103   4.037   7.483  0.0204 -0.0467 -0.0783
  143DOPC   O1316917   3.248   4.024   7.497 -0.3246  0.0573  0.8195
  143DOPC   O1416918   3.049   4.172   7.492 -0.5515 -0.3563 -0.2779
  143DOPC   O1216919   3.038   3.948   7.594 -0.2108  0.2910  0.0185
  143DOPC   O1116920   3.057   3.965   7.348  0.0191 -0.3245 -0.0012
  143DOPC    C116921   3.073   3.826   7.329  0.5422 -0.8676 -0.5773
  143DOPC    HA16922   2.987   3.789   7.269 -0.7455  0.6086  0.2968
  143DOPC    HB16923   3.070   3.770   7.424 -3.5524  1.4533  0.8969
  143DOPC    C216924   3.186   3.786   7.232  0.8197 -0.4090  0.5313
  143DOPC    HS16925   3.285   3.808   7.276  1.7348 -3.4086  0.2027
  143DOPC   O2116926   3.164   3.855   7.101  0.4449 -0.6542 -0.4126
  143DOPC   C2116927   3.268   3.898   7.032  0.3875  0.1040 -0.6508
  143DOPC   O2216928   3.384   3.895   7.066  0.1605  0.5200 -0.5391
  143DOPC   C2216929   3.211   3.951   6.905  0.5925 -0.5508  0.1213
  143DOPC   H2R16930   3.161   4.046   6.930 -0.3138 -0.9919  0.0205
  143DOPC   H2S16931   3.130   3.880   6.876 -0.7513  0.5298  1.1144
  143DOPC    C316932   3.183   3.632   7.207 -0.5860  0.4837 -0.7150
  143DOPC    HX16933   3.078   3.608   7.177 -1.4548  3.2703 -0.1895
  143DOPC    HY16934   3.189   3.571   7.300 -0.4872  0.6512 -0.6104
  143DOPC   O3116935   3.284   3.588   7.115 -0.2731  0.6782 -0.6395
  143DOPC   C3116936   3.251   3.575   6.990 -0.0507  0.4548 -0.3993
  143DOPC   O3216937   3.139   3.587   6.941  0.2604 -0.1049 -0.2212
  143DOPC   C3216938   3.378   3.555   6.911 -0.2306  0.6858  0.5573
  143DOPC   H2X16939   3.450   3.637   6.934 -1.4720  1.8225  0.4911
  143DOPC   H2Y16940   3.424   3.457   6.935  0.3004  0.6672 -0.4728
  143DOPC   C2316941   3.320   3.976   6.797 -0.3514  0.1457 -0.0576
  143DOPC   H3R16942   3.350   3.876   6.757  1.9251  0.8318 -0.2036
  143DOPC   H3S16943   3.408   4.023   6.845 -0.8750  0.0176  1.0465
  143DOPC   C2416944   3.257   4.058   6.675 -0.0590  0.5227  0.3318
  143DOPC   H4R16945   3.270   4.164   6.705  2.4385  0.2440  0.4796
  143DOPC   H4S16946   3.151   4.042   6.644 -0.0104 -0.2463  0.5486
  143DOPC   C2516947   3.351   4.047   6.553  0.0796  0.6007 -0.6998
  143DOPC   H5R16948   3.458   4.071   6.575 -0.0565  1.1457 -0.6092
  143DOPC   H5S16949   3.315   4.126   6.484  0.3738  0.6520 -0.7967
  143DOPC   C2616950   3.345   3.919   6.475  0.0300  0.2134  0.8556
  143DOPC   H6R16951   3.236   3.900   6.461  0.1890 -0.4980  0.5616
  143DOPC   H6S16952   3.387   3.841   6.541  0.1095 -2.5486 -2.2186
  143DOPC   C2716953   3.411   3.913   6.333 -0.3965 -0.4452  0.0788
  143DOPC   H7R16954   3.519   3.938   6.346 -0.1889 -1.0051 -0.5030
  143DOPC   H7S16955   3.363   3.992   6.272 -0.3791 -0.1536  0.4403
  143DOPC   C2816956   3.403   3.773   6.262  0.2013  0.3300  0.2458
  143DOPC   H8R16957   3.299   3.734   6.270 -0.0424  0.8062 -0.4626
  143DOPC   H8S16958   3.469   3.705   6.319  2.1054 -0.0275 -2.2095
  143DOPC   C2916959   3.441   3.781   6.117  0.4278 -0.5286  0.3278
  143DOPC   H9R16960   3.549   3.792   6.106  0.1331  3.5214 -0.0134
  143DOPC  C21016961   3.362   3.799   6.010 -0.6544 -0.2006 -0.1138
  143DOPC  H10R16962   3.414   3.805   5.913  0.0740  2.0094  0.3630
  143DOPC  C21116963   3.211   3.798   6.013 -0.3548  0.4342  0.1026
  143DOPC  H11R16964   3.187   3.841   5.913 -1.0131  1.2039  0.5813
  143DOPC  H11S16965   3.184   3.871   6.092  1.0237  0.8807  0.1809
  143DOPC  C21216966   3.158   3.662   6.047  0.7612 -0.1591  0.2681
  143DOPC  H12R16967   3.047   3.665   6.057  0.6045 -0.8283 -0.9496
  143DOPC  H12S16968   3.184   3.622   6.147 -1.1520  0.1921  0.9536
  143DOPC  C21316969   3.188   3.540   5.957  0.3851  0.0475  0.0900
  143DOPC  H13R16970   3.129   3.451   5.988  0.5044  0.7015  2.3830
  143DOPC  H13S16971   3.293   3.503   5.963  0.6225 -0.2983 -3.7015
  143DOPC  C21416972   3.163   3.570   5.809 -0.3579  0.3893  0.0794
  143DOPC  H14R16973   3.251   3.629   5.773 -0.9633  1.5464  0.4404
  143DOPC  H14S16974   3.064   3.620   5.803 -1.1443 -1.1232  0.2561
  143DOPC  C21516975   3.155   3.440   5.728  0.4891 -0.5737  0.7503
  143DOPC  H15R16976   3.066   3.379   5.754  0.1950 -0.4933 -0.0421
  143DOPC  H15S16977   3.242   3.373   5.746  1.0202  0.5500  2.6262
  143DOPC  C21616978   3.144   3.470   5.577  0.7896 -0.2016  0.2934
  143DOPC  H16R16979   3.245   3.493   5.537  0.1215  1.5376 -0.4946
  143DOPC  H16S16980   3.084   3.563   5.564  0.8908 -0.2110 -0.2441
  143DOPC  C21716981   3.082   3.353   5.496 -0.2451 -0.3792  0.4488
  143DOPC  H17R16982   2.976   3.337   5.525 -0.7904  5.1040  2.7842
  143DOPC  H17S16983   3.138   3.266   5.536 -1.4818 -0.5187  1.9749
  143DOPC  C21816984   3.104   3.371   5.341 -0.9396  0.2478  0.5755
  143DOPC  H18R16985   3.212   3.365   5.317 -0.9121 -0.2262  0.8019
  143DOPC  H18S16986   3.059   3.470   5.317  0.5479  0.9895  0.6902
  143DOPC  H18T16987   3.045   3.288   5.297 -0.0887 -0.2820  0.3966
  143DOPC   C3316988   3.355   3.570   6.758  0.1561  0.9363  0.1400
  143DOPC   H3X16989   3.442   3.598   6.695 -0.8405  1.9271 -0.8542
  143DOPC   H3Y16990   3.279   3.649   6.741  1.7976  2.5418 -0.0383
  143DOPC   C3416991   3.292   3.441   6.702 -0.1669  0.2025 -0.7438
  143DOPC   H4X16992   3.202   3.415   6.762  1.1202 -1.2851  0.6535
  143DOPC   H4Y16993   3.356   3.350   6.699 -1.5223 -0.7815 -0.7187
  143DOPC   C3516994   3.240   3.450   6.563 -0.0792  0.0998 -0.0330
  143DOPC   H5X16995   3.233   3.357   6.504  0.3397  0.3800 -0.5363
  143DOPC   H5Y16996   3.307   3.519   6.506  0.5148 -1.8448 -1.8230
  143DOPC   C3616997   3.098   3.518   6.551  0.5564  0.8293 -0.8128
  143DOPC   H6X16998   3.029   3.444   6.597  3.7668 -2.0284 -0.1869
  143DOPC   H6Y16999   3.102   3.605   6.620  2.6422  0.8501 -0.9014
  143DOPC   C3717000   3.061   3.556   6.414  0.2895  0.1918 -0.2167
  143DOPC   H7X17001   3.144   3.622   6.381  1.6921 -2.0197 -1.3059
  143DOPC   H7Y17002   3.054   3.463   6.354  1.0678 -1.4912  2.1440
  143DOPC   C3817003   2.929   3.630   6.406  0.0422  0.0688  0.2016
  143DOPC   H8X17004   2.886   3.637   6.304 -2.0249  1.2441  1.0813
  143DOPC   H8Y17005   2.944   3.737   6.430 -0.7635  1.2871 -3.9556
  143DOPC   C3917006   2.809   3.576   6.475 -0.6697  0.7154 -0.0135
  143DOPC   H9X17007   2.794   3.631   6.570  2.4103 -1.5311  1.9694
  143DOPC  C31017008   2.713   3.493   6.430  0.1149 -0.4381  0.3357
  143DOPC  H10X17009   2.629   3.467   6.496 -0.8670  1.6252 -0.0089
  143DOPC  C31117010   2.718   3.424   6.294 -0.5773 -0.0054 -0.0172
  143DOPC  H11X17011   2.732   3.317   6.319  0.1346 -0.0796 -0.6982
  143DOPC  H11Y17012   2.808   3.454   6.236  0.2193 -2.0654  0.0661
  143DOPC  C31217013   2.589   3.462   6.227  0.0670  0.5275  0.3057
  143DOPC  H12X17014   2.587   3.567   6.192  1.4611 -0.1420 -1.9893
  143DOPC  H12Y17015   2.494   3.456   6.285 -1.1004  1.3431 -1.4299
  143DOPC  C31317016   2.575   3.377   6.104 -0.4008  0.6099 -0.1992
  143DOPC  H13X17017   2.676   3.381   6.057 -0.0624  0.1891  0.4766
  143DOPC  H13Y17018   2.544   3.276   6.140 -1.7658  1.3099  0.6986
  143DOPC  C31417019   2.462   3.416   6.000 -0.8005 -0.4701  0.1455
  143DOPC  H14X17020   2.371   3.425   6.063  0.0358 -0.4852  1.3992
  143DOPC  H14Y17021   2.486   3.510   5.946 -1.5259  0.1448  0.8657
  143DOPC  C31517022   2.443   3.305   5.900  0.0129 -0.1778  0.5370
  143DOPC  H15X17023   2.413   3.212   5.952 -1.4505 -0.6770 -1.0789
  143DOPC  H15Y17024   2.534   3.280   5.841 -0.0353  0.7050  0.0677
  143DOPC  C31617025   2.338   3.335   5.789 -0.1833 -0.1034 -0.1345
  143DOPC  H16X17026   2.238   3.368   5.824 -0.2728 -1.4010  0.9256
  143DOPC  H16Y17027   2.370   3.418   5.722  1.1577 -0.9275 -0.5482
  143DOPC  C31717028   2.312   3.222   5.693  0.9044  0.6331 -0.6047
  143DOPC  H17X17029   2.408   3.186   5.650  0.5781 -0.5787 -0.3571
  143DOPC  H17Y17030   2.267   3.135   5.745 -1.2608  1.0127 -1.6767
  143DOPC  C31817031   2.216   3.256   5.582  0.0034 -0.3470 -0.2145
  143DOPC  H18X17032   2.203   3.168   5.516 -1.8453 -0.7356  0.6078
  143DOPC  H18Y17033   2.119   3.281   5.631 -0.9403 -3.7618 -0.0950
  143DOPC  H18Z17034   2.252   3.343   5.523 -1.2438  0.2669 -0.0946
  144DOPC     N17035   4.355   1.165   7.659  0.2844 -0.2536 -0.4950
  144DOPC   C1217036   4.441   1.257   7.578 -0.3913  0.2499  0.4687
  144DOPC  H12A17037   4.543   1.244   7.611 -0.8878  1.0715  2.4692
  144DOPC  H12B17038   4.396   1.353   7.595 -1.9139 -0.4115  0.3890
  144DOPC   C1317039   4.402   1.024   7.650 -0.4545 -0.1172 -0.1330
  144DOPC  H13A17040   4.334   0.945   7.678  0.5066 -1.0363 -0.3315
  144DOPC  H13B17041   4.437   1.005   7.550 -1.4088  2.0688 -0.9449
  144DOPC  H13C17042   4.491   1.014   7.709 -0.5061 -0.2804 -0.0831
  144DOPC   C1417043   4.219   1.162   7.600  0.1528  0.0619  0.0284
  144DOPC  H14A17044   4.165   1.086   7.654 -0.6626  1.0836  0.6888
  144DOPC  H14B17045   4.157   1.250   7.600 -0.5949 -0.3486 -2.7786
  144DOPC  H14C17046   4.224   1.140   7.494 -0.9814  2.1112 -0.4956
  144DOPC   C1517047   4.353   1.206   7.807  0.3763 -0.2570  0.2904
  144DOPC  H15A17048   4.289   1.293   7.816  0.7921  0.3396 -1.9735
  144DOPC  H15B17049   4.455   1.228   7.834  0.4288  1.0976 -0.9063
  144DOPC  H15C17050   4.317   1.123   7.866  2.8466 -0.9023  1.0009
  144DOPC   C1117051   4.442   1.241   7.425 -0.2258  0.4240 -0.6381
  144DOPC  H11A17052   4.346   1.282   7.388 -0.4640  1.5089  1.0732
  144DOPC  H11B17053   4.520   1.315   7.395  1.0847 -0.7551 -0.2395
  144DOPC     P17054   4.403   1.037   7.267  0.4556 -0.2208 -0.4208
  144DOPC   O1317055   4.263   1.059   7.296 -0.0488 -0.4163 -0.0530
  144DOPC   O1417056   4.454   0.902   7.257  0.3399  0.2012 -0.4989
  144DOPC   O1217057   4.487   1.110   7.381 -0.5838 -0.4998  0.1844
  144DOPC   O1117058   4.430   1.118   7.132 -0.2469  0.1538 -0.3518
  144DOPC    C117059   4.566   1.126   7.080  0.3368 -0.2316  0.1214
  144DOPC    HA17060   4.584   1.044   7.007  0.6069 -0.9783  1.0069
  144DOPC    HB17061   4.640   1.117   7.162 -0.1667  2.1537  0.9147
  144DOPC    C217062   4.602   1.264   7.013 -0.0917  0.9150  0.5701
  144DOPC    HS17063   4.557   1.344   7.074 -1.6254 -0.3164  1.1235
  144DOPC   O2117064   4.542   1.256   6.882 -0.1571 -0.3515  0.7170
  144DOPC   C2117065   4.498   1.367   6.824  0.1046 -0.1064  0.3393
  144DOPC   O2217066   4.491   1.479   6.870 -0.3937  0.4229 -0.0943
  144DOPC   C2217067   4.459   1.336   6.682 -0.5576  0.4800  0.1049
  144DOPC   H2R17068   4.387   1.251   6.686  0.6011 -0.4922  1.1716
  144DOPC   H2S17069   4.549   1.292   6.634 -1.4370 -0.6882 -0.5337
  144DOPC    C317070   4.754   1.275   6.997  0.3921 -0.1611 -0.4605
  144DOPC    HX17071   4.781   1.182   6.943 -2.6841 -1.7674  0.5443
  144DOPC    HY17072   4.802   1.267   7.097  3.2803  2.9836 -1.3735
  144DOPC   O3117073   4.789   1.391   6.916  0.3064  0.1159  0.0293
  144DOPC   C3117074   4.779   1.508   6.974 -0.3831 -0.1447 -0.1999
  144DOPC   O3217075   4.757   1.532   7.091  0.2611 -0.1651 -0.2331
  144DOPC   C3217076   4.788   1.613   6.865  0.4403  0.7548 -0.8398
  144DOPC   H2X17077   4.897   1.627   6.849  0.6541  1.0291  0.7004
  144DOPC   H2Y17078   4.742   1.568   6.775 -1.2280 -1.1058  0.8515
  144DOPC   C2317079   4.386   1.454   6.610  0.5670 -0.3280 -0.7358
  144DOPC   H3R17080   4.456   1.540   6.609 -0.6462  0.7295  0.8311
  144DOPC   H3S17081   4.304   1.501   6.668  0.9732  1.0720 -1.2435
  144DOPC   C2417082   4.346   1.413   6.468 -0.3557 -0.1280  0.0417
  144DOPC   H4R17083   4.278   1.491   6.427 -0.6269 -0.3209  0.1269
  144DOPC   H4S17084   4.287   1.319   6.476  0.0990 -0.8364 -3.3248
  144DOPC   C2517085   4.466   1.397   6.374 -0.4734  0.1571  0.1701
  144DOPC   H5R17086   4.523   1.314   6.421  1.0938  0.4288 -1.1496
  144DOPC   H5S17087   4.528   1.489   6.381  0.1261 -0.0316 -2.0694
  144DOPC   C2617088   4.424   1.361   6.228 -0.7982 -0.5395  0.2224
  144DOPC   H6R17089   4.512   1.357   6.160 -2.1537 -1.9778 -1.5371
  144DOPC   H6S17090   4.352   1.435   6.187  1.1492  1.9890  1.1066
  144DOPC   C2717091   4.354   1.227   6.217  0.0492 -0.2858 -0.2875
  144DOPC   H7R17092   4.254   1.232   6.265  0.1841  0.1610 -0.0566
  144DOPC   H7S17093   4.419   1.149   6.263  0.3959 -0.0833 -0.4317
  144DOPC   C2817094   4.332   1.185   6.071  0.0057  0.1945  0.3183
  144DOPC   H8R17095   4.278   1.264   6.014 -1.8870 -3.3187 -3.2017
  144DOPC   H8S17096   4.259   1.102   6.071 -0.5241  0.6509  0.3397
  144DOPC   C2917097   4.442   1.141   5.986  0.1951  0.2699  0.4927
  144DOPC   H9R17098   4.474   1.037   6.001 -0.4562  0.1283  0.9390
  144DOPC  C21017099   4.491   1.200   5.879  0.3988 -0.0185 -0.2924
  144DOPC  H10R17100   4.578   1.153   5.832  1.1127 -0.1778  1.1342
  144DOPC  C21117101   4.474   1.345   5.833 -0.3732  0.1517  0.5178
  144DOPC  H11R17102   4.439   1.408   5.917  0.9896  1.3089  0.2771
  144DOPC  H11S17103   4.414   1.367   5.742  1.6153 -2.5024 -1.6030
  144DOPC  C21217104   4.608   1.410   5.803 -0.7518  0.9401  0.2851
  144DOPC  H12R17105   4.663   1.353   5.725 -1.7215  0.9501 -0.4268
  144DOPC  H12S17106   4.668   1.405   5.896  1.1037  0.8993 -0.8658
  144DOPC  C21317107   4.607   1.555   5.767  0.0727 -0.2380  0.0039
  144DOPC  H13R17108   4.531   1.610   5.828  1.7409  2.1097  0.0980
  144DOPC  H13S17109   4.572   1.572   5.663  0.5110 -0.5126 -0.1909
  144DOPC  C21417110   4.746   1.627   5.786  0.2462 -0.2253 -0.1623
  144DOPC  H14R17111   4.819   1.595   5.709  3.5513  0.9274  2.2191
  144DOPC  H14S17112   4.781   1.590   5.885  1.3196  0.1531 -0.3915
  144DOPC  C21517113   4.736   1.779   5.785  0.0669  0.2866  0.7683
  144DOPC  H15R17114   4.630   1.813   5.778  0.0009 -0.0216  0.1895
  144DOPC  H15S17115   4.782   1.826   5.695 -0.5837 -2.1106 -0.9425
  144DOPC  C21617116   4.773   1.848   5.920 -1.4388 -0.2154 -0.1802
  144DOPC  H16R17117   4.750   1.779   6.004 -0.4589 -1.2777 -0.7637
  144DOPC  H16S17118   4.713   1.940   5.937 -0.0364  0.7320 -0.1469
  144DOPC  C21717119   4.931   1.883   5.932  1.0155 -0.0394 -0.7361
  144DOPC  H17R17120   4.982   1.784   5.925 -1.7511 -1.5851 -0.3385
  144DOPC  H17S17121   4.941   1.930   6.032 -2.7134 -0.6075  0.0659
  144DOPC  C21817122   4.984   1.981   5.828  0.0346  0.0461  0.1211
  144DOPC  H18R17123   4.938   2.076   5.861  1.4336 -0.0007  2.4259
  144DOPC  H18S17124   4.964   1.952   5.722 -0.2320  0.8277 -0.0517
  144DOPC  H18T17125   5.094   1.993   5.833  0.0847  0.1992 -0.9751
  144DOPC   C3317126   4.738   1.755   6.897 -0.1041 -0.6638  0.7296
  144DOPC   H3X17127   4.807   1.797   6.972 -0.1952 -1.9503  1.5559
  144DOPC   H3Y17128   4.636   1.745   6.940 -0.5648  0.6352  0.0079
  144DOPC   C3417129   4.720   1.858   6.782 -0.3363 -1.2305 -0.1490
  144DOPC   H4X17130   4.627   1.838   6.724 -0.0050  2.3781 -2.2385
  144DOPC   H4Y17131   4.805   1.843   6.712 -0.6214 -3.2916 -0.1086
  144DOPC   C3517132   4.725   2.001   6.833 -0.1856 -0.4724  0.4343
  144DOPC   H5X17133   4.825   2.017   6.880 -0.7938  0.1456  1.5650
  144DOPC   H5Y17134   4.645   2.029   6.905 -0.7876 -0.5037 -0.2182
  144DOPC   C3617135   4.709   2.107   6.712 -0.2672  0.0555 -0.3039
  144DOPC   H6X17136   4.764   2.067   6.625 -0.9447 -2.6145  0.4053
  144DOPC   H6Y17137   4.602   2.109   6.683 -0.7905 -2.1526  1.2524
  144DOPC   C3717138   4.757   2.245   6.755  0.1987 -1.0647  0.1609
  144DOPC   H7X17139   4.684   2.289   6.826 -1.3639  0.1739 -2.1133
  144DOPC   H7Y17140   4.854   2.238   6.809  0.7417 -1.3953 -0.8367
  144DOPC   C3817141   4.764   2.347   6.634 -0.0798 -0.3645 -0.4886
  144DOPC   H8X17142   4.798   2.444   6.677 -0.2549 -0.2443 -0.6136
  144DOPC   H8Y17143   4.664   2.360   6.585  0.7086 -0.7838 -2.3088
  144DOPC   C3917144   4.860   2.313   6.527  0.1585 -0.0755 -0.0543
  144DOPC   H9X17145   4.959   2.300   6.573 -0.2374  0.9500  1.1501
  144DOPC  C31017146   4.832   2.300   6.393 -0.2183 -0.8030 -0.3486
  144DOPC  H10X17147   4.906   2.280   6.313  0.0317  1.1343 -0.6356
  144DOPC  C31117148   4.686   2.304   6.338  0.2310  0.8257  0.4673
  144DOPC  H11X17149   4.650   2.406   6.314 -3.3323 -0.4939 -0.4381
  144DOPC  H11Y17150   4.614   2.254   6.407 -0.8597  0.8695 -0.6023
  144DOPC  C31217151   4.681   2.225   6.203 -0.3552 -0.8134  0.7991
  144DOPC  H12X17152   4.577   2.190   6.184 -0.1007 -0.6034 -1.2494
  144DOPC  H12Y17153   4.742   2.132   6.201 -1.6064 -1.6560 -0.0052
  144DOPC  C31317154   4.747   2.302   6.085 -0.5534 -0.1953 -0.0424
  144DOPC  H13X17155   4.733   2.410   6.108 -0.9167 -0.4573  0.9974
  144DOPC  H13Y17156   4.858   2.296   6.087 -0.4413  0.7990 -1.6176
  144DOPC  C31417157   4.700   2.270   5.945  0.0811  0.0554 -0.4227
  144DOPC  H14X17158   4.683   2.162   5.925  2.5555 -0.4780 -0.0538
  144DOPC  H14Y17159   4.600   2.317   5.937 -0.3630 -1.1067 -2.2395
  144DOPC  C31517160   4.790   2.314   5.820 -0.5517  0.1436  0.4118
  144DOPC  H15X17161   4.892   2.270   5.824 -0.6558 -0.0127  1.8074
  144DOPC  H15Y17162   4.810   2.423   5.815 -0.3795  0.0783 -0.6535
  144DOPC  C31617163   4.718   2.261   5.692 -0.8226 -0.0549 -0.1520
  144DOPC  H16X17164   4.731   2.151   5.675 -2.2173 -0.2103 -0.2915
  144DOPC  H16Y17165   4.610   2.277   5.708 -0.4064  1.8544  0.9991
  144DOPC  C31717166   4.779   2.317   5.558  0.2741 -0.1384  0.2227
  144DOPC  H17X17167   4.713   2.298   5.471 -1.0930  1.5843  0.8280
  144DOPC  H17Y17168   4.769   2.428   5.565 -0.4563 -0.2313  0.7046
  144DOPC  C31817169   4.923   2.279   5.542 -0.2525 -0.1885  0.8604
  144DOPC  H18X17170   4.986   2.306   5.629  1.9847  0.1908 -0.8141
  144DOPC  H18Y17171   4.928   2.170   5.518 -1.9486  0.2573 -2.0079
  144DOPC  H18Z17172   4.957   2.345   5.460 -2.4775  3.0398  2.2937
  145DOPC     N17173   4.414   4.759   7.435  0.0190 -1.1876 -0.2847
  145DOPC   C1217174   4.461   4.725   7.295  1.0045 -0.7706 -0.1332
  145DOPC  H12A17175   4.381   4.725   7.223  0.8886 -0.3523 -0.0038
  145DOPC  H12B17176   4.503   4.625   7.302  0.4633 -1.2327 -2.6190
  145DOPC   C1317177   4.299   4.672   7.473 -0.1483 -0.5033 -0.3989
  145DOPC  H13A17178   4.288   4.697   7.577 -0.5099  0.4437 -0.6579
  145DOPC  H13B17179   4.208   4.696   7.419 -0.1857  0.8220  0.2159
  145DOPC  H13C17180   4.326   4.568   7.467 -1.1429 -0.8259  0.3340
  145DOPC   C1417181   4.365   4.902   7.436 -0.8290  0.0048  0.0479
  145DOPC  H14A17182   4.314   4.921   7.529  0.1078  1.6904  0.2576
  145DOPC  H14B17183   4.452   4.964   7.421 -0.4156  0.0097  2.1477
  145DOPC  H14C17184   4.297   4.913   7.354 -1.0333 -0.0518  0.2079
  145DOPC   C1517185   4.527   4.744   7.537  0.8895  0.1560 -0.0693
  145DOPC  H15A17186   4.620   4.787   7.505  2.0924 -1.9085  0.4995
  145DOPC  H15B17187   4.543   4.637   7.543 -2.0916 -0.3955 -0.2905
  145DOPC  H15C17188   4.497   4.784   7.633 -0.8142 -0.2157 -0.4086
  145DOPC   C1117189   4.570   4.826   7.242 -0.2553  0.1489 -0.1127
  145DOPC  H11A17190   4.606   4.779   7.148  0.6991 -0.8460  0.7196
  145DOPC  H11B17191   4.526   4.920   7.201 -0.0387 -1.4526 -4.5765
  145DOPC     P17192   4.804   4.937   7.325 -0.0896  0.3201 -0.0336
  145DOPC   O1317193   4.924   4.862   7.359  0.4365  0.0308  0.3209
  145DOPC   O1417194   4.769   5.043   7.421  0.1532 -0.5816  0.1539
  145DOPC   O1217195   4.687   4.830   7.333 -0.1843 -0.1223 -0.2879
  145DOPC   O1117196   4.803   4.982   7.176  0.0404 -0.6398  0.2424
  145DOPC    C117197   4.739   5.094   7.117  0.1668 -0.5817  0.2349
  145DOPC    HA17198   4.804   5.181   7.095 -0.0162 -0.8285 -1.4154
  145DOPC    HB17199   4.654   5.135   7.175 -1.2609 -1.2243 -1.2938
  145DOPC    C217200   4.689   5.057   6.973  0.4493 -0.2385 -0.1688
  145DOPC    HS17201   4.629   4.965   6.987 -0.4556  0.2807 -0.6341
  145DOPC   O2117202   4.805   5.034   6.886 -0.4792  0.1901 -1.2408
  145DOPC   C2117203   4.806   4.924   6.807 -0.4748 -0.2151 -0.7842
  145DOPC   O2217204   4.711   4.852   6.803  0.0103 -0.1592 -0.0504
  145DOPC   C2217205   4.929   4.904   6.728 -0.2613  0.1349  0.6137
  145DOPC   H2R17206   4.985   4.822   6.778 -0.6791 -1.2945 -1.1153
  145DOPC   H2S17207   4.981   5.001   6.723  0.4858 -0.2555  0.7031
  145DOPC    C317208   4.589   5.157   6.916 -0.0462 -0.1835 -0.1480
  145DOPC    HX17209   4.644   5.253   6.910  1.6903 -0.8656  2.7545
  145DOPC    HY17210   4.508   5.174   6.989  0.8675  0.7362  0.6890
  145DOPC   O3117211   4.545   5.117   6.784 -0.2794 -0.0432 -0.3774
  145DOPC   C3117212   4.463   5.019   6.788  0.0655  0.4775  1.0428
  145DOPC   O3217213   4.416   4.959   6.887  0.5082 -0.2369 -0.4805
  145DOPC   C3217214   4.432   4.977   6.642 -0.5489 -0.5497  0.4292
  145DOPC   H2X17215   4.502   4.894   6.620 -1.2438 -0.9413 -0.3603
  145DOPC   H2Y17216   4.327   4.940   6.631 -1.0255  1.4443 -3.8619
  145DOPC   C2317217   4.887   4.860   6.583 -0.0346  0.0043  0.5087
  145DOPC   H3R17218   4.798   4.794   6.589  1.2133 -2.0282 -1.6159
  145DOPC   H3S17219   4.960   4.797   6.528  0.5236  2.1686 -1.3746
  145DOPC   C2417220   4.869   4.984   6.496  0.2865  0.4092 -0.4274
  145DOPC   H4R17221   4.964   5.040   6.488  0.9713 -0.2583  2.1394
  145DOPC   H4S17222   4.798   5.058   6.540 -2.2718 -1.3809 -1.2686
  145DOPC   C2517223   4.815   4.940   6.359 -0.0565  1.0656 -0.1104
  145DOPC   H5R17224   4.750   5.014   6.307  1.0368  0.5156 -2.4109
  145DOPC   H5S17225   4.752   4.849   6.371  1.8721 -0.4406 -0.8400
  145DOPC   C2617226   4.924   4.892   6.267 -0.4205  0.2088 -0.4765
  145DOPC   H6R17227   4.952   4.788   6.292 -1.5221 -0.4365 -1.8181
  145DOPC   H6S17228   5.008   4.965   6.267 -0.3770  0.1718  0.7425
  145DOPC   C2717229   4.888   4.875   6.116  0.3086 -0.1154 -0.0946
  145DOPC   H7R17230   4.815   4.953   6.086  0.9158 -0.3243 -2.3801
  145DOPC   H7S17231   4.829   4.782   6.099 -2.2000  1.3677  0.0262
  145DOPC   C2817232   5.017   4.872   6.031  0.1448  0.1564 -0.0592
  145DOPC   H8R17233   5.076   4.779   6.047  0.4353  0.0547 -1.5743
  145DOPC   H8S17234   5.073   4.967   6.042 -2.3284  1.4606  2.5133
  145DOPC   C2917235   4.981   4.860   5.884 -0.2330 -0.0077 -0.0233
  145DOPC   H9R17236   4.965   4.957   5.835 -0.0506 -0.1930 -0.4567
  145DOPC  C21017237   4.956   4.754   5.813 -0.6250  0.1378 -0.3400
  145DOPC  H10R17238   4.939   4.765   5.705  0.2144  2.5229 -0.2968
  145DOPC  C21117239   4.951   4.605   5.853 -0.4584 -0.0162  0.1659
  145DOPC  H11R17240   4.843   4.579   5.853 -0.8852  1.5005  2.1855
  145DOPC  H11S17241   4.983   4.597   5.959 -2.6693 -0.1065  0.8775
  145DOPC  C21217242   5.033   4.511   5.754  0.0706 -0.5556 -0.3720
  145DOPC  H12R17243   5.137   4.548   5.742 -0.2524  1.2902  1.7677
  145DOPC  H12S17244   4.988   4.521   5.653 -1.7525  0.2185  0.4573
  145DOPC  C21317245   5.051   4.370   5.803  0.9403 -0.9815 -0.5385
  145DOPC  H13R17246   5.093   4.378   5.906  0.5459 -2.9279 -0.2014
  145DOPC  H13S17247   5.117   4.304   5.742 -0.4447 -1.7977 -1.1953
  145DOPC  C21417248   4.917   4.298   5.813  0.1226  0.3556  0.3053
  145DOPC  H14R17249   4.840   4.363   5.859  0.0104 -0.6078  1.5469
  145DOPC  H14S17250   4.927   4.216   5.888 -0.0613  1.8938  2.0853
  145DOPC  C21517251   4.881   4.256   5.672 -0.1109 -0.0767  0.5387
  145DOPC  H15R17252   4.958   4.184   5.637 -1.0796 -0.7766 -0.2046
  145DOPC  H15S17253   4.875   4.347   5.608 -1.0144 -1.4008 -1.3400
  145DOPC  C21617254   4.746   4.176   5.655 -0.8369 -0.4531 -0.4171
  145DOPC  H16R17255   4.663   4.236   5.697  0.1493  0.8527 -0.2358
  145DOPC  H16S17256   4.763   4.087   5.718 -1.8791 -0.3082  0.0857
  145DOPC  C21717257   4.698   4.148   5.509 -0.5543 -0.7841  0.1684
  145DOPC  H17R17258   4.695   4.242   5.450  1.2518 -2.0289 -2.0311
  145DOPC  H17S17259   4.597   4.105   5.526  0.1171 -2.5457 -0.0703
  145DOPC  C21817260   4.783   4.042   5.448 -0.3689 -0.4007  0.6469
  145DOPC  H18R17261   4.732   4.002   5.358 -1.2030 -2.0653  1.8166
  145DOPC  H18S17262   4.788   3.946   5.503 -0.4268 -1.7942 -1.6606
  145DOPC  H18T17263   4.885   4.075   5.419 -0.3761 -2.2855 -1.8916
  145DOPC   C3317264   4.460   5.095   6.534  0.7665  0.5907 -0.8322
  145DOPC   H3X17265   4.567   5.124   6.538  1.7802 -2.5634 -1.9539
  145DOPC   H3Y17266   4.402   5.185   6.564  1.4245  0.0553  2.3940
  145DOPC   C3417267   4.432   5.050   6.392 -0.5502  0.2208 -0.3872
  145DOPC   H4X17268   4.329   5.012   6.382  0.2471 -1.8434 -1.3969
  145DOPC   H4Y17269   4.499   4.963   6.370 -0.9574  0.0170 -0.8403
  145DOPC   C3517270   4.468   5.152   6.285  0.6877  0.2282  0.3113
  145DOPC   H5X17271   4.564   5.197   6.318  0.0038  2.4950 -0.6204
  145DOPC   H5Y17272   4.391   5.232   6.284  0.1705 -0.2638  0.1834
  145DOPC   C3617273   4.471   5.087   6.149  0.3749  0.1598  0.0464
  145DOPC   H6X17274   4.525   4.993   6.175 -2.6675 -1.1835  2.1992
  145DOPC   H6Y17275   4.372   5.066   6.104 -0.4924  0.4156  1.7546
  145DOPC   C3717276   4.545   5.174   6.047  0.1237  0.1280  0.1413
  145DOPC   H7X17277   4.480   5.254   6.004  0.9686  0.2445 -0.9600
  145DOPC   H7Y17278   4.625   5.220   6.108 -1.3401  2.3126  0.5586
  145DOPC   C3817279   4.596   5.084   5.936 -0.8388 -0.0634  0.2581
  145DOPC   H8X17280   4.501   5.038   5.903 -1.2353 -0.2732  1.5987
  145DOPC   H8Y17281   4.661   5.004   5.979 -1.9411 -1.0921  0.0450
  145DOPC   C3917282   4.654   5.175   5.831  0.0896  0.3310 -0.1585
  145DOPC   H9X17283   4.653   5.284   5.846 -0.3982  0.4962 -1.2449
  145DOPC  C31017284   4.704   5.135   5.716 -0.4462  0.5490  0.4272
  145DOPC  H10X17285   4.757   5.199   5.644 -0.4640 -0.7289 -0.7755
  145DOPC  C31117286   4.716   4.990   5.670  0.6883 -0.1139  0.3036
  145DOPC  H11X17287   4.636   4.926   5.714  0.4916  0.1061  0.2666
  145DOPC  H11Y17288   4.822   4.957   5.681  0.6240 -0.5794 -0.4172
  145DOPC  C31217289   4.677   4.991   5.519 -0.2612 -0.2645 -0.2710
  145DOPC  H12X17290   4.719   4.905   5.461 -0.7381 -0.5465 -0.2043
  145DOPC  H12Y17291   4.729   5.077   5.473  1.4264 -0.3998  1.2839
  145DOPC  C31317292   4.524   5.003   5.507 -0.1558 -0.6331  1.2333
  145DOPC  H13X17293   4.476   4.910   5.541 -1.4782 -0.2738  0.4310
  145DOPC  H13Y17294   4.487   5.085   5.571  0.6278  0.4207  0.3921
  145DOPC  C31417295   4.483   5.041   5.364  0.1014  0.0704 -0.1782
  145DOPC  H14X17296   4.379   5.080   5.363  0.8514  2.1834 -0.5212
  145DOPC  H14Y17297   4.541   5.130   5.333 -0.2952 -0.1882 -1.7328
  145DOPC  C31517298   4.487   4.933   5.259 -0.3100 -0.7269  0.0586
  145DOPC  H15X17299   4.430   4.850   5.307  2.8849 -0.4574  4.9821
  145DOPC  H15Y17300   4.584   4.886   5.233 -0.5764 -1.9658  1.2213
  145DOPC  C31617301   4.405   4.968   5.132  0.8082  0.2388 -0.3488
  145DOPC  H16X17302   4.300   5.003   5.144 -0.1887 -2.2612 -1.1570
  145DOPC  H16Y17303   4.454   5.048   5.073 -0.2173 -0.1954 -1.8642
  145DOPC  C31717304   4.395   4.851   5.026  0.0207 -0.7831  0.2018
  145DOPC  H17X17305   4.498   4.809   5.016  0.0708 -0.5346 -0.3266
  145DOPC  H17Y17306   4.324   4.781   5.076 -2.1403  0.6648 -0.6920
  145DOPC  C31817307   4.337   4.898   4.893 -0.5393 -0.1289  0.5350
  145DOPC  H18X17308   4.312   4.811   4.830  0.9193  0.5132 -1.0026
  145DOPC  H18Y17309   4.249   4.963   4.918 -0.7795 -1.2562  2.9228
  145DOPC  H18Z17310   4.406   4.953   4.826  0.1476 -1.4920  0.0994
  146DOPC     N17311   6.237   1.748   6.893  0.8592 -0.7435  0.0289
  146DOPC   C1217312   6.254   1.615   6.826 -0.4265  0.2602  0.5297
  146DOPC  H12A17313   6.224   1.632   6.723  0.2494  0.1593  0.3066
  146DOPC  H12B17314   6.175   1.549   6.858 -0.4997  0.3906  0.6193
  146DOPC   C1317315   6.104   1.810   6.857  0.1212  0.2923  0.3150
  146DOPC  H13A17316   6.024   1.741   6.883  0.5331 -0.0546  0.6744
  146DOPC  H13B17317   6.097   1.906   6.905  0.7595 -0.1034  1.2319
  146DOPC  H13C17318   6.110   1.824   6.750  0.9799  0.9044  0.4343
  146DOPC   C1417319   6.346   1.845   6.842  0.0991 -0.2912  0.0907
  146DOPC  H14A17320   6.322   1.872   6.740  2.4767 -1.5925 -0.9060
  146DOPC  H14B17321   6.357   1.939   6.894  0.0629  1.1959 -2.4326
  146DOPC  H14C17322   6.445   1.804   6.854  0.9636  1.4656 -0.6930
  146DOPC   C1517323   6.243   1.724   7.038 -0.0887 -1.0272  0.4244
  146DOPC  H15A17324   6.346   1.716   7.068  0.2652  0.4388 -0.2910
  146DOPC  H15B17325   6.189   1.634   7.065 -3.3468  0.8195  0.6747
  146DOPC  H15C17326   6.198   1.813   7.081 -2.1754 -0.3276 -2.8648
  146DOPC   C1117327   6.390   1.538   6.837  0.7873 -0.5144  0.1478
  146DOPC  H11A17328   6.394   1.444   6.778 -0.9100  0.0312 -0.9166
  146DOPC  H11B17329   6.464   1.605   6.789 -0.8489  0.4951 -1.0760
  146DOPC     P17330   6.545   1.514   7.048  0.4510  0.1031  0.2680
  146DOPC   O1317331   6.648   1.422   6.992 -0.2741 -0.7151  0.3891
  146DOPC   O1417332   6.523   1.496   7.193  0.5234 -0.1482  0.1807
  146DOPC   O1217333   6.414   1.505   6.971  0.4733 -0.0424 -0.8852
  146DOPC   O1117334   6.592   1.665   7.025  0.3573 -0.5180  0.0416
  146DOPC    C117335   6.673   1.731   7.121  0.1116  1.4226 -0.4481
  146DOPC    HA17336   6.700   1.664   7.206  1.8238 -0.3900 -2.3011
  146DOPC    HB17337   6.619   1.820   7.160 -1.1142  0.6878 -0.3882
  146DOPC    C217338   6.815   1.780   7.055  0.5441 -0.8308  0.5217
  146DOPC    HS17339   6.880   1.822   7.135  0.4714 -0.3994  0.3588
  146DOPC   O2117340   6.769   1.889   6.966 -0.3388 -1.3578 -0.2283
  146DOPC   C2117341   6.858   1.984   6.928 -0.0020  0.7268 -0.9708
  146DOPC   O2217342   6.960   2.003   6.995 -0.0033 -0.0893  0.5999
  146DOPC   C2217343   6.812   2.054   6.804 -0.1223  0.6490  0.2375
  146DOPC   H2R17344   6.814   2.162   6.828  1.0536  0.1481  2.8052
  146DOPC   H2S17345   6.706   2.024   6.790  0.5173 -0.9536 -1.4901
  146DOPC    C317346   6.885   1.674   6.961  0.4481 -0.4852  0.2496
  146DOPC    HX17347   6.817   1.657   6.874 -0.2836  0.5727  0.5922
  146DOPC    HY17348   6.892   1.576   7.012  0.0713 -1.2065 -1.0521
  146DOPC   O3117349   7.014   1.720   6.913  0.3373  0.5039  0.5365
  146DOPC   C3117350   7.114   1.726   7.001 -0.2492 -0.1528  0.3636
  146DOPC   O3217351   7.102   1.715   7.120 -0.6159  0.0317 -0.0011
  146DOPC   C3217352   7.250   1.753   6.927 -0.5081  0.3950 -0.1186
  146DOPC   H2X17353   7.279   1.859   6.942  0.7434 -0.1386  1.4945
  146DOPC   H2Y17354   7.329   1.696   6.981  0.5828  2.0827  0.1418
  146DOPC   C2317355   6.901   2.023   6.683 -0.8996 -0.0904  0.2811
  146DOPC   H3R17356   6.867   1.927   6.638 -1.9951  0.5269 -0.2661
  146DOPC   H3S17357   7.007   2.011   6.715 -0.1183 -0.3489 -2.1509
  146DOPC   C2417358   6.897   2.137   6.582 -0.1786 -0.4010  0.9280
  146DOPC   H4R17359   6.930   2.234   6.626  0.9504 -0.0366 -0.6420
  146DOPC   H4S17360   6.793   2.144   6.543  0.7357 -0.2319 -1.6794
  146DOPC   C2517361   6.987   2.107   6.464  0.0769  0.3577  1.0000
  146DOPC   H5R17362   6.968   2.000   6.439 -0.5259  0.1589  2.2456
  146DOPC   H5S17363   7.095   2.108   6.490  0.6440 -0.3537 -1.0731
  146DOPC   C2617364   6.991   2.195   6.346 -0.5370 -0.2257  0.5133
  146DOPC   H6R17365   7.071   2.168   6.275  0.4804  2.3681  0.5630
  146DOPC   H6S17366   7.010   2.303   6.366  1.9145  0.3213 -3.7255
  146DOPC   C2717367   6.855   2.183   6.273 -0.5050  0.3014  0.6506
  146DOPC   H7R17368   6.772   2.227   6.332 -0.6442  0.7225  0.1412
  146DOPC   H7S17369   6.831   2.074   6.273  0.9482 -0.0895  2.5145
  146DOPC   C2817370   6.846   2.242   6.137  0.0111 -0.0908 -0.2668
  146DOPC   H8R17371   6.903   2.336   6.151 -0.5613  0.2344 -0.0590
  146DOPC   H8S17372   6.742   2.275   6.116  0.0692  0.1453 -0.1895
  146DOPC   C2917373   6.898   2.159   6.023 -0.1426 -0.7047 -0.2076
  146DOPC   H9R17374   7.007   2.158   6.007 -0.4199  1.6225 -3.0041
  146DOPC  C21017375   6.822   2.116   5.925  0.2148 -0.4809 -0.2253
  146DOPC  H10R17376   6.864   2.060   5.841  0.9180 -1.9574  1.0571
  146DOPC  C21117377   6.676   2.126   5.922  0.4456  0.2559 -0.4077
  146DOPC  H11R17378   6.648   2.230   5.897 -2.8092 -0.6469 -0.9522
  146DOPC  H11S17379   6.632   2.097   6.020 -1.4375  0.6229 -1.1035
  146DOPC  C21217380   6.597   2.041   5.821  0.0070  0.9186 -0.2794
  146DOPC  H12R17381   6.492   2.073   5.839 -0.3098 -0.1665 -0.0823
  146DOPC  H12S17382   6.611   1.932   5.842 -0.7416  0.7046 -0.8330
  146DOPC  C21317383   6.647   2.052   5.675 -0.4282  0.2249 -0.3313
  146DOPC  H13R17384   6.747   2.004   5.678 -0.0044  1.1396  0.5649
  146DOPC  H13S17385   6.652   2.161   5.655  0.7733  0.8910  3.0804
  146DOPC  C21417386   6.562   1.980   5.573 -0.6065  1.2458  0.9270
  146DOPC  H14R17387   6.461   2.027   5.565 -1.3136  0.0269  2.1762
  146DOPC  H14S17388   6.541   1.874   5.598 -1.0347  0.1478 -3.3586
  146DOPC  C21517389   6.640   1.975   5.435  0.8920  0.1285 -0.5369
  146DOPC  H15R17390   6.741   1.943   5.467  0.5611  0.3084  0.7571
  146DOPC  H15S17391   6.640   2.082   5.407  1.0150  0.2455 -0.1017
  146DOPC  C21617392   6.583   1.875   5.337 -0.3935 -0.7817 -0.2546
  146DOPC  H16R17393   6.616   1.887   5.232 -0.9951  1.7504 -0.2181
  146DOPC  H16S17394   6.472   1.875   5.336 -0.4215 -2.4802 -1.0229
  146DOPC  C21717395   6.620   1.736   5.374 -0.3741  0.7847 -0.0534
  146DOPC  H17R17396   6.578   1.713   5.474 -2.9233  2.7064 -0.5960
  146DOPC  H17S17397   6.730   1.729   5.385 -0.3997 -0.2586 -0.2712
  146DOPC  C21817398   6.588   1.628   5.269 -0.1915 -0.0469 -0.2252
  146DOPC  H18R17399   6.613   1.524   5.301  0.8410  0.4745  0.7241
  146DOPC  H18S17400   6.618   1.662   5.167 -0.0115  2.6160  0.6478
  146DOPC  H18T17401   6.477   1.629   5.263 -0.1623 -1.1049 -1.5377
  146DOPC   C3317402   7.266   1.692   6.783 -0.2292 -0.3045 -0.6249
  146DOPC   H3X17403   7.227   1.588   6.787 -1.3865  0.1214 -0.4418
  146DOPC   H3Y17404   7.374   1.683   6.759  0.3618  1.4983  1.0293
  146DOPC   C3417405   7.198   1.772   6.679  0.2635 -0.5829  0.3105
  146DOPC   H4X17406   7.244   1.873   6.670 -0.8065 -0.2552 -2.4084
  146DOPC   H4Y17407   7.088   1.785   6.681  0.2376 -0.0602 -1.9546
  146DOPC   C3517408   7.223   1.701   6.541  0.4401  0.2124  0.7782
  146DOPC   H5X17409   7.196   1.594   6.543 -0.9395  0.5557  1.6860
  146DOPC   H5Y17410   7.327   1.697   6.501 -0.1092 -1.1849 -0.5919
  146DOPC   C3617411   7.134   1.773   6.437  0.5915  0.1477  0.3831
  146DOPC   H6X17412   7.027   1.753   6.461  0.3004  2.5318  1.3686
  146DOPC   H6Y17413   7.137   1.884   6.442  1.1423  0.0915  1.7915
  146DOPC   C3717414   7.172   1.730   6.298  0.0464 -0.8211  0.5019
  146DOPC   H7X17415   7.267   1.776   6.263 -1.3059  1.5830 -0.2227
  146DOPC   H7Y17416   7.213   1.626   6.297  0.6238 -0.6217  1.7444
  146DOPC   C3817417   7.061   1.741   6.184 -0.4369  0.0780 -0.7451
  146DOPC   H8X17418   7.099   1.717   6.082 -0.9717 -0.9471 -0.7163
  146DOPC   H8Y17419   7.040   1.848   6.163 -0.4781  0.4872  1.2010
  146DOPC   C3917420   6.934   1.673   6.214 -0.1680  0.5553  0.6160
  146DOPC   H9X17421   6.872   1.736   6.279 -1.8900  0.4213 -0.8241
  146DOPC  C31017422   6.904   1.544   6.197 -0.4727 -0.1539  1.3391
  146DOPC  H10X17423   6.814   1.492   6.232 -1.8752 -1.3731 -3.3066
  146DOPC  C31117424   6.996   1.448   6.130 -0.4116 -0.2761  0.7938
  146DOPC  H11X17425   7.087   1.488   6.081 -0.1679 -2.5218 -0.7610
  146DOPC  H11Y17426   6.937   1.392   6.054  0.1996  0.0348  0.0725
  146DOPC  C31217427   7.042   1.339   6.227 -0.1558 -0.3748 -0.0459
  146DOPC  H12X17428   6.978   1.339   6.318 -0.7454  1.8477 -0.3858
  146DOPC  H12Y17429   7.139   1.382   6.261 -0.8236  1.5423 -0.4287
  146DOPC  C31317430   7.052   1.201   6.161 -0.0989 -0.3921 -0.0388
  146DOPC  H13X17431   7.082   1.210   6.054 -2.2254  2.2528 -0.5137
  146DOPC  H13Y17432   7.127   1.151   6.227  1.4833 -0.1975 -1.6108
  146DOPC  C31417433   6.918   1.124   6.177 -0.0411 -0.2807  0.3466
  146DOPC  H14X17434   6.837   1.193   6.145  1.3389  1.0953 -0.3096
  146DOPC  H14Y17435   6.923   1.039   6.105  0.8482 -0.1693  0.2664
  146DOPC  C31517436   6.888   1.064   6.312 -0.5227 -0.3524 -0.4194
  146DOPC  H15X17437   6.961   1.092   6.392  1.4961 -4.1509 -0.6824
  146DOPC  H15Y17438   6.887   0.953   6.303 -0.3864 -0.4755  0.8527
  146DOPC  C31617439   6.750   1.108   6.356  0.1713 -0.2847 -0.5345
  146DOPC  H16X17440   6.766   1.218   6.358  1.4229 -0.4546  1.4608
  146DOPC  H16Y17441   6.675   1.079   6.280 -0.1895  1.4187 -0.8720
  146DOPC  C31717442   6.714   1.066   6.499  0.2471 -0.4411  0.5161
  146DOPC  H17X17443   6.713   0.956   6.511 -0.2055 -0.4840  0.0837
  146DOPC  H17Y17444   6.784   1.101   6.579  0.4166 -1.8842  1.0260
  146DOPC  C31817445   6.575   1.123   6.538  0.4882 -0.6005  0.0836
  146DOPC  H18X17446   6.565   1.061   6.629  2.9732 -1.9525 -0.4768
  146DOPC  H18Y17447   6.590   1.228   6.569  0.3852 -1.4816  3.5220
  146DOPC  H18Z17448   6.499   1.100   6.460 -0.4199 -2.2863  1.4029
  147DOPC     N17449   3.555   3.287   7.357 -0.2698 -0.1624 -0.4928
  147DOPC   C1217450   3.530   3.420   7.289 -0.1828 -0.0675  0.1633
  147DOPC  H12A17451   3.461   3.406   7.207 -0.4470 -0.9464  0.5203
  147DOPC  H12B17452   3.620   3.464   7.248  1.2397 -1.7180  1.3512
  147DOPC   C1317453   3.583   3.187   7.254 -0.6679 -0.1883 -0.3749
  147DOPC  H13A17454   3.597   3.091   7.302 -0.3106  0.4393  0.8430
  147DOPC  H13B17455   3.513   3.174   7.173 -0.8634  3.9258 -1.1045
  147DOPC  H13C17456   3.682   3.200   7.213 -0.3500 -1.0197  0.1011
  147DOPC   C1417457   3.432   3.252   7.426 -0.1934  0.2199 -0.4982
  147DOPC  H14A17458   3.347   3.238   7.361  0.0804  1.6098 -1.1751
  147DOPC  H14B17459   3.442   3.159   7.481 -1.7368  0.3515  0.0467
  147DOPC  H14C17460   3.404   3.329   7.496  0.6087  1.0137 -1.0266
  147DOPC   C1517461   3.665   3.301   7.457  0.0444  0.2047 -0.8224
  147DOPC  H15A17462   3.652   3.392   7.512  1.1358  0.4067 -0.8759
  147DOPC  H15B17463   3.760   3.306   7.404  0.1464  0.0481 -0.6569
  147DOPC  H15C17464   3.683   3.221   7.527  4.8260 -0.1747 -2.0788
  147DOPC   C1117465   3.467   3.535   7.377  0.3913  0.4008 -1.2181
  147DOPC  H11A17466   3.418   3.602   7.303 -1.0837  0.2795 -0.4020
  147DOPC  H11B17467   3.389   3.494   7.445  0.1780  0.7500 -1.2494
  147DOPC     P17468   3.644   3.726   7.413 -0.2565  0.4412 -0.2928
  147DOPC   O1317469   3.759   3.754   7.499  0.6572  0.9008 -0.4318
  147DOPC   O1417470   3.547   3.836   7.409 -0.3394 -0.4482 -0.2193
  147DOPC   O1217471   3.564   3.601   7.462 -0.4700  0.7185 -0.6331
  147DOPC   O1117472   3.686   3.687   7.262  0.4076 -0.5271 -0.0292
  147DOPC    C117473   3.824   3.705   7.231 -0.5417 -0.2122 -0.0856
  147DOPC    HA17474   3.880   3.635   7.296 -0.0999 -0.5662 -0.8425
  147DOPC    HB17475   3.851   3.813   7.242  0.3770 -0.2024 -2.0637
  147DOPC    C217476   3.847   3.665   7.081  0.3029  0.2018 -0.4035
  147DOPC    HS17477   3.951   3.689   7.050  0.1782  0.0466 -0.9634
  147DOPC   O2117478   3.745   3.726   6.996 -0.5636 -0.5226  0.0098
  147DOPC   C2117479   3.779   3.847   6.957  0.4109  0.3263  0.3974
  147DOPC   O2217480   3.886   3.900   6.976  0.3157  0.2731 -0.7670
  147DOPC   C2217481   3.673   3.888   6.862 -0.2170 -0.1124  0.3430
  147DOPC   H2R17482   3.677   3.998   6.854 -0.0683 -0.1969 -0.9191
  147DOPC   H2S17483   3.577   3.876   6.916 -0.3057  1.8317  0.6615
  147DOPC    C317484   3.827   3.512   7.088 -0.1247 -0.4127 -0.1956
  147DOPC    HX17485   3.725   3.493   7.129  0.3946 -1.2515  0.7451
  147DOPC    HY17486   3.898   3.482   7.167 -1.4227  2.1216  2.0845
  147DOPC   O3117487   3.855   3.451   6.955  0.4066  0.2851 -0.0595
  147DOPC   C3117488   3.762   3.381   6.895 -0.1866  0.1712 -0.0099
  147DOPC   O3217489   3.651   3.369   6.942  0.2451  0.3268 -0.0993
  147DOPC   C3217490   3.815   3.324   6.761  0.4840 -0.2360  0.3121
  147DOPC   H2X17491   3.851   3.413   6.704  1.2682 -0.6213  0.1760
  147DOPC   H2Y17492   3.906   3.261   6.772  1.1549  0.9353  1.7990
  147DOPC   C2317493   3.695   3.805   6.728  0.2806 -0.4811 -0.1688
  147DOPC   H3R17494   3.597   3.794   6.678  0.3108  0.2353 -0.3916
  147DOPC   H3S17495   3.724   3.701   6.754 -1.3267 -0.8660  0.1371
  147DOPC   C2417496   3.797   3.870   6.628  0.6892  0.5754  0.1601
  147DOPC   H4R17497   3.901   3.865   6.666  0.5195 -3.3230  0.4897
  147DOPC   H4S17498   3.771   3.978   6.620  2.0227  0.7811 -2.6811
  147DOPC   C2517499   3.804   3.808   6.489  0.8531 -0.6728 -0.1510
  147DOPC   H5R17500   3.701   3.805   6.447  1.3338 -0.6021 -1.3820
  147DOPC   H5S17501   3.850   3.707   6.495  2.1026 -0.0247  2.2010
  147DOPC   C2617502   3.887   3.894   6.394 -0.0349 -0.0674 -0.3851
  147DOPC   H6R17503   3.989   3.903   6.439 -0.3568 -2.9806  1.1912
  147DOPC   H6S17504   3.838   3.993   6.393 -0.0106 -0.0433  0.2493
  147DOPC   C2717505   3.911   3.837   6.252 -0.1474  0.0659 -0.2089
  147DOPC   H7R17506   3.809   3.815   6.214  0.8924 -0.1335 -3.1469
  147DOPC   H7S17507   3.962   3.739   6.256 -1.2118 -0.4563  0.8172
  147DOPC   C2817508   3.993   3.940   6.170  0.0544 -0.3007 -0.3224
  147DOPC   H8R17509   4.097   3.951   6.207 -0.2829 -1.4928  1.0569
  147DOPC   H8S17510   3.934   4.034   6.181  1.6933  0.7865 -0.5522
  147DOPC   C2917511   3.987   3.889   6.025 -0.5486  0.0645  0.4089
  147DOPC   H9R17512   3.887   3.887   5.978 -1.3395  3.0165  1.7503
  147DOPC  C21017513   4.086   3.827   5.954  1.0419 -0.5396  0.2411
  147DOPC  H10R17514   4.059   3.789   5.854 -0.7006  0.1282  0.4106
  147DOPC  C21117515   4.230   3.805   5.991  0.5833  0.2563 -0.1390
  147DOPC  H11R17516   4.256   3.698   6.007  1.0429  0.4892  0.7046
  147DOPC  H11S17517   4.246   3.868   6.082  0.4915 -0.8426  0.6644
  147DOPC  C21217518   4.326   3.848   5.893 -0.0802  0.0931  0.0153
  147DOPC  H12R17519   4.426   3.859   5.940  0.5469 -0.4648 -1.1455
  147DOPC  H12S17520   4.287   3.943   5.848 -2.6129 -0.5636  0.6403
  147DOPC  C21317521   4.344   3.754   5.772 -0.2484  0.1359  0.2393
  147DOPC  H13R17522   4.239   3.717   5.761 -0.9058  1.5278  1.4635
  147DOPC  H13S17523   4.399   3.664   5.806 -2.4633 -1.1487  0.5923
  147DOPC  C21417524   4.381   3.802   5.629  0.5218  0.0338  0.2753
  147DOPC  H14R17525   4.477   3.857   5.642 -0.3108  1.4229  0.8216
  147DOPC  H14S17526   4.306   3.870   5.582 -0.2884 -3.0976 -3.4279
  147DOPC  C21517527   4.385   3.694   5.518 -0.0862  0.4988 -0.1589
  147DOPC  H15R17528   4.285   3.655   5.490 -1.4530  1.6170  2.7706
  147DOPC  H15S17529   4.443   3.613   5.566  0.1427  1.2069  0.7921
  147DOPC  C21617530   4.459   3.759   5.398  0.2094 -0.8485  0.2495
  147DOPC  H16R17531   4.551   3.807   5.436 -1.1436 -0.1162  2.8258
  147DOPC  H16S17532   4.387   3.828   5.350  0.7530 -0.3888  0.0822
  147DOPC  C21717533   4.506   3.658   5.294 -0.2578 -0.0257  0.7285
  147DOPC  H17R17534   4.562   3.717   5.218  1.8214 -1.3199  1.1825
  147DOPC  H17S17535   4.420   3.611   5.240 -1.0768  0.8090  1.2746
  147DOPC  C21817536   4.598   3.540   5.334 -0.0853 -0.0397 -0.4097
  147DOPC  H18R17537   4.647   3.489   5.249  0.2756 -0.7809  0.2331
  147DOPC  H18S17538   4.550   3.451   5.379 -2.5452  1.7503  0.8173
  147DOPC  H18T17539   4.681   3.575   5.400 -0.7347  0.3892  0.2043
  147DOPC   C3317540   3.711   3.259   6.677  0.0941  0.0904  0.2447
  147DOPC   H3X17541   3.609   3.295   6.705  0.5291  0.7210  1.0722
  147DOPC   H3Y17542   3.706   3.150   6.695 -1.3304 -0.0825 -1.0144
  147DOPC   C3417543   3.735   3.288   6.530  0.1872 -0.1249 -0.1304
  147DOPC   H4X17544   3.710   3.195   6.474 -1.6262  0.1426  0.1543
  147DOPC   H4Y17545   3.843   3.303   6.510  0.8245 -3.5027  0.2472
  147DOPC   C3517546   3.656   3.412   6.482  0.5329 -0.8000 -0.1884
  147DOPC   H5X17547   3.689   3.491   6.553 -0.7608  0.6300 -1.1126
  147DOPC   H5Y17548   3.546   3.402   6.489  0.4793 -2.4430 -2.2900
  147DOPC   C3617549   3.697   3.459   6.346  0.2320 -0.1515  0.3807
  147DOPC   H6X17550   3.627   3.543   6.329 -0.7048 -0.4740  2.3523
  147DOPC   H6Y17551   3.802   3.493   6.335  0.9243 -1.1165  3.2031
  147DOPC   C3717552   3.662   3.352   6.244 -0.0313  0.0596  0.8815
  147DOPC   H7X17553   3.723   3.260   6.258  2.7565  1.3324 -1.8329
  147DOPC   H7Y17554   3.554   3.332   6.261  0.1267  0.1937  2.1356
  147DOPC   C3817555   3.675   3.401   6.096 -0.5611 -1.0870 -0.3286
  147DOPC   H8X17556   3.639   3.506   6.089  0.4106 -0.6381  1.0707
  147DOPC   H8Y17557   3.612   3.344   6.025  0.4004 -1.0844 -1.2110
  147DOPC   C3917558   3.818   3.392   6.048  0.2000 -0.1676 -0.6374
  147DOPC   H9X17559   3.872   3.298   6.067 -0.3045 -0.9526 -2.8699
  147DOPC  C31017560   3.863   3.462   5.950  0.1283 -0.5308  0.1135
  147DOPC  H10X17561   3.966   3.461   5.913  0.8650  1.6781  1.9199
  147DOPC  C31117562   3.793   3.583   5.894  0.0495 -1.0570  0.0782
  147DOPC  H11X17563   3.818   3.674   5.952  1.4325  0.2091 -2.3435
  147DOPC  H11Y17564   3.682   3.582   5.888 -0.0096  0.3358  0.6676
  147DOPC  C31217565   3.846   3.601   5.755  0.4212 -0.1216 -0.1062
  147DOPC  H12X17566   3.817   3.513   5.694  0.2257  0.8542 -1.4565
  147DOPC  H12Y17567   3.956   3.610   5.744  0.2769  1.4702 -0.5139
  147DOPC  C31317568   3.787   3.726   5.682 -0.5042 -0.1629 -0.1199
  147DOPC  H13X17569   3.676   3.731   5.675 -0.6710 -2.2414  0.1762
  147DOPC  H13Y17570   3.810   3.820   5.735 -0.7393  0.4108 -1.0236
  147DOPC  C31417571   3.847   3.738   5.539 -0.1293  0.3801 -0.1311
  147DOPC  H14X17572   3.955   3.710   5.541 -0.1828  0.0221  2.8055
  147DOPC  H14Y17573   3.806   3.659   5.473  1.3178 -1.1171  0.6669
  147DOPC  C31517574   3.835   3.877   5.466 -0.5166 -0.7692 -0.0753
  147DOPC  H15X17575   3.727   3.899   5.451 -0.5746 -0.0807  1.1758
  147DOPC  H15Y17576   3.893   3.875   5.372 -0.3742 -1.3688  0.0225
  147DOPC  C31617577   3.900   3.995   5.547  0.1306  0.5647  0.3203
  147DOPC  H16X17578   3.876   4.093   5.501  1.4186  0.5766 -0.3529
  147DOPC  H16Y17579   3.864   4.004   5.652  2.3977 -0.6162  1.2778
  147DOPC  C31717580   4.057   3.991   5.563  0.0498 -0.2546 -1.2017
  147DOPC  H17X17581   4.073   3.896   5.618  1.1638  0.4287 -0.2934
  147DOPC  H17Y17582   4.085   3.994   5.455  0.3562 -2.6260 -1.2401
  147DOPC  C31817583   4.128   4.095   5.646 -0.1355  1.0520  0.1892
  147DOPC  H18X17584   4.111   4.092   5.756  1.6342 -1.2182  0.4714
  147DOPC  H18Y17585   4.235   4.067   5.640  0.2246  2.2951  0.4726
  147DOPC  H18Z17586   4.114   4.197   5.604 -0.1748  1.1431  0.4192
  148DOPC     N17587   2.731   5.092   7.024  0.0796  0.4550  0.2558
  148DOPC   C1217588   2.811   5.057   6.901  0.1628 -0.8309  0.6282
  148DOPC  H12A17589   2.743   5.057   6.817 -1.1789 -0.3912  1.6724
  148DOPC  H12B17590   2.842   4.953   6.904  1.0386 -0.5670  2.3645
  148DOPC   C1317591   2.674   5.233   7.032 -0.6102  0.4030  0.8544
  148DOPC  H13A17592   2.642   5.263   7.131  0.6695  2.6756  0.6451
  148DOPC  H13B17593   2.755   5.302   7.012 -0.4956 -0.1983 -0.8800
  148DOPC  H13C17594   2.597   5.250   6.959  1.6399 -0.2187 -1.8249
  148DOPC   C1417595   2.813   5.058   7.148 -0.3667  0.0564  0.0001
  148DOPC  H14A17596   2.881   5.141   7.151  0.4961 -0.4623 -2.6185
  148DOPC  H14B17597   2.757   5.046   7.240 -0.0401  1.1824  0.3597
  148DOPC  H14C17598   2.862   4.962   7.135 -0.0328  0.1302  0.6744
  148DOPC   C1517599   2.611   5.010   7.013  0.4636 -0.2336 -1.0470
  148DOPC  H15A17600   2.637   4.905   7.018  1.4512 -0.0546 -1.8962
  148DOPC  H15B17601   2.543   5.029   6.931 -0.4383 -0.9558 -0.4826
  148DOPC  H15C17602   2.545   5.021   7.098  0.9987 -3.4936 -0.0905
  148DOPC   C1117603   2.938   5.129   6.862 -0.0421 -0.7327  0.2795
  148DOPC  H11A17604   3.026   5.119   6.929  1.8617  1.7668 -1.6372
  148DOPC  H11B17605   2.977   5.083   6.768 -1.0288 -1.5828  0.2631
  148DOPC     P17606   2.872   5.325   6.716  0.0391 -0.0040 -0.2348
  148DOPC   O1317607   2.998   5.324   6.638  0.5635  0.2021  1.0093
  148DOPC   O1417608   2.803   5.454   6.741 -0.3998 -0.3807 -0.1419
  148DOPC   O1217609   2.908   5.269   6.859  0.2908  0.3285  0.5017
  148DOPC   O1117610   2.769   5.229   6.648  0.0292 -0.4543 -0.2452
  148DOPC    C117611   2.632   5.233   6.659  0.7586  0.3234  0.3960
  148DOPC    HA17612   2.584   5.332   6.675 -0.2171  0.0113 -0.4389
  148DOPC    HB17613   2.598   5.169   6.743  2.3954  1.0257  1.6412
  148DOPC    C217614   2.568   5.177   6.528  0.1322  0.6296  0.0831
  148DOPC    HS17615   2.465   5.144   6.550  0.2269 -0.1678 -0.6099
  148DOPC   O2117616   2.644   5.077   6.470 -0.0259 -0.0603  0.4607
  148DOPC   C2117617   2.649   4.965   6.537  1.2175  0.3808 -0.3990
  148DOPC   O2217618   2.570   4.939   6.630 -0.5183  0.1576 -0.0823
  148DOPC   C2217619   2.772   4.879   6.496 -0.0987  0.0404  0.0822
  148DOPC   H2R17620   2.848   4.873   6.577  0.7500 -0.5646 -0.7327
  148DOPC   H2S17621   2.819   4.922   6.405  0.3971 -1.9192 -0.6212
  148DOPC    C317622   2.559   5.297   6.429  0.1762  0.8805  0.2046
  148DOPC    HX17623   2.660   5.339   6.410  0.1105  0.2083 -1.9121
  148DOPC    HY17624   2.491   5.375   6.469 -2.4679 -0.8962 -0.5849
  148DOPC   O3117625   2.511   5.262   6.291  0.6812 -0.0822  0.0412
  148DOPC   C3117626   2.378   5.252   6.278 -0.0950  0.2465  0.3984
  148DOPC   O3217627   2.300   5.275   6.361  0.3492 -0.2582 -0.0344
  148DOPC   C3217628   2.353   5.231   6.128 -0.3299 -0.2620 -0.1427
  148DOPC   H2X17629   2.281   5.309   6.097  0.9836  0.7340 -0.7931
  148DOPC   H2Y17630   2.446   5.242   6.068  0.5770 -0.6713  1.1382
  148DOPC   C2317631   2.711   4.742   6.462 -0.7179  0.2561  0.0432
  148DOPC   H3R17632   2.640   4.707   6.540 -0.6602 -0.5406 -0.2560
  148DOPC   H3S17633   2.799   4.676   6.452 -1.0430 -0.0465 -0.9179
  148DOPC   C2417634   2.641   4.735   6.326 -0.6637 -0.0803 -0.5018
  148DOPC   H4R17635   2.564   4.813   6.309 -0.0990  0.0650 -2.6760
  148DOPC   H4S17636   2.589   4.639   6.305  0.0531 -0.6848  0.3906
  148DOPC   C2517637   2.740   4.743   6.208  0.2615 -0.2980  0.4866
  148DOPC   H5R17638   2.828   4.676   6.221 -0.8199 -2.0774 -0.8653
  148DOPC   H5S17639   2.769   4.849   6.192 -0.3333 -0.2051 -0.0227
  148DOPC   C2617640   2.688   4.681   6.079  0.0916 -0.2105 -0.8810
  148DOPC   H6R17641   2.600   4.737   6.042 -0.8162 -1.2806 -0.4189
  148DOPC   H6S17642   2.630   4.590   6.107 -1.2499  1.2385  1.3208
  148DOPC   C2717643   2.787   4.662   5.964  0.5439  0.8079  0.3744
  148DOPC   H7R17644   2.884   4.625   6.004 -0.1669 -1.0577  0.4967
  148DOPC   H7S17645   2.800   4.756   5.906  0.4522 -0.6121 -2.1285
  148DOPC   C2817646   2.744   4.551   5.862  0.3023 -0.7901 -0.4006
  148DOPC   H8R17647   2.712   4.464   5.923 -0.2051 -0.8936 -0.7980
  148DOPC   H8S17648   2.828   4.519   5.796 -0.5222  0.0010 -1.8860
  148DOPC   C2917649   2.629   4.590   5.772 -0.1909 -0.0920 -0.6018
  148DOPC   H9R17650   2.528   4.576   5.813  0.6872  2.5495  2.8873
  148DOPC  C21017651   2.628   4.644   5.649 -0.2503 -0.3757 -0.4572
  148DOPC  H10R17652   2.531   4.670   5.605 -0.6320 -2.3787 -0.8800
  148DOPC  C21117653   2.742   4.697   5.573 -0.3331  0.2513 -0.3105
  148DOPC  H11R17654   2.838   4.678   5.624 -1.3269  0.5781  1.7753
  148DOPC  H11S17655   2.737   4.806   5.551  2.9195  0.4548 -0.5297
  148DOPC  C21217656   2.744   4.620   5.438  0.4796 -0.1942 -0.2945
  148DOPC  H12R17657   2.829   4.663   5.380  0.1184 -0.1788 -0.8227
  148DOPC  H12S17658   2.658   4.651   5.375  1.0065  2.8465  0.3291
  148DOPC  C21317659   2.778   4.468   5.460  0.0233  0.0550  0.7355
  148DOPC  H13R17660   2.688   4.426   5.510 -1.3501  1.6353 -0.2963
  148DOPC  H13S17661   2.868   4.465   5.524  0.6662  1.0688 -0.0937
  148DOPC  C21417662   2.800   4.393   5.328 -0.3507 -0.0374 -0.3090
  148DOPC  H14R17663   2.791   4.285   5.348 -0.6809 -0.5723 -2.9264
  148DOPC  H14S17664   2.896   4.426   5.282  0.7446  0.1981  2.0034
  148DOPC  C21517665   2.684   4.427   5.232 -0.3337  0.8134  0.2710
  148DOPC  H15R17666   2.670   4.537   5.221 -0.3525  0.8861  0.9530
  148DOPC  H15S17667   2.585   4.397   5.272 -0.6085 -0.0038 -0.9657
  148DOPC  C21617668   2.696   4.371   5.086  0.0418  0.2253 -0.5803
  148DOPC  H16R17669   2.708   4.261   5.086 -0.3253  0.1608  1.2484
  148DOPC  H16S17670   2.783   4.414   5.032  0.5127 -0.9169 -0.7639
  148DOPC  C21717671   2.574   4.395   4.998  0.6649 -0.1402  0.4944
  148DOPC  H17R17672   2.505   4.315   5.033 -1.8469  1.4401 -0.5676
  148DOPC  H17S17673   2.595   4.369   4.892 -1.7981 -0.3318 -0.0084
  148DOPC  C21817674   2.497   4.527   5.002  0.0986 -0.1222  0.3696
  148DOPC  H18R17675   2.553   4.603   4.942 -1.1190  0.5007 -0.0127
  148DOPC  H18S17676   2.487   4.554   5.110  0.5559  0.1935  0.3404
  148DOPC  H18T17677   2.396   4.521   4.958 -0.8411  0.3863  2.3387
  148DOPC   C3317678   2.284   5.103   6.112  0.1536  0.1158  0.7633
  148DOPC   H3X17679   2.238   5.089   6.012 -3.5122 -0.5804  2.3584
  148DOPC   H3Y17680   2.186   5.097   6.164 -0.4133 -0.2366 -0.3069
  148DOPC   C3417681   2.371   4.981   6.130  0.5535 -0.0170  0.1173
  148DOPC   H4X17682   2.424   4.997   6.226  0.1900  1.6400  0.0605
  148DOPC   H4Y17683   2.438   4.980   6.041 -1.1621  0.2158 -1.2374
  148DOPC   C3517684   2.286   4.856   6.136 -0.7107  0.3996 -0.4089
  148DOPC   H5X17685   2.351   4.772   6.105  1.9068  2.4830 -0.9168
  148DOPC   H5Y17686   2.216   4.867   6.050 -0.1805 -3.0863 -1.4622
  148DOPC   C3617687   2.212   4.821   6.270 -0.3087 -0.2695 -0.5979
  148DOPC   H6X17688   2.282   4.810   6.356 -0.7828  0.2786 -0.1277
  148DOPC   H6Y17689   2.149   4.907   6.304 -0.9597 -0.6841 -0.7469
  148DOPC   C3717690   2.117   4.699   6.269  0.5928 -0.6074  0.7504
  148DOPC   H7X17691   2.182   4.611   6.250  0.4596 -0.4576 -0.5093
  148DOPC   H7Y17692   2.074   4.675   6.368 -0.7932 -0.4531  0.2069
  148DOPC   C3817693   1.995   4.711   6.165 -0.7327  0.2066 -0.1549
  148DOPC   H8X17694   2.034   4.746   6.068  1.6512 -1.3487  0.1592
  148DOPC   H8Y17695   1.913   4.778   6.199 -1.4854 -0.8421  0.1706
  148DOPC   C3917696   1.930   4.573   6.146 -0.3398 -0.0427 -0.0894
  148DOPC   H9X17697   1.981   4.487   6.191 -0.5620  0.9782  2.2591
  148DOPC  C31017698   1.805   4.557   6.107  0.3953 -0.0205 -0.3961
  148DOPC  H10X17699   1.777   4.452   6.087 -2.1002  0.4544  0.3463
  148DOPC  C31117700   1.703   4.656   6.053 -0.6774 -0.0725 -0.1055
  148DOPC  H11X17701   1.739   4.761   6.054 -0.8992  0.0025  0.1326
  148DOPC  H11Y17702   1.614   4.661   6.119 -0.6957  1.5614 -0.2171
  148DOPC  C31217703   1.664   4.628   5.907  0.2717  0.2522 -0.9953
  148DOPC  H12X17704   1.586   4.695   5.866  2.0459  1.8864 -1.8730
  148DOPC  H12Y17705   1.633   4.524   5.887 -0.8361  0.7051 -1.6914
  148DOPC  C31317706   1.785   4.634   5.805 -0.6907  0.1857 -0.3446
  148DOPC  H13X17707   1.825   4.735   5.829  0.6851 -0.4333  0.0113
  148DOPC  H13Y17708   1.856   4.555   5.838 -0.7099  0.6880  0.9886
  148DOPC  C31417709   1.744   4.626   5.656 -0.0963  0.2213 -0.2140
  148DOPC  H14X17710   1.711   4.529   5.613 -1.3079  0.1858  0.7251
  148DOPC  H14Y17711   1.655   4.692   5.646  0.8203  1.5715  0.3224
  148DOPC  C31517712   1.863   4.683   5.572 -0.6275 -0.2623  1.2914
  148DOPC  H15X17713   1.956   4.627   5.594 -0.6960 -0.9862 -0.1434
  148DOPC  H15Y17714   1.875   4.789   5.602  0.0781 -0.2012  0.8167
  148DOPC  C31617715   1.834   4.687   5.420 -0.2186 -0.6847 -1.4468
  148DOPC  H16X17716   1.815   4.582   5.389 -0.7961 -0.7309 -0.9411
  148DOPC  H16Y17717   1.750   4.759   5.415  0.9815  1.5665  3.9462
  148DOPC  C31717718   1.954   4.751   5.349  0.6859  0.4888 -0.6337
  148DOPC  H17X17719   1.984   4.852   5.382  1.0138  0.1509  0.1287
  148DOPC  H17Y17720   2.039   4.682   5.369  0.2270  0.7367  2.8006
  148DOPC  C31817721   1.918   4.763   5.198  0.3882  0.1247 -0.2490
  148DOPC  H18X17722   1.848   4.687   5.159  1.1568 -0.9810  0.4691
  148DOPC  H18Y17723   1.865   4.860   5.190  2.2243  1.1781 -0.2602
  148DOPC  H18Z17724   2.013   4.762   5.141 -0.1076 -1.7940 -1.1035
  149DOPC     N17725   3.605   2.515   7.317 -0.6214 -0.3248  0.1629
  149DOPC   C1217726   3.503   2.455   7.211  0.0730  0.7671  0.0625
  149DOPC  H12A17727   3.533   2.478   7.110 -0.6597  0.1102 -0.3119
  149DOPC  H12B17728   3.412   2.513   7.222 -0.9734 -1.0100  1.4593
  149DOPC   C1317729   3.739   2.453   7.309 -0.4878 -0.2985  0.1075
  149DOPC  H13A17730   3.768   2.461   7.205  3.5331  0.1614  1.1166
  149DOPC  H13B17731   3.815   2.494   7.373 -0.2412  0.1072 -0.4419
  149DOPC  H13C17732   3.734   2.348   7.336 -1.9093 -0.1857  0.3688
  149DOPC   C1417733   3.547   2.500   7.449  0.2238  0.1404 -0.6536
  149DOPC  H14A17734   3.623   2.515   7.525 -0.9426  0.3798  0.5030
  149DOPC  H14B17735   3.474   2.576   7.471 -0.7073 -0.7133 -0.7173
  149DOPC  H14C17736   3.501   2.402   7.440  1.3094 -0.2756 -2.0576
  149DOPC   C1517737   3.623   2.661   7.279 -0.2136  0.4698 -0.3235
  149DOPC  H15A17738   3.534   2.713   7.311 -1.0763 -0.1632 -1.6202
  149DOPC  H15B17739   3.643   2.676   7.174  0.7946  0.8065 -0.0869
  149DOPC  H15C17740   3.696   2.705   7.345 -0.5720  0.5142  0.0500
  149DOPC   C1117741   3.464   2.309   7.222  0.2955 -0.3844  0.2074
  149DOPC  H11A17742   3.396   2.280   7.139  0.8877 -1.5825  0.1253
  149DOPC  H11B17743   3.543   2.234   7.206  0.9068  0.5711 -1.4529
  149DOPC     P17744   3.243   2.323   7.361  0.0431 -0.2069 -0.3603
  149DOPC   O1317745   3.228   2.442   7.452 -0.7815 -0.2090 -0.4523
  149DOPC   O1417746   3.163   2.209   7.409 -0.4900  0.2706  0.3310
  149DOPC   O1217747   3.396   2.290   7.343 -0.1828  0.2232  0.2310
  149DOPC   O1117748   3.193   2.359   7.220 -0.7111  0.0960  0.1195
  149DOPC    C117749   3.082   2.447   7.201 -0.2864  0.7379 -0.2312
  149DOPC    HA17750   3.009   2.465   7.284 -1.7756  0.5024 -1.4357
  149DOPC    HB17751   3.013   2.406   7.124 -2.5737 -1.1141  2.5823
  149DOPC    C217752   3.123   2.594   7.152  0.1345 -0.7546  0.0502
  149DOPC    HS17753   3.028   2.628   7.105  1.2467  0.2921 -1.5317
  149DOPC   O2117754   3.228   2.594   7.053  0.0809  0.6172  0.3887
  149DOPC   C2117755   3.186   2.550   6.932  0.3971 -0.4740 -0.5920
  149DOPC   O2217756   3.073   2.525   6.903  0.4597 -0.0313 -0.4835
  149DOPC   C2217757   3.309   2.543   6.846 -0.8930  0.2237 -0.0865
  149DOPC   H2R17758   3.346   2.439   6.862 -0.1260  0.8748  2.8867
  149DOPC   H2S17759   3.390   2.603   6.892 -0.6404 -0.8587  0.9051
  149DOPC    C317760   3.146   2.710   7.264  0.7940 -0.2399  0.4857
  149DOPC    HX17761   3.229   2.681   7.331  0.6582  1.0459  1.2534
  149DOPC    HY17762   3.050   2.701   7.320 -0.7068 -0.6114 -1.9830
  149DOPC   O3117763   3.165   2.828   7.190  0.0003 -0.3082  0.3898
  149DOPC   C3117764   3.297   2.860   7.161  0.1775 -0.6153  0.8595
  149DOPC   O3217765   3.396   2.800   7.192  0.5673  0.0470  0.1235
  149DOPC   C3217766   3.293   2.989   7.078  0.4383 -0.1887 -0.2959
  149DOPC   H2X17767   3.191   2.995   7.034  0.5498  0.8779 -0.4504
  149DOPC   H2Y17768   3.284   3.073   7.150 -2.8637 -0.3217 -0.4226
  149DOPC   C2317769   3.289   2.564   6.692  0.3888 -0.1017  0.0277
  149DOPC   H3R17770   3.242   2.663   6.673 -0.3103 -0.7593 -1.9172
  149DOPC   H3S17771   3.212   2.497   6.649 -0.7216  0.7806  0.5776
  149DOPC   C2417772   3.420   2.540   6.609  0.0745 -0.0001 -0.4867
  149DOPC   H4R17773   3.455   2.436   6.624  0.5787  0.1201 -0.8312
  149DOPC   H4S17774   3.493   2.608   6.657 -1.9117  1.8789  0.0547
  149DOPC   C2517775   3.407   2.577   6.469 -0.8287 -0.4380  1.3105
  149DOPC   H5R17776   3.505   2.609   6.429 -2.3398  1.8589 -0.8791
  149DOPC   H5S17777   3.354   2.672   6.445  0.3621 -0.5638 -2.5308
  149DOPC   C2617778   3.338   2.465   6.382 -0.3066  0.5256 -0.3110
  149DOPC   H6R17779   3.233   2.464   6.418  0.2537 -1.2123  1.4779
  149DOPC   H6S17780   3.381   2.366   6.411  1.2187  1.1514 -0.3514
  149DOPC   C2717781   3.338   2.479   6.227  0.1524 -0.5898 -0.3163
  149DOPC   H7R17782   3.297   2.580   6.205  0.9746 -0.0458  0.5757
  149DOPC   H7S17783   3.268   2.400   6.193 -0.5513 -0.2249  0.2466
  149DOPC   C2817784   3.473   2.452   6.163  0.0888 -0.5936 -0.0956
  149DOPC   H8R17785   3.523   2.362   6.205  2.6944  0.1155 -1.4917
  149DOPC   H8S17786   3.536   2.533   6.204 -0.1150 -1.2401  1.5994
  149DOPC   C2917787   3.462   2.443   6.012  0.5200  0.4476 -0.4573
  149DOPC   H9R17788   3.472   2.340   5.974  2.0847 -0.1700  1.4875
  149DOPC  C21017789   3.440   2.550   5.927  0.4944  0.2878  0.5342
  149DOPC  H10R17790   3.437   2.528   5.819 -2.1367 -2.4248  1.0318
  149DOPC  C21117791   3.426   2.693   5.963  0.5599 -0.1484 -0.0315
  149DOPC  H11R17792   3.522   2.746   5.944  0.1165  1.4443  1.8115
  149DOPC  H11S17793   3.408   2.699   6.072  1.1372 -1.0664  0.1232
  149DOPC  C21217794   3.314   2.763   5.886 -0.7446 -0.7635  0.4307
  149DOPC  H12R17795   3.304   2.869   5.919 -1.9718 -0.9336  0.6777
  149DOPC  H12S17796   3.214   2.721   5.912  0.0918 -2.3966  1.1566
  149DOPC  C21317797   3.335   2.746   5.735 -0.2926  0.1481  0.0711
  149DOPC  H13R17798   3.304   2.643   5.707  1.6743 -0.4369 -0.0882
  149DOPC  H13S17799   3.444   2.755   5.715 -0.6265  1.2629 -1.4068
  149DOPC  C21417800   3.265   2.858   5.654  0.6173  0.5366 -0.0250
  149DOPC  H14R17801   3.323   2.952   5.656  0.5161  0.6023 -0.1791
  149DOPC  H14S17802   3.158   2.864   5.682  1.1897 -1.1977  2.9682
  149DOPC  C21517803   3.253   2.825   5.498  0.1431  0.5227  0.1808
  149DOPC  H15R17804   3.181   2.742   5.479  1.6650 -1.0294  1.0065
  149DOPC  H15S17805   3.357   2.794   5.474  0.0046 -2.2934  2.5800
  149DOPC  C21617806   3.188   2.941   5.405  0.1678  0.3279 -0.2882
  149DOPC  H16R17807   3.235   3.038   5.433  1.2322  0.6967 -3.0285
  149DOPC  H16S17808   3.080   2.952   5.428  0.5778  0.8561  1.4928
  149DOPC  C21717809   3.222   2.925   5.258  0.4852  0.7955 -0.4581
  149DOPC  H17R17810   3.332   2.938   5.244  0.8707 -1.2653  0.3096
  149DOPC  H17S17811   3.175   3.006   5.199 -1.3865  0.5253  0.5974
  149DOPC  C21817812   3.173   2.796   5.185  0.6904 -0.6590  0.2959
  149DOPC  H18R17813   3.178   2.818   5.077 -2.3450 -0.2010  0.1482
  149DOPC  H18S17814   3.063   2.782   5.196  0.9074 -0.9390  2.7211
  149DOPC  H18T17815   3.220   2.699   5.210 -1.1341 -1.8660 -0.6957
  149DOPC   C3317816   3.398   3.028   6.968  0.0672  0.2815 -0.0184
  149DOPC   H3X17817   3.501   3.002   7.001 -0.6125 -2.1967  0.4145
  149DOPC   H3Y17818   3.386   3.136   6.945  1.6541  0.6612  0.8050
  149DOPC   C3417819   3.370   2.947   6.838  0.2805  0.4120  0.2412
  149DOPC   H4X17820   3.262   2.926   6.826 -0.1547  2.6843 -0.4143
  149DOPC   H4Y17821   3.431   2.855   6.848  0.7270  0.3775 -2.0559
  149DOPC   C3517822   3.399   3.026   6.713 -0.0894  0.0780 -0.0514
  149DOPC   H5X17823   3.505   3.058   6.721  0.4150 -0.6261 -2.6890
  149DOPC   H5Y17824   3.338   3.118   6.703  1.6103  1.1709 -0.6817
  149DOPC   C3617825   3.402   2.954   6.580  0.0134 -0.1506 -0.0019
  149DOPC   H6X17826   3.498   2.899   6.572  0.5935  0.5930  1.4546
  149DOPC   H6Y17827   3.311   2.893   6.565 -0.9318  1.2897 -0.3641
  149DOPC   C3717828   3.414   3.056   6.461 -0.2323 -0.4918  0.1845
  149DOPC   H7X17829   3.358   3.149   6.487  0.5971  0.3573 -0.9522
  149DOPC   H7Y17830   3.521   3.084   6.456 -0.2187 -0.2539  1.4912
  149DOPC   C3817831   3.361   2.993   6.329 -0.1570  0.2527  0.5217
  149DOPC   H8X17832   3.252   2.980   6.347 -0.6453  0.3187 -1.9891
  149DOPC   H8Y17833   3.402   2.890   6.333  0.2770  0.4519  1.5238
  149DOPC   C3917834   3.406   3.086   6.209 -0.3777 -0.2721  0.3772
  149DOPC   H9X17835   3.507   3.067   6.168  0.1842 -0.0003  1.5919
  149DOPC  C31017836   3.327   3.179   6.146 -0.6189 -0.0422 -1.0454
  149DOPC  H10X17837   3.376   3.230   6.062  0.9240 -2.7583 -1.9332
  149DOPC  C31117838   3.184   3.225   6.165 -0.0488  0.9425  0.1739
  149DOPC  H11X17839   3.185   3.336   6.165  2.8693  1.0055 -0.4597
  149DOPC  H11Y17840   3.134   3.181   6.254  1.6031 -0.8991  0.2696
  149DOPC  C31217841   3.105   3.179   6.039 -0.2401  0.4991 -1.1791
  149DOPC  H12X17842   3.095   3.069   6.032 -2.3117  0.4482  1.2477
  149DOPC  H12Y17843   3.155   3.213   5.946  1.9780  0.0278 -0.2299
  149DOPC  C31317844   2.965   3.229   6.048 -0.8629 -0.2242  0.0344
  149DOPC  H13X17845   2.908   3.186   6.132  0.7806  0.1577  1.4173
  149DOPC  H13Y17846   2.957   3.338   6.068 -1.4694 -0.2065 -0.2782
  149DOPC  C31417847   2.886   3.203   5.921  0.4937  0.8174 -0.1112
  149DOPC  H14X17848   2.792   3.262   5.913  0.3622  0.5541 -0.5149
  149DOPC  H14Y17849   2.933   3.237   5.826 -1.5900  0.0182 -1.5057
  149DOPC  C31517850   2.848   3.062   5.901 -0.0104  0.2325 -0.4891
  149DOPC  H15X17851   2.778   3.040   5.985 -0.8349  2.4586 -0.5237
  149DOPC  H15Y17852   2.938   3.000   5.885 -0.0143  0.4038 -1.1875
  149DOPC  C31617853   2.776   3.032   5.772 -0.7198  0.4628 -0.6330
  149DOPC  H16X17854   2.748   2.925   5.775  0.1367  0.2086 -1.1941
  149DOPC  H16Y17855   2.685   3.094   5.762 -1.9120 -1.3172 -1.1842
  149DOPC  C31717856   2.858   3.038   5.645  0.2535  0.3896 -0.1546
  149DOPC  H17X17857   2.852   3.144   5.614 -5.0158  1.0886  2.2159
  149DOPC  H17Y17858   2.964   3.014   5.671 -0.2111 -0.2662  1.2204
  149DOPC  C31817859   2.797   2.946   5.541  0.1425 -0.6052  0.2402
  149DOPC  H18X17860   2.773   2.849   5.588  1.0629 -0.4240  1.1149
  149DOPC  H18Y17861   2.700   2.992   5.513 -0.1383 -0.0478  2.0048
  149DOPC  H18Z17862   2.862   2.934   5.451 -0.2224 -2.3626  0.1916
  150DOPC     N17863   7.557   5.882   6.949  0.1595  0.0702  0.2553
  150DOPC   C1217864   7.548   5.781   6.833  0.6985 -0.0980 -1.1647
  150DOPC  H12A17865   7.599   5.689   6.857 -1.6449 -1.0765  0.3530
  150DOPC  H12B17866   7.593   5.825   6.745 -0.6055 -0.0513 -1.8282
  150DOPC   C1317867   7.696   5.910   6.983 -0.7882 -0.3158  0.2846
  150DOPC  H13A17868   7.731   5.983   6.911  0.6672 -0.7958  0.4864
  150DOPC  H13B17869   7.696   5.962   7.078  4.4894  0.4984  0.1035
  150DOPC  H13C17870   7.752   5.820   6.999 -1.3999 -0.5003  1.4978
  150DOPC   C1417871   7.498   5.825   7.075  0.3458  0.3016 -0.0068
  150DOPC  H14A17872   7.499   5.905   7.148 -1.6833  1.6844 -1.3750
  150DOPC  H14B17873   7.402   5.779   7.061  1.1224 -1.1776 -0.7192
  150DOPC  H14C17874   7.571   5.755   7.113 -0.1936  0.9128  2.3160
  150DOPC   C1517875   7.494   6.014   6.914  0.5331  0.0896 -0.2859
  150DOPC  H15A17876   7.387   6.001   6.912  0.4747  0.5975 -0.6310
  150DOPC  H15B17877   7.517   6.046   6.813  0.1047 -2.0706 -1.1428
  150DOPC  H15C17878   7.515   6.091   6.986  1.1981 -1.1385  0.8775
  150DOPC   C1117879   7.402   5.737   6.790  0.0520  0.0829  0.2868
  150DOPC  H11A17880   7.338   5.826   6.773 -0.9094 -0.8235 -1.0400
  150DOPC  H11B17881   7.411   5.691   6.689  2.2482  2.1229 -0.5355
  150DOPC     P17882   7.407   5.504   6.912  0.1751 -0.1412  0.3450
  150DOPC   O1317883   7.413   5.489   7.058  0.0400  0.1904 -0.0565
  150DOPC   O1417884   7.528   5.492   6.835  0.3120  0.0554  0.4643
  150DOPC   O1217885   7.344   5.650   6.885  0.7990  0.0980 -0.4678
  150DOPC   O1117886   7.303   5.399   6.854 -0.1447  0.5290 -0.1224
  150DOPC    C117887   7.167   5.398   6.907 -0.1437 -0.8290  0.0928
  150DOPC    HA17888   7.151   5.482   6.977 -0.0203  1.3356 -2.3437
  150DOPC    HB17889   7.151   5.301   6.961 -1.7667 -0.9879 -0.6228
  150DOPC    C217890   7.069   5.397   6.794  0.4822  0.0293  0.4712
  150DOPC    HS17891   6.968   5.387   6.838 -0.5858 -0.5510 -1.9423
  150DOPC   O2117892   7.103   5.287   6.708  0.0751  0.1918 -0.4777
  150DOPC   C2117893   6.994   5.227   6.658 -0.2825  0.1101  0.1544
  150DOPC   O2217894   6.880   5.265   6.661  0.4541 -0.4962 -0.1289
  150DOPC   C2217895   7.043   5.092   6.597 -0.1561  0.0898  0.3989
  150DOPC   H2R17896   6.991   5.002   6.636  0.5565 -1.2597 -1.6084
  150DOPC   H2S17897   7.153   5.082   6.603 -0.0938  0.9323  0.8165
  150DOPC    C317898   7.070   5.531   6.713 -0.1039 -0.1332 -0.6111
  150DOPC    HX17899   7.175   5.556   6.686  0.3690 -1.5093 -0.1413
  150DOPC    HY17900   7.044   5.614   6.782 -2.4216  0.1447 -1.7345
  150DOPC   O3117901   6.981   5.531   6.600  0.4482 -0.2859  0.0683
  150DOPC   C3117902   6.862   5.582   6.621  0.1652 -0.0884 -0.3918
  150DOPC   O3217903   6.831   5.644   6.724  0.0005  0.7542  0.0096
  150DOPC   C3217904   6.773   5.571   6.504 -0.3247  0.6783  0.5379
  150DOPC   H2X17905   6.749   5.676   6.477  0.6025  0.4262 -1.4503
  150DOPC   H2Y17906   6.829   5.532   6.416  0.1946  1.8895  0.3065
  150DOPC   C2317907   6.984   5.103   6.453 -0.2401  0.0754 -0.5327
  150DOPC   H3R17908   6.875   5.126   6.452  0.1774  2.1711 -1.9771
  150DOPC   H3S17909   6.995   5.003   6.405  0.0028 -0.8828  1.4296
  150DOPC   C2417910   7.060   5.198   6.363 -0.6108 -0.0241  0.4853
  150DOPC   H4R17911   7.168   5.175   6.352 -0.6707 -0.7717  1.3017
  150DOPC   H4S17912   7.050   5.299   6.407  0.0747 -0.6494  2.1584
  150DOPC   C2517913   6.988   5.201   6.223 -0.0726  0.3878 -0.5701
  150DOPC   H5R17914   6.904   5.274   6.226 -0.0828  0.3424  0.3342
  150DOPC   H5S17915   6.952   5.099   6.199 -1.1117  0.6975 -0.3891
  150DOPC   C2617916   7.084   5.239   6.101  0.6957  0.2399  0.6263
  150DOPC   H6R17917   7.150   5.151   6.085 -1.3366 -1.1990 -0.2712
  150DOPC   H6S17918   7.142   5.330   6.126  1.8637  0.3446 -2.1338
  150DOPC   C2717919   7.024   5.262   5.963 -0.1018  0.3613  0.0076
  150DOPC   H7R17920   7.111   5.275   5.896 -0.2295  3.0322  0.2489
  150DOPC   H7S17921   6.974   5.361   5.962 -2.0931 -0.5901 -0.2367
  150DOPC   C2817922   6.912   5.176   5.898 -0.5110 -0.1186 -0.5073
  150DOPC   H8R17923   6.869   5.207   5.800  1.5024 -1.1648 -1.7804
  150DOPC   H8S17924   6.834   5.171   5.977  1.9987 -1.6803  2.0892
  150DOPC   C2917925   6.959   5.037   5.890 -0.2189 -0.4141 -0.4046
  150DOPC   H9R17926   6.992   5.008   5.991 -0.6198  0.1378 -0.1114
  150DOPC  C21017927   6.972   4.960   5.783  0.2385 -0.0295  0.2049
  150DOPC  H10R17928   6.992   4.856   5.814  0.1534 -0.0380  0.2314
  150DOPC  C21117929   6.928   4.984   5.642 -0.4280  0.2321 -0.0500
  150DOPC  H11R17930   6.985   4.930   5.563 -2.2379 -2.1192  0.1379
  150DOPC  H11S17931   6.922   5.093   5.621 -1.1483  0.5419  1.5883
  150DOPC  C21217932   6.790   4.929   5.623  0.3103 -0.2319  0.2893
  150DOPC  H12R17933   6.765   4.848   5.695 -0.6207 -0.2445 -0.0255
  150DOPC  H12S17934   6.777   4.894   5.518  0.6416  3.8951 -1.3289
  150DOPC  C21317935   6.680   5.039   5.638 -0.7832  0.4233  0.0597
  150DOPC  H13R17936   6.692   5.114   5.557  0.4375  2.2844  1.8970
  150DOPC  H13S17937   6.693   5.096   5.732 -1.1165  0.1533  0.2731
  150DOPC  C21417938   6.538   4.978   5.641  0.1519 -0.1608  0.0445
  150DOPC  H14R17939   6.469   5.050   5.691 -0.6206 -0.9772  0.1763
  150DOPC  H14S17940   6.533   4.879   5.691 -1.3018  0.9470  2.2795
  150DOPC  C21517941   6.491   4.963   5.495 -0.3205 -0.0701 -0.0683
  150DOPC  H15R17942   6.574   4.911   5.443 -1.0269 -1.7394  0.3861
  150DOPC  H15S17943   6.465   5.063   5.454 -2.3887  0.7806  2.9389
  150DOPC  C21617944   6.373   4.876   5.477 -0.0497  0.1518  0.4513
  150DOPC  H16R17945   6.288   4.919   5.535 -1.3179 -2.5879  0.8064
  150DOPC  H16S17946   6.412   4.778   5.511  3.8221  0.5103 -2.3296
  150DOPC  C21717947   6.338   4.856   5.327 -0.0664 -0.5042 -0.3281
  150DOPC  H17R17948   6.282   4.760   5.319 -2.2060  0.6259  0.2837
  150DOPC  H17S17949   6.435   4.847   5.273  0.3769 -2.8797  0.7240
  150DOPC  C21817950   6.255   4.969   5.274 -0.3721  0.0137 -1.1603
  150DOPC  H18R17951   6.240   4.969   5.164  0.8785 -2.6463 -1.4013
  150DOPC  H18S17952   6.292   5.069   5.306  0.3255 -0.5901 -0.0246
  150DOPC  H18T17953   6.154   4.952   5.317  0.7284 -0.0692  1.6391
  150DOPC   C3317954   6.633   5.506   6.525  0.5146 -0.2780  0.4003
  150DOPC   H3X17955   6.589   5.572   6.602 -2.4731 -1.6142 -0.0295
  150DOPC   H3Y17956   6.650   5.401   6.555  1.5197 -0.6011 -1.1807
  150DOPC   C3417957   6.531   5.514   6.402  0.3039  0.0607  0.9366
  150DOPC   H4X17958   6.554   5.616   6.363 -0.1635 -0.0132  0.4683
  150DOPC   H4Y17959   6.424   5.520   6.428 -0.1607 -1.3522 -0.5003
  150DOPC   C3517960   6.558   5.403   6.303  0.3926 -0.3809  0.2575
  150DOPC   H5X17961   6.511   5.309   6.339 -0.9871  1.0347  2.3876
  150DOPC   H5Y17962   6.666   5.380   6.289  0.6629  0.8172  0.2573
  150DOPC   C3617963   6.511   5.438   6.162 -0.1312 -0.4042  0.0577
  150DOPC   H6X17964   6.407   5.476   6.166 -0.1228 -0.4653  1.6149
  150DOPC   H6Y17965   6.576   5.514   6.112 -0.9178  0.6142  0.5339
  150DOPC   C3717966   6.525   5.323   6.069 -0.2807 -0.3834  0.5754
  150DOPC   H7X17967   6.617   5.262   6.087 -1.1770 -2.2846 -0.8800
  150DOPC   H7Y17968   6.429   5.267   6.077 -1.4727  1.0359 -2.3443
  150DOPC   C3817969   6.542   5.361   5.922  0.4206  0.1841 -0.1065
  150DOPC   H8X17970   6.454   5.424   5.898  0.1897  0.5616  1.6244
  150DOPC   H8Y17971   6.542   5.269   5.859 -3.0487  0.3046 -0.4743
  150DOPC   C3917972   6.672   5.440   5.896 -0.4408  0.0793  0.6354
  150DOPC   H9X17973   6.765   5.400   5.938 -1.1446 -0.2882  1.8800
  150DOPC  C31017974   6.685   5.558   5.832 -0.1748  0.1911  1.1363
  150DOPC  H10X17975   6.786   5.595   5.809 -0.2790 -0.0471  0.2207
  150DOPC  C31117976   6.564   5.631   5.768  0.1863  0.5290 -0.6334
  150DOPC  H11X17977   6.601   5.732   5.740 -2.1213  1.4863 -0.4710
  150DOPC  H11Y17978   6.482   5.634   5.843  0.3300  1.2333 -0.4938
  150DOPC  C31217979   6.527   5.570   5.628  0.0206 -0.4643 -0.5298
  150DOPC  H12X17980   6.481   5.473   5.656  1.6532 -1.1743 -0.1558
  150DOPC  H12Y17981   6.624   5.550   5.578 -0.3529 -1.9210 -0.7186
  150DOPC  C31317982   6.440   5.662   5.546 -0.6241 -0.6023  0.0118
  150DOPC  H13X17983   6.340   5.659   5.595 -0.6482 -0.3267 -0.0174
  150DOPC  H13Y17984   6.475   5.768   5.546 -3.4348  0.4382  1.3701
  150DOPC  C31417985   6.428   5.619   5.403 -0.2156 -0.1955 -0.1398
  150DOPC  H14X17986   6.529   5.629   5.359  0.0172  0.0474  0.4463
  150DOPC  H14Y17987   6.398   5.513   5.392  2.0503 -1.1015  1.7348
  150DOPC  C31517988   6.323   5.706   5.343  0.2806  0.0918  0.3408
  150DOPC  H15X17989   6.352   5.813   5.352  0.2681 -0.0479  2.5732
  150DOPC  H15Y17990   6.223   5.694   5.388 -0.0375  2.8436  0.5260
  150DOPC  C31617991   6.306   5.676   5.191  0.0861 -0.0229 -0.7638
  150DOPC  H16X17992   6.404   5.691   5.141 -1.3547  1.5772 -3.3364
  150DOPC  H16Y17993   6.265   5.574   5.174 -0.6529 -0.6926  3.7191
  150DOPC  C31717994   6.216   5.789   5.135  0.0545  0.5047 -0.1108
  150DOPC  H17X17995   6.115   5.785   5.181  0.6365 -0.9689  1.1346
  150DOPC  H17Y17996   6.249   5.889   5.172  0.1507  0.0416  1.0982
  150DOPC  C31817997   6.209   5.784   4.985  0.1061 -0.3138  0.2289
  150DOPC  H18X17998   6.181   5.881   4.939 -3.1860 -1.5259 -0.6070
  150DOPC  H18Y17999   6.308   5.749   4.949 -1.0280 -2.0490 -1.4232
  150DOPC  H18Z18000   6.130   5.710   4.959 -1.1521  0.5106  1.5757
  151DOPC     N18001   2.301   3.327   7.577  0.7456  0.1892  0.3045
  151DOPC   C1218002   2.271   3.381   7.433 -0.6183 -0.1388 -0.0951
  151DOPC  H12A18003   2.212   3.471   7.434  1.1979  1.1404 -0.8030
  151DOPC  H12B18004   2.219   3.305   7.377 -0.8714 -2.0252  2.5188
  151DOPC   C1318005   2.382   3.417   7.662 -0.4826 -0.3986  0.6091
  151DOPC  H13A18006   2.341   3.516   7.679  1.4466  0.2686  1.7997
  151DOPC  H13B18007   2.407   3.380   7.760  0.4341 -3.0485 -0.5409
  151DOPC  H13C18008   2.471   3.443   7.606 -0.6480 -0.2196  0.4257
  151DOPC   C1418009   2.378   3.198   7.569 -0.3522 -0.4474  0.3273
  151DOPC  H14A18010   2.385   3.150   7.665 -2.2823 -1.9517 -0.2289
  151DOPC  H14B18011   2.308   3.131   7.522  0.4914 -1.4049  0.4115
  151DOPC  H14C18012   2.476   3.211   7.525  0.2222  0.1174  1.7203
  151DOPC   C1518013   2.169   3.312   7.651  0.4018 -0.7216 -0.2833
  151DOPC  H15A18014   2.124   3.409   7.664  3.2063  0.8409 -1.4776
  151DOPC  H15B18015   2.185   3.281   7.753 -0.9567 -0.2112  0.1107
  151DOPC  H15C18016   2.102   3.239   7.607  0.1193 -0.9549  0.5292
  151DOPC   C1118017   2.388   3.437   7.341  0.6280  0.0780  0.1976
  151DOPC  H11A18018   2.333   3.476   7.253  0.5776 -0.6159 -0.0904
  151DOPC  H11B18019   2.449   3.516   7.390 -2.2937  1.7812  1.2991
  151DOPC     P18020   2.444   3.236   7.174 -0.3260  0.2958 -0.0683
  151DOPC   O1318021   2.330   3.148   7.211  0.2812  0.0132 -0.5005
  151DOPC   O1418022   2.567   3.168   7.132  0.0914  0.5913  0.4052
  151DOPC   O1218023   2.478   3.329   7.300 -0.2322  0.5175  0.7377
  151DOPC   O1118024   2.389   3.336   7.071 -0.2079 -0.0093 -0.2432
  151DOPC    C118025   2.482   3.431   7.017  0.4457  0.5327  0.5126
  151DOPC    HA18026   2.586   3.395   7.001 -0.0733 -0.3589 -1.1182
  151DOPC    HB18027   2.490   3.517   7.087 -2.9584  1.1652  0.2713
  151DOPC    C218028   2.439   3.492   6.881 -0.2960  0.4159 -0.0358
  151DOPC    HS18029   2.334   3.530   6.885 -0.0478  1.1101  0.1071
  151DOPC   O2118030   2.468   3.388   6.786 -0.2525  0.1570  0.3622
  151DOPC   C2118031   2.362   3.321   6.739  0.2601  0.3867 -0.3588
  151DOPC   O2218032   2.250   3.327   6.779  0.6153  0.0131  0.3840
  151DOPC   C2218033   2.414   3.235   6.623 -0.1875 -0.4450 -0.2978
  151DOPC   H2R18034   2.472   3.154   6.672  1.7839  0.8533 -0.3808
  151DOPC   H2S18035   2.483   3.292   6.559 -2.2833  0.2717 -2.0438
  151DOPC    C318036   2.527   3.618   6.851  0.2783 -0.4416  0.5191
  151DOPC    HX18037   2.633   3.595   6.878  0.2299 -1.4189 -0.0651
  151DOPC    HY18038   2.493   3.700   6.917  0.8071 -0.5238  0.9010
  151DOPC   O3118039   2.524   3.652   6.710 -0.3201  0.1173  0.0666
  151DOPC   C3118040   2.550   3.782   6.683 -0.5374  0.7397  0.5178
  151DOPC   O3218041   2.595   3.859   6.764 -0.0226  0.1481 -0.2203
  151DOPC   C3218042   2.506   3.811   6.539 -0.3712 -0.0143  0.1870
  151DOPC   H2X18043   2.481   3.716   6.488  0.7906 -0.4674  0.4305
  151DOPC   H2Y18044   2.417   3.877   6.549 -0.6797 -0.4257  0.1908
  151DOPC   C2318045   2.313   3.201   6.505  0.4372 -0.1457  0.0330
  151DOPC   H3R18046   2.268   3.290   6.455  1.8432  0.5445 -0.0668
  151DOPC   H3S18047   2.233   3.135   6.545  0.5421 -1.3952 -1.7180
  151DOPC   C2418048   2.392   3.126   6.397 -0.6713 -0.0419 -0.0435
  151DOPC   H4R18049   2.436   3.031   6.433  0.6698  0.3125 -0.6855
  151DOPC   H4S18050   2.475   3.191   6.360 -2.3469  0.7835 -2.5969
  151DOPC   C2518051   2.300   3.067   6.277  0.5173 -0.0154 -0.7634
  151DOPC   H5R18052   2.250   3.151   6.224 -0.5294 -1.3833 -2.0309
  151DOPC   H5S18053   2.230   3.003   6.335 -0.1515 -0.5677 -2.1415
  151DOPC   C2618054   2.369   2.972   6.182 -1.0523 -0.2549 -0.0018
  151DOPC   H6R18055   2.407   2.878   6.226 -1.6500 -2.3593 -3.5594
  151DOPC   H6S18056   2.462   3.021   6.143 -0.3409  0.9285  2.9506
  151DOPC   C2718057   2.276   2.924   6.066  0.4877 -0.0179  0.1370
  151DOPC   H7R18058   2.242   3.009   6.003  2.3078 -0.3089 -1.3278
  151DOPC   H7S18059   2.183   2.896   6.118 -0.8884 -0.5810 -2.4726
  151DOPC   C2818060   2.338   2.816   5.977 -0.1206 -0.0958  0.8272
  151DOPC   H8R18061   2.262   2.770   5.909 -0.6201 -0.0268  1.3334
  151DOPC   H8S18062   2.376   2.735   6.043  0.7562 -0.5445 -0.1899
  151DOPC   C2918063   2.453   2.854   5.888 -0.1557 -0.3336  0.0805
  151DOPC   H9R18064   2.545   2.886   5.940  0.5207  0.3243 -1.4649
  151DOPC  C21018065   2.452   2.873   5.752  0.5654  0.2563 -0.2966
  151DOPC  H10R18066   2.541   2.911   5.701  0.5088 -0.3859 -0.8839
  151DOPC  C21118067   2.336   2.843   5.667  0.9483  0.5438  0.9802
  151DOPC  H11R18068   2.334   2.913   5.580  3.5882 -0.8033 -0.2732
  151DOPC  H11S18069   2.239   2.849   5.721  0.9285 -0.7870  1.1133
  151DOPC  C21218070   2.335   2.702   5.607  0.1433  0.0811  0.0848
  151DOPC  H12R18071   2.246   2.687   5.543  0.0043 -0.2649  0.3543
  151DOPC  H12S18072   2.323   2.630   5.691 -0.3225 -0.1311 -0.1642
  151DOPC  C21318073   2.465   2.667   5.532 -0.3459  0.2218 -0.0276
  151DOPC  H13R18074   2.555   2.658   5.596  2.8542 -0.4822 -4.1890
  151DOPC  H13S18075   2.491   2.751   5.465 -1.2071  0.4917 -0.0351
  151DOPC  C21418076   2.462   2.533   5.460 -0.2266 -0.3564 -0.3081
  151DOPC  H14R18077   2.388   2.538   5.377 -0.2656  0.5699 -0.2279
  151DOPC  H14S18078   2.415   2.453   5.520 -3.8107  0.4891 -1.7304
  151DOPC  C21518079   2.599   2.482   5.410 -0.0964 -0.0302 -0.3654
  151DOPC  H15R18080   2.593   2.378   5.371  1.6402  0.3437 -1.7694
  151DOPC  H15S18081   2.676   2.490   5.489  0.8232 -0.4966 -1.1922
  151DOPC  C21618082   2.640   2.568   5.288 -0.3645  0.1568 -0.1211
  151DOPC  H16R18083   2.636   2.674   5.321 -0.1622 -0.0695  0.6331
  151DOPC  H16S18084   2.562   2.561   5.209 -2.0533  0.5132  1.4524
  151DOPC  C21718085   2.779   2.525   5.241 -0.7849 -0.0130 -0.0475
  151DOPC  H17R18086   2.790   2.415   5.232  0.4200  0.0984 -0.1867
  151DOPC  H17S18087   2.862   2.543   5.312 -0.4610 -0.2671 -0.3550
  151DOPC  C21818088   2.831   2.575   5.102  0.2618 -0.0797 -0.4491
  151DOPC  H18R18089   2.932   2.531   5.095 -0.4715 -1.8207 -0.6993
  151DOPC  H18S18090   2.845   2.684   5.111  1.2003 -0.2591  0.3664
  151DOPC  H18T18091   2.763   2.558   5.016  0.6411 -1.1889 -0.5486
  151DOPC   C3318092   2.622   3.883   6.466  0.6153  0.3814 -0.0380
  151DOPC   H3X18093   2.711   3.817   6.462 -0.9050 -1.7421 -1.8798
  151DOPC   H3Y18094   2.646   3.977   6.519 -1.6437  0.0116  1.8475
  151DOPC   C3418095   2.582   3.918   6.319 -0.1041  0.1068  0.9422
  151DOPC   H4X18096   2.534   3.832   6.268  0.7313  0.7124 -0.9595
  151DOPC   H4Y18097   2.676   3.940   6.263  0.3630 -2.8686  0.4074
  151DOPC   C3518098   2.493   4.040   6.308  0.2914 -0.4124  0.4664
  151DOPC   H5X18099   2.523   4.109   6.389  0.0532  0.2478  0.0004
  151DOPC   H5Y18100   2.386   4.015   6.328 -0.3631  2.2942  0.7531
  151DOPC   C3618101   2.490   4.101   6.171  0.3538 -1.6369  0.3239
  151DOPC   H6X18102   2.589   4.143   6.145 -0.3683  1.1741  1.7064
  151DOPC   H6Y18103   2.459   4.027   6.094 -0.2719  1.1965 -2.4169
  151DOPC   C3718104   2.404   4.237   6.154  0.1264 -0.3836  0.3766
  151DOPC   H7X18105   2.299   4.224   6.188  0.0760 -1.7233 -0.2155
  151DOPC   H7Y18106   2.460   4.313   6.213  2.2602 -1.0741 -0.6696
  151DOPC   C3818107   2.417   4.286   6.009 -0.0006 -0.4766 -0.3124
  151DOPC   H8X18108   2.397   4.201   5.940 -0.0061 -0.4867 -0.2978
  151DOPC   H8Y18109   2.525   4.308   6.016 -0.3823  1.6465 -0.4172
  151DOPC   C3918110   2.325   4.404   5.980 -0.4461  0.2189  0.2045
  151DOPC   H9X18111   2.312   4.479   6.060  2.2169  0.7206  0.2286
  151DOPC  C31018112   2.256   4.419   5.864  0.1630 -0.2167 -0.1321
  151DOPC  H10X18113   2.180   4.499   5.853 -1.0014 -0.8418  2.5238
  151DOPC  C31118114   2.264   4.320   5.752 -0.3548  0.1648 -0.0704
  151DOPC  H11X18115   2.216   4.222   5.769  0.1620 -0.5580 -2.3390
  151DOPC  H11Y18116   2.364   4.292   5.711 -1.0864 -0.3424 -1.5667
  151DOPC  C31218117   2.188   4.385   5.628  0.0719  0.5234 -0.3679
  151DOPC  H12X18118   2.233   4.485   5.609 -1.5594  0.8044 -3.3421
  151DOPC  H12Y18119   2.084   4.404   5.663 -0.0145 -1.9651  0.9533
  151DOPC  C31318120   2.172   4.293   5.503 -0.5675 -0.0154 -0.0309
  151DOPC  H13X18121   2.278   4.281   5.470 -1.2474  0.6491 -2.7128
  151DOPC  H13Y18122   2.118   4.198   5.522  1.4471 -1.0659  0.8094
  151DOPC  C31418123   2.103   4.352   5.380 -0.8731  0.9206 -0.1213
  151DOPC  H14X18124   1.993   4.354   5.398 -0.8024  0.1468  0.4357
  151DOPC  H14Y18125   2.134   4.458   5.375  0.2595  0.6015 -0.0438
  151DOPC  C31518126   2.150   4.279   5.249  0.3666 -0.3891 -0.7800
  151DOPC  H15X18127   2.113   4.176   5.262 -2.5742  0.4488 -1.8230
  151DOPC  H15Y18128   2.260   4.293   5.256  0.0088  2.9189  0.1724
  151DOPC  C31618129   2.105   4.355   5.128  0.6561 -0.0303 -0.3717
  151DOPC  H16X18130   2.128   4.463   5.117 -0.7968  0.6467  2.2153
  151DOPC  H16Y18131   2.150   4.302   5.041  0.9725 -1.1875  0.4666
  151DOPC  C31718132   1.954   4.343   5.106 -0.0554 -0.0231  0.1382
  151DOPC  H17X18133   1.937   4.238   5.075  3.9510 -0.1119 -2.4281
  151DOPC  H17Y18134   1.894   4.364   5.197 -1.5567 -1.6065 -0.4271
  151DOPC  C31818135   1.906   4.431   4.988 -0.1965 -0.3828 -0.0686
  151DOPC  H18X18136   1.928   4.538   5.009  2.6805 -0.9649  0.3863
  151DOPC  H18Y18137   1.960   4.407   4.894  0.8487 -1.3130  0.7427
  151DOPC  H18Z18138   1.796   4.421   4.974 -0.3882  1.4836 -0.1794
  152DOPC     N18139   4.073   0.724   6.872  0.1785  0.0128  0.2392
  152DOPC   C1218140   4.039   0.875   6.879  0.8597  0.5480 -0.0411
  152DOPC  H12A18141   3.952   0.881   6.815  0.5065 -1.2766  0.2183
  152DOPC  H12B18142   4.121   0.930   6.835  0.8963  0.5584  0.0392
  152DOPC   C1318143   4.072   0.675   6.724 -0.1116  0.6804  0.0968
  152DOPC  H13A18144   3.983   0.700   6.669  1.0207 -1.1416 -2.7877
  152DOPC  H13B18145   4.157   0.713   6.669  1.1328 -1.6011  0.3222
  152DOPC  H13C18146   4.089   0.568   6.723  0.8760  0.6859  3.2560
  152DOPC   C1418147   3.974   0.639   6.945  0.0715 -0.0058  0.1652
  152DOPC  H14A18148   3.998   0.534   6.935  0.2134  0.1697 -1.6018
  152DOPC  H14B18149   3.953   0.672   7.045 -0.1876 -0.5239  0.2847
  152DOPC  H14C18150   3.881   0.655   6.893  1.4301  1.3140 -2.0068
  152DOPC   C1518151   4.210   0.705   6.929  0.2272 -0.1580  0.0088
  152DOPC  H15A18152   4.218   0.743   7.030  0.9529 -1.1692  0.3426
  152DOPC  H15B18153   4.285   0.745   6.862 -2.0565 -1.4142 -3.5581
  152DOPC  H15C18154   4.223   0.599   6.942  1.0116 -0.0221  0.3675
  152DOPC   C1118155   3.997   0.929   7.020 -0.1011  0.4815 -0.4793
  152DOPC  H11A18156   4.071   0.896   7.096 -0.6335  2.2424  0.8523
  152DOPC  H11B18157   4.009   1.040   7.020  0.2716  0.4542  0.7037
  152DOPC     P18158   3.750   0.933   6.961 -0.1579  0.2180  0.0390
  152DOPC   O1318159   3.641   0.990   7.046 -0.4315  0.3154  0.4378
  152DOPC   O1418160   3.718   0.817   6.876 -0.2847  0.0181  0.4048
  152DOPC   O1218161   3.869   0.887   7.054 -0.0519 -0.3919 -1.0066
  152DOPC   O1118162   3.803   1.036   6.863 -0.3311 -0.6309 -0.7175
  152DOPC    C118163   3.705   1.104   6.782  0.4011  0.3537 -0.0016
  152DOPC    HA18164   3.616   1.152   6.829  0.4927 -0.6543  1.2493
  152DOPC    HB18165   3.653   1.044   6.704  0.7195  1.1461 -0.8394
  152DOPC    C218166   3.775   1.224   6.704 -0.0702 -0.1226  0.7366
  152DOPC    HS18167   3.706   1.284   6.642 -1.8093 -1.0319  1.6779
  152DOPC   O2118168   3.889   1.173   6.635 -0.0990  0.0266  0.5150
  152DOPC   C2118169   3.855   1.131   6.517  0.5190  0.4961  0.1421
  152DOPC   O2218170   3.741   1.137   6.470 -0.8193 -0.7505  0.2273
  152DOPC   C2218171   3.977   1.085   6.434 -0.0392  0.5186 -0.0762
  152DOPC   H2R18172   4.056   1.083   6.513  0.7236 -2.5888 -0.7667
  152DOPC   H2S18173   4.010   1.158   6.357  0.9378 -1.9231 -2.1258
  152DOPC    C318174   3.824   1.324   6.812 -0.0582 -0.4548  0.4914
  152DOPC    HX18175   3.915   1.282   6.861  0.0238  0.0237  0.7592
  152DOPC    HY18176   3.740   1.318   6.886 -1.9771 -0.8210 -1.6061
  152DOPC   O3118177   3.832   1.458   6.764  0.6879 -0.6404 -0.3363
  152DOPC   C3118178   3.944   1.516   6.742 -0.4408  0.3290 -0.5120
  152DOPC   O3218179   4.059   1.462   6.754  0.2227 -0.3531 -0.3980
  152DOPC   C3218180   3.908   1.645   6.676  0.3699 -1.1486  0.2331
  152DOPC   H2X18181   3.803   1.654   6.639  0.2772  0.6211  0.8640
  152DOPC   H2Y18182   3.909   1.713   6.763 -0.0625  1.1355 -1.4496
  152DOPC   C2318183   3.979   0.939   6.378  0.7850  0.0153  1.0178
  152DOPC   H3R18184   3.874   0.903   6.382  0.9519 -0.4843  1.0396
  152DOPC   H3S18185   4.019   0.872   6.458  1.4575  1.1853  1.6962
  152DOPC   C2418186   4.035   0.942   6.239  0.0772  0.0251  0.5399
  152DOPC   H4R18187   4.044   0.838   6.202  2.4915  0.5935 -0.6819
  152DOPC   H4S18188   4.139   0.981   6.227 -0.2156  0.8825  0.6870
  152DOPC   C2518189   3.952   1.019   6.133 -0.4228  0.0050 -0.0656
  152DOPC   H5R18190   3.969   1.126   6.158 -0.3465  0.5898 -2.4163
  152DOPC   H5S18191   3.849   0.978   6.135  0.3512 -2.0818  2.0134
  152DOPC   C2618192   4.009   1.008   5.990 -0.3535 -0.0818 -0.8896
  152DOPC   H6R18193   4.020   0.898   5.977 -1.0647 -0.0556 -1.7983
  152DOPC   H6S18194   4.111   1.049   5.981 -0.9815  1.8283  0.2563
  152DOPC   C2718195   3.918   1.072   5.888  0.1504 -0.5134 -0.1083
  152DOPC   H7R18196   3.814   1.032   5.900 -0.5232  1.3049  0.3831
  152DOPC   H7S18197   3.952   1.047   5.786 -2.2900 -1.8238 -0.6912
  152DOPC   C2818198   3.915   1.226   5.890 -0.2442  0.4550 -0.0258
  152DOPC   H8R18199   4.015   1.272   5.900  0.1018 -0.4974  1.1104
  152DOPC   H8S18200   3.878   1.266   5.986  0.8709  1.0649  0.1698
  152DOPC   C2918201   3.838   1.291   5.777  0.5067 -0.4953 -0.7603
  152DOPC   H9R18202   3.730   1.271   5.770  0.2920 -1.1848  2.5790
  152DOPC  C21018203   3.893   1.381   5.694  0.9842  0.6602 -0.0130
  152DOPC  H10R18204   3.833   1.425   5.612 -0.4848  1.7828  1.6004
  152DOPC  C21118205   4.035   1.430   5.684 -0.2530 -0.2813  0.3271
  152DOPC  H11R18206   4.097   1.406   5.773  0.8517  0.0031 -0.3397
  152DOPC  H11S18207   4.023   1.540   5.685  0.1149 -0.2393  1.1864
  152DOPC  C21218208   4.114   1.397   5.554  0.3356 -0.4054 -0.0779
  152DOPC  H12R18209   4.041   1.386   5.471 -0.3573 -0.0756  0.4720
  152DOPC  H12S18210   4.163   1.298   5.563 -2.4734 -1.8736  0.2158
  152DOPC  C21318211   4.212   1.515   5.517  0.5143  0.2641  0.1564
  152DOPC  H13R18212   4.309   1.501   5.570  0.2806 -0.8879  0.3122
  152DOPC  H13S18213   4.158   1.605   5.553  0.7200  0.2242  0.5729
  152DOPC  C21418214   4.248   1.517   5.364 -0.5838  0.0824 -1.2534
  152DOPC  H14R18215   4.160   1.479   5.307 -0.8971  0.4188 -1.0009
  152DOPC  H14S18216   4.333   1.447   5.352 -1.5313 -1.1434 -0.9985
  152DOPC  C21518217   4.297   1.651   5.306 -0.2094 -0.1162  0.9205
  152DOPC  H15R18218   4.402   1.663   5.341 -0.2919  0.9263  0.8427
  152DOPC  H15S18219   4.229   1.733   5.337 -1.7359 -1.0018  0.0857
  152DOPC  C21618220   4.309   1.645   5.156 -0.3605 -0.3013 -1.0509
  152DOPC  H16R18221   4.309   1.749   5.119  0.6991  0.5854  1.2486
  152DOPC  H16S18222   4.221   1.589   5.117  0.5240 -0.6434 -2.6417
  152DOPC  C21718223   4.441   1.584   5.101  0.4080  0.3190 -0.5737
  152DOPC  H17R18224   4.467   1.494   5.161  0.8904  1.2506  0.6624
  152DOPC  H17S18225   4.523   1.658   5.114  0.6059 -0.1267  1.0834
  152DOPC  C21818226   4.424   1.554   4.959 -0.2827  0.6833  0.5464
  152DOPC  H18R18227   4.337   1.486   4.950  0.7177 -0.5166 -0.3797
  152DOPC  H18S18228   4.517   1.515   4.913 -1.0568 -1.3042  0.5665
  152DOPC  H18T18229   4.390   1.644   4.905 -0.8156 -1.6214 -3.3236
  152DOPC   C3318230   4.011   1.690   6.564 -0.1651 -0.0089 -0.7270
  152DOPC   H3X18231   4.024   1.614   6.485 -0.6869 -1.2373  0.3425
  152DOPC   H3Y18232   4.108   1.707   6.615 -0.8132  1.5106  0.0786
  152DOPC   C3418233   3.976   1.833   6.519 -0.2704 -0.4000 -0.0817
  152DOPC   H4X18234   3.882   1.836   6.459  0.4850 -0.8835 -1.3377
  152DOPC   H4Y18235   4.061   1.881   6.467 -0.6106 -0.0506 -0.3223
  152DOPC   C3518236   3.942   1.936   6.632 -0.3985  0.1074  0.1505
  152DOPC   H5X18237   4.024   1.936   6.707 -0.6238 -2.4081  0.4940
  152DOPC   H5Y18238   3.851   1.901   6.686 -0.6147  0.1690 -0.1677
  152DOPC   C3618239   3.912   2.071   6.572 -0.2963  0.1748 -0.0046
  152DOPC   H6X18240   4.006   2.097   6.519 -1.6803  3.5474 -1.1076
  152DOPC   H6Y18241   3.832   2.055   6.498  0.3448  0.4479 -0.7719
  152DOPC   C3718242   3.885   2.171   6.687 -0.3011 -0.4698  0.1620
  152DOPC   H7X18243   3.783   2.134   6.711 -0.6691 -2.0210 -3.1981
  152DOPC   H7Y18244   3.958   2.164   6.770  2.5564 -0.8604 -2.2066
  152DOPC   C3818245   3.891   2.322   6.646 -0.6403  0.3511  0.6653
  152DOPC   H8X18246   3.972   2.342   6.572 -1.3783  0.8531 -0.0243
  152DOPC   H8Y18247   3.908   2.381   6.738  2.5606 -1.8843  1.6969
  152DOPC   C3918248   3.761   2.355   6.582 -0.3597  0.1007 -0.2462
  152DOPC   H9X18249   3.672   2.320   6.636 -1.8650  1.5843 -1.6483
  152DOPC  C31018250   3.748   2.432   6.475  0.1444  0.2901  0.6808
  152DOPC  H10X18251   3.646   2.447   6.436  1.0136  2.9281 -0.8123
  152DOPC  C31118252   3.849   2.506   6.390 -0.6035  0.0856  0.0781
  152DOPC  H11X18253   3.949   2.461   6.402  0.8438  2.8788 -0.7272
  152DOPC  H11Y18254   3.854   2.612   6.423 -2.2744  0.1674  0.1713
  152DOPC  C31218255   3.827   2.514   6.241  0.5267 -0.2596  0.3234
  152DOPC  H12X18256   3.743   2.576   6.202 -0.8320 -1.5095  1.1848
  152DOPC  H12Y18257   3.805   2.410   6.210 -0.2549  0.2590 -0.9805
  152DOPC  C31318258   3.956   2.565   6.164  0.4681  0.1581  0.1297
  152DOPC  H13X18259   3.971   2.671   6.195  0.0433  0.6270 -1.1877
  152DOPC  H13Y18260   4.048   2.512   6.196  1.0200  0.9175 -0.1763
  152DOPC  C31418261   3.950   2.544   6.016  0.1449 -0.0078  0.0885
  152DOPC  H14X18262   3.880   2.617   5.969 -2.3550 -0.9090  2.1513
  152DOPC  H14Y18263   4.050   2.565   5.974  0.2509  1.0872  0.8508
  152DOPC  C31518264   3.912   2.400   5.967 -0.6125 -0.0960 -0.8605
  152DOPC  H15X18265   3.809   2.369   5.995 -0.3773 -0.5285 -0.4622
  152DOPC  H15Y18266   3.977   2.324   6.014 -4.5994 -2.7666  0.9499
  152DOPC  C31618267   3.923   2.395   5.812 -0.1401  0.0020 -0.3943
  152DOPC  H16X18268   3.893   2.291   5.788 -2.4363 -0.1225  2.5412
  152DOPC  H16Y18269   3.843   2.459   5.769  0.2124 -0.5014 -1.8508
  152DOPC  C31718270   4.062   2.432   5.762  0.1854 -0.4329 -0.0289
  152DOPC  H17X18271   4.088   2.539   5.777  0.0562 -0.5467  1.1559
  152DOPC  H17Y18272   4.128   2.364   5.820  0.7510 -0.4372 -0.6633
  152DOPC  C31818273   4.081   2.382   5.618  0.4209 -0.3683 -0.4427
  152DOPC  H18X18274   4.190   2.389   5.598  0.7212 -0.6871  0.9779
  152DOPC  H18Y18275   4.055   2.276   5.602 -1.1808 -0.2673  1.1848
  152DOPC  H18Z18276   4.022   2.434   5.540 -0.6580  0.5490  0.9465
  153DOPC     N18277   5.174   5.627   7.475  0.2767 -0.5581 -0.4627
  153DOPC   C1218278   5.222   5.673   7.330 -0.7918 -0.4309  0.0053
  153DOPC  H12A18279   5.185   5.595   7.265 -0.9814 -2.8071  2.7645
  153DOPC  H12B18280   5.329   5.677   7.337 -0.2888  0.3700 -4.7859
  153DOPC   C1318281   5.024   5.621   7.486  0.2965  0.4647  0.0021
  153DOPC  H13A18282   4.983   5.549   7.416  0.2447 -1.3967  1.8437
  153DOPC  H13B18283   4.998   5.603   7.590  2.7354 -1.8262  0.3282
  153DOPC  H13C18284   4.985   5.716   7.454  0.5122  0.3847 -0.5076
  153DOPC   C1418285   5.215   5.731   7.579 -0.4373 -0.0593  0.8495
  153DOPC  H14A18286   5.176   5.715   7.678 -1.7864  0.6974  0.4728
  153DOPC  H14B18287   5.320   5.729   7.602 -0.3647  0.5328  0.5845
  153DOPC  H14C18288   5.184   5.828   7.542 -0.8467 -0.7384 -0.6681
  153DOPC   C1518289   5.226   5.498   7.519  1.0216  0.5084 -0.4559
  153DOPC  H15A18290   5.179   5.411   7.477  0.1867 -0.6308  2.5569
  153DOPC  H15B18291   5.204   5.490   7.625 -0.4292  0.9827 -0.7109
  153DOPC  H15C18292   5.332   5.492   7.496  1.2953  1.0165  0.5929
  153DOPC   C1118293   5.167   5.806   7.280  0.0310  0.2591  0.2134
  153DOPC  H11A18294   5.205   5.888   7.345 -1.4585  1.4165 -0.2894
  153DOPC  H11B18295   5.219   5.829   7.185 -0.7376 -0.9128 -0.5169
  153DOPC     P18296   4.951   5.776   7.145  0.1055  0.4849  0.0848
  153DOPC   O1318297   4.964   5.906   7.080 -0.5277 -0.1894 -0.2792
  153DOPC   O1418298   4.812   5.726   7.172 -0.7687  0.8975  0.3733
  153DOPC   O1218299   5.025   5.801   7.282 -0.1795  0.1643  0.0585
  153DOPC   O1118300   5.035   5.661   7.068 -0.4992  0.1357  0.6087
  153DOPC    C118301   5.109   5.705   6.948  0.5875 -0.0979 -0.1800
  153DOPC    HA18302   5.198   5.641   6.934  0.6062  0.0546 -0.7846
  153DOPC    HB18303   5.139   5.812   6.959 -2.5638  0.6952  2.2563
  153DOPC    C218304   5.020   5.713   6.818  0.0655 -0.2667  0.0565
  153DOPC    HS18305   4.924   5.768   6.831 -0.5357 -1.7450  2.7292
  153DOPC   O2118306   4.991   5.578   6.777  1.0665  0.4562  0.4856
  153DOPC   C2118307   4.863   5.547   6.741  0.0793  0.2637  0.5398
  153DOPC   O2218308   4.768   5.617   6.758  0.2712  0.1213 -0.4170
  153DOPC   C2218309   4.854   5.415   6.668 -0.3273  0.4304  0.9408
  153DOPC   H2R18310   4.820   5.334   6.736  1.8317  1.0753  2.9374
  153DOPC   H2S18311   4.951   5.392   6.620 -0.8082  0.1193  0.0975
  153DOPC    C318312   5.106   5.787   6.704  0.3200 -0.4214 -0.2229
  153DOPC    HX18313   5.203   5.733   6.694  0.7490  0.1021  0.8979
  153DOPC    HY18314   5.140   5.888   6.736  0.6293 -0.3730 -0.6930
  153DOPC   O3118315   5.027   5.788   6.585  0.4175 -0.0421  0.1229
  153DOPC   C3118316   4.925   5.871   6.576 -0.0868 -0.2040 -0.0914
  153DOPC   O3218317   4.888   5.950   6.663  0.2804 -0.6659  0.3538
  153DOPC   C3218318   4.868   5.849   6.437 -0.0240  0.6993 -0.0665
  153DOPC   H2X18319   4.930   5.900   6.360  1.4913 -0.7568  0.1382
  153DOPC   H2Y18320   4.874   5.740   6.414 -0.7491 -0.2749  3.6540
  153DOPC   C2318321   4.746   5.391   6.549 -0.2556 -0.4108 -0.2131
  153DOPC   H3R18322   4.655   5.445   6.581  0.6394  1.9931 -1.4382
  153DOPC   H3S18323   4.717   5.285   6.538 -1.0047 -0.4116  1.4673
  153DOPC   C2418324   4.779   5.436   6.412  0.2830  0.5627  0.7635
  153DOPC   H4R18325   4.816   5.540   6.398 -2.5008  1.4109 -0.9358
  153DOPC   H4S18326   4.678   5.435   6.365  0.8374 -1.0177 -0.5069
  153DOPC   C2518327   4.863   5.334   6.324 -0.3739 -0.2901  0.5863
  153DOPC   H5R18328   4.810   5.238   6.313  0.1996 -0.5652  0.1672
  153DOPC   H5S18329   4.967   5.322   6.362 -0.4266 -0.3877  0.6987
  153DOPC   C2618330   4.871   5.385   6.179 -0.6034  0.2317  0.5737
  153DOPC   H6R18331   4.920   5.485   6.172  0.9364 -0.5429 -0.1269
  153DOPC   H6S18332   4.771   5.398   6.132 -0.9145  1.6638  1.5708
  153DOPC   C2718333   4.957   5.297   6.093  0.1513 -0.8306  0.1200
  153DOPC   H7R18334   4.956   5.353   5.997 -1.2624  2.9220  2.1191
  153DOPC   H7S18335   4.928   5.192   6.068 -1.3186 -1.7784  4.7507
  153DOPC   C2818336   5.104   5.278   6.144 -0.5108 -0.0589 -0.2362
  153DOPC   H8R18337   5.085   5.231   6.243  0.2179  0.6693  0.2627
  153DOPC   H8S18338   5.151   5.376   6.169 -2.9189  1.1491 -0.1307
  153DOPC   C2918339   5.199   5.201   6.062 -0.1249 -0.2932  0.4540
  153DOPC   H9R18340   5.166   5.185   5.958  0.1391  1.1180  0.1360
  153DOPC  C21018341   5.326   5.167   6.092  1.3957 -0.1256 -0.6667
  153DOPC  H10R18342   5.382   5.111   6.015 -1.4730 -2.4621 -1.1992
  153DOPC  C21118343   5.387   5.222   6.219 -0.0161 -0.0437  0.1886
  153DOPC  H11R18344   5.404   5.142   6.295 -0.7162  1.2246  1.7409
  153DOPC  H11S18345   5.335   5.307   6.268 -0.1579  0.5981 -1.0265
  153DOPC  C21218346   5.522   5.284   6.193 -0.0736  0.2923 -0.2424
  153DOPC  H12R18347   5.557   5.313   6.294 -1.6017 -0.0401  0.4185
  153DOPC  H12S18348   5.510   5.378   6.134  0.8200  0.4198 -0.2239
  153DOPC  C21318349   5.630   5.195   6.129 -0.6990  0.3459 -0.7520
  153DOPC  H13R18350   5.590   5.165   6.029  0.9943  0.4215 -1.4934
  153DOPC  H13S18351   5.644   5.096   6.178  0.5957  0.4261 -0.9389
  153DOPC  C21418352   5.768   5.263   6.113 -0.4621 -0.3074  0.4815
  153DOPC  H14R18353   5.762   5.343   6.035 -1.5172  0.0913  0.9540
  153DOPC  H14S18354   5.837   5.182   6.082 -0.2035 -0.5889  1.7425
  153DOPC  C21518355   5.819   5.310   6.248  0.1189  0.1030 -0.0213
  153DOPC  H15R18356   5.826   5.223   6.317  2.5026  0.9500  0.9323
  153DOPC  H15S18357   5.754   5.389   6.290 -4.2005 -1.8867 -2.3560
  153DOPC  C21618358   5.965   5.357   6.230 -0.7739  0.4658 -0.5789
  153DOPC  H16R18359   5.970   5.431   6.148 -0.6284  0.4458 -0.5881
  153DOPC  H16S18360   6.019   5.267   6.194  0.7677  0.0608  2.4310
  153DOPC  C21718361   6.037   5.414   6.357 -0.6434  0.5431 -0.2448
  153DOPC  H17R18362   6.009   5.343   6.437 -2.2517 -0.9547 -2.0429
  153DOPC  H17S18363   5.986   5.508   6.387 -0.2148 -0.0803  2.7249
  153DOPC  C21818364   6.185   5.443   6.348 -0.1549 -0.2252  0.5714
  153DOPC  H18R18365   6.220   5.478   6.448 -0.4831 -0.5019  0.7829
  153DOPC  H18S18366   6.206   5.524   6.274 -0.2166  0.3158  1.1385
  153DOPC  H18T18367   6.253   5.357   6.331  0.6786  0.1396  1.9034
  153DOPC   C3318368   4.718   5.895   6.425 -0.9688 -0.1665 -0.4453
  153DOPC   H3X18369   4.714   6.005   6.437 -0.0338 -0.1756  0.0283
  153DOPC   H3Y18370   4.651   5.848   6.500 -1.0201  0.0116 -0.3800
  153DOPC   C3418371   4.658   5.842   6.291  0.6370 -0.5166  0.5145
  153DOPC   H4X18372   4.548   5.831   6.301  0.3126  0.6452 -1.2582
  153DOPC   H4Y18373   4.700   5.740   6.273  1.0405 -0.1269 -0.9328
  153DOPC   C3518374   4.690   5.930   6.162 -1.5496 -0.3794 -0.1480
  153DOPC   H5X18375   4.651   5.876   6.073 -2.5034  2.2141 -1.4015
  153DOPC   H5Y18376   4.800   5.945   6.154 -1.1891 -2.0507  1.1788
  153DOPC   C3618377   4.642   6.077   6.161 -0.0435 -0.2487  0.4336
  153DOPC   H6X18378   4.531   6.073   6.159  0.0023 -1.4133 -1.2526
  153DOPC   H6Y18379   4.671   6.132   6.253  1.3832 -0.2558  0.0154
  153DOPC   C3718380   4.691   6.158   6.036 -0.3097 -0.6002  0.7107
  153DOPC   H7X18381   4.655   6.260   6.060 -1.1287  0.0285 -2.7603
  153DOPC   H7Y18382   4.801   6.149   6.024 -0.4465 -3.1468  0.7393
  153DOPC   C3818383   4.617   6.119   5.900 -0.2455 -0.2696  0.2453
  153DOPC   H8X18384   4.508   6.119   5.919 -0.6177 -0.2367 -1.7206
  153DOPC   H8Y18385   4.650   6.014   5.888  0.9748 -0.0806  1.5908
  153DOPC   C3918386   4.651   6.207   5.786 -0.2411  0.1289  0.2886
  153DOPC   H9X18387   4.727   6.284   5.810 -1.3076  0.3380  3.6251
  153DOPC  C31018388   4.576   6.225   5.675  0.4362  0.1354  0.3740
  153DOPC  H10X18389   4.609   6.297   5.599  2.9333 -1.1004  0.1646
  153DOPC  C31118390   4.452   6.156   5.626  0.0389  0.2480 -0.2297
  153DOPC  H11X18391   4.372   6.227   5.595 -1.3792 -0.9149  0.6217
  153DOPC  H11Y18392   4.417   6.091   5.709 -2.4124  1.7341 -0.0258
  153DOPC  C31218393   4.483   6.049   5.508 -0.0057 -0.4248 -0.6260
  153DOPC  H12X18394   4.399   5.977   5.516  0.7671 -1.3670 -0.8016
  153DOPC  H12Y18395   4.571   5.987   5.536 -1.6310 -1.9457  1.4720
  153DOPC  C31318396   4.476   6.101   5.367 -0.0269 -0.0062 -0.3626
  153DOPC  H13X18397   4.375   6.147   5.358 -1.5385 -3.3633 -2.1312
  153DOPC  H13Y18398   4.558   6.174   5.349 -0.8737  0.6349 -1.7677
  153DOPC  C31418399   4.484   5.981   5.267 -0.3270  0.0268  0.4643
  153DOPC  H14X18400   4.592   5.957   5.257 -0.4903 -0.1058 -1.1635
  153DOPC  H14Y18401   4.434   5.889   5.304 -2.0104  0.6292 -0.1888
  153DOPC  C31518402   4.429   6.017   5.129  0.4740 -0.2533 -0.0753
  153DOPC  H15X18403   4.322   6.042   5.145  0.5774  1.7625 -2.1174
  153DOPC  H15Y18404   4.448   5.934   5.057 -0.9151 -0.9145  0.2925
  153DOPC  C31618405   4.493   6.137   5.070  0.4112 -0.0029  0.7291
  153DOPC  H16X18406   4.442   6.226   5.113 -1.2761  0.2895 -1.6740
  153DOPC  H16Y18407   4.603   6.143   5.088  0.4659 -1.3594  0.9658
  153DOPC  C31718408   4.474   6.143   4.916 -0.0612  0.4121 -0.6646
  153DOPC  H17X18409   4.539   6.226   4.880  3.3518 -1.1923  1.3567
  153DOPC  H17Y18410   4.508   6.045   4.876  1.4552  0.4677  0.4107
  153DOPC  C31818411   4.330   6.160   4.877 -0.5416  0.5450  0.4668
  153DOPC  H18X18412   4.286   6.249   4.925 -2.6222  1.5410 -2.9684
  153DOPC  H18Y18413   4.318   6.164   4.767  0.3417  1.7839  0.3994
  153DOPC  H18Z18414   4.273   6.067   4.897 -0.0269 -0.5104 -2.4871
  154DOPC     N18415   6.583   4.463   6.885  0.0292 -1.1235 -0.4030
  154DOPC   C1218416   6.443   4.481   6.831 -0.4165 -0.1883  0.0389
  154DOPC  H12A18417   6.406   4.383   6.807  1.5592 -0.5667 -1.8002
  154DOPC  H12B18418   6.456   4.535   6.737 -0.6649 -0.7453 -0.3189
  154DOPC   C1318419   6.652   4.597   6.897 -0.2734 -0.5778 -0.4819
  154DOPC  H13A18420   6.756   4.579   6.922  0.2747 -1.2934 -2.9605
  154DOPC  H13B18421   6.640   4.655   6.807  0.2087 -0.3178 -0.3821
  154DOPC  H13C18422   6.608   4.651   6.980  0.2867  0.0278 -0.5663
  154DOPC   C1418423   6.659   4.373   6.793  0.5282 -0.0404 -0.0542
  154DOPC  H14A18424   6.765   4.370   6.814  1.2464  2.1485 -2.7490
  154DOPC  H14B18425   6.632   4.268   6.790 -2.6433  0.6281  1.6038
  154DOPC  H14C18426   6.648   4.416   6.694 -0.0408  0.3946  0.1950
  154DOPC   C1518427   6.577   4.399   7.023  0.2355 -0.2089 -0.2176
  154DOPC  H15A18428   6.516   4.462   7.086  1.9828  0.0028  1.3564
  154DOPC  H15B18429   6.681   4.400   7.051  0.1864 -1.0105  0.0196
  154DOPC  H15C18430   6.539   4.298   7.016  1.1727 -0.5339 -0.8891
  154DOPC   C1118431   6.348   4.547   6.923  0.2558 -0.1922 -0.4873
  154DOPC  H11A18432   6.391   4.637   6.972  0.9372 -0.3975 -0.6975
  154DOPC  H11B18433   6.267   4.600   6.869 -1.8560 -0.3017  2.3442
  154DOPC     P18434   6.206   4.345   6.974 -0.0146  0.0487 -0.0855
  154DOPC   O1318435   6.086   4.343   7.067  0.3982 -0.0028 -0.3752
  154DOPC   O1418436   6.288   4.219   6.960  0.6858 -0.0592  0.3793
  154DOPC   O1218437   6.299   4.467   7.031  0.2221 -0.4352  0.5915
  154DOPC   O1118438   6.152   4.379   6.827  0.5958 -0.3364  0.5437
  154DOPC    C118439   6.066   4.276   6.778  0.3581  0.6179  0.1430
  154DOPC    HA18440   5.984   4.325   6.721 -0.8988  0.8238  2.0689
  154DOPC    HB18441   6.001   4.223   6.850 -0.9884  0.3979 -1.1826
  154DOPC    C218442   6.135   4.190   6.665 -0.3245  0.2636  0.3928
  154DOPC    HS18443   6.214   4.134   6.720  0.3123  0.8548  0.1074
  154DOPC   O2118444   6.186   4.277   6.561  0.2725  0.2165 -0.5077
  154DOPC   C2118445   6.297   4.241   6.499 -0.7144  0.7779  0.2654
  154DOPC   O2218446   6.378   4.162   6.546 -0.2452 -0.3598  0.0740
  154DOPC   C2218447   6.289   4.309   6.357  0.0259 -0.0239 -0.2939
  154DOPC   H2R18448   6.257   4.412   6.384  0.0817 -0.0400 -0.1646
  154DOPC   H2S18449   6.212   4.259   6.295 -1.8829  2.0158  0.2828
  154DOPC    C318450   6.034   4.093   6.609 -0.0912 -0.1395  0.5613
  154DOPC    HX18451   5.958   4.153   6.554  1.5467  1.8050  0.3118
  154DOPC    HY18452   5.980   4.038   6.690  1.5925 -0.9394  1.1797
  154DOPC   O3118453   6.098   3.993   6.521 -0.0550  0.0060 -0.2303
  154DOPC   C3118454   6.161   3.892   6.565  0.0334  0.3137 -0.3459
  154DOPC   O3218455   6.199   3.867   6.679 -0.7273 -0.2265  0.6069
  154DOPC   C3218456   6.193   3.797   6.451  0.1069  0.3539  0.0039
  154DOPC   H2X18457   6.228   3.701   6.495  1.4448  0.3927 -0.9441
  154DOPC   H2Y18458   6.100   3.782   6.392 -0.3056 -1.9344  1.1225
  154DOPC   C2318459   6.426   4.312   6.282 -0.7799 -0.0530 -0.0773
  154DOPC   H3R18460   6.470   4.211   6.297  1.0272  0.6403 -0.5077
  154DOPC   H3S18461   6.496   4.386   6.325 -2.0037  0.0448  1.8403
  154DOPC   C2418462   6.417   4.347   6.129  0.2928  0.6137 -0.2759
  154DOPC   H4R18463   6.511   4.399   6.101  0.7604 -0.2088 -0.2648
  154DOPC   H4S18464   6.330   4.415   6.124 -0.0679  0.2755  0.9615
  154DOPC   C2518465   6.415   4.213   6.045 -0.4279 -0.4223  0.1802
  154DOPC   H5R18466   6.327   4.151   6.073 -1.0011 -1.4284 -3.4155
  154DOPC   H5S18467   6.495   4.143   6.079  1.2121  1.9336  1.5015
  154DOPC   C2618468   6.405   4.233   5.887  0.2551  0.7783 -0.3144
  154DOPC   H6R18469   6.500   4.286   5.866  0.2637  0.5878 -0.7657
  154DOPC   H6S18470   6.317   4.299   5.868 -0.8627 -0.1113  1.5133
  154DOPC   C2718471   6.396   4.114   5.795  0.4026  0.4214 -0.0315
  154DOPC   H7R18472   6.307   4.055   5.824 -1.0793  2.4176 -0.2574
  154DOPC   H7S18473   6.482   4.048   5.817 -0.0746  0.5049  2.4234
  154DOPC   C2818474   6.396   4.164   5.649  0.1990  0.0966  0.0842
  154DOPC   H8R18475   6.315   4.239   5.635 -0.0211  0.2233  1.8846
  154DOPC   H8S18476   6.346   4.086   5.586 -0.9794 -0.3343  1.4988
  154DOPC   C2918477   6.523   4.217   5.584 -0.7911 -0.3433 -0.4743
  154DOPC   H9R18478   6.616   4.202   5.641  0.3742  0.5107 -2.0880
  154DOPC  C21018479   6.547   4.273   5.471  0.1438  0.4457  0.1932
  154DOPC  H10R18480   6.652   4.296   5.447  0.7494 -2.2984 -0.1497
  154DOPC  C21118481   6.453   4.320   5.366  0.3381 -0.3860  0.3224
  154DOPC  H11R18482   6.350   4.284   5.383  0.0995 -0.3275 -0.9067
  154DOPC  H11S18483   6.473   4.275   5.267  1.2706  2.0167 -0.6720
  154DOPC  C21218484   6.428   4.472   5.364 -0.2218  0.2908  0.6854
  154DOPC  H12R18485   6.401   4.502   5.467 -3.6335  0.3315 -0.1024
  154DOPC  H12S18486   6.339   4.497   5.302 -1.0192 -0.7955  1.3499
  154DOPC  C21318487   6.551   4.552   5.315  0.0927  0.0004  0.6963
  154DOPC  H13R18488   6.642   4.510   5.361  0.7260  2.2874  1.6874
  154DOPC  H13S18489   6.541   4.658   5.347  1.3067 -0.3724  2.4016
  154DOPC  C21418490   6.567   4.534   5.160 -0.3124  1.7064  0.6525
  154DOPC  H14R18491   6.483   4.579   5.102 -1.9244  0.6099  2.0380
  154DOPC  H14S18492   6.559   4.427   5.129  1.5422  1.5754  0.5500
  154DOPC  C21518493   6.701   4.585   5.110  0.3349 -0.2280  0.2746
  154DOPC  H15R18494   6.781   4.524   5.156 -0.0419 -0.6796  0.3332
  154DOPC  H15S18495   6.711   4.687   5.153 -2.3332  0.8204 -1.3094
  154DOPC  C21618496   6.710   4.581   4.949  0.0019  0.6117 -0.7363
  154DOPC  H16R18497   6.605   4.593   4.914  0.0560  0.7803 -0.8447
  154DOPC  H16S18498   6.743   4.478   4.923 -0.0739 -0.1364  1.8830
  154DOPC  C21718499   6.800   4.692   4.900  0.1570  0.2059 -0.0084
  154DOPC  H17R18500   6.904   4.681   4.939  0.1856 -4.4594 -0.8406
  154DOPC  H17S18501   6.775   4.781   4.961  1.1065 -0.5036  1.4893
  154DOPC  C21818502   6.787   4.731   4.749  0.5196  0.1291 -0.0842
  154DOPC  H18R18503   6.678   4.746   4.730  0.9395  1.6258 -1.5915
  154DOPC  H18S18504   6.829   4.652   4.683 -2.2335 -0.6929 -1.0315
  154DOPC  H18T18505   6.833   4.830   4.727  3.4652 -0.4354  2.7763
  154DOPC   C3318506   6.310   3.846   6.360 -0.4147  0.9258  0.0474
  154DOPC   H3X18507   6.358   3.767   6.298  2.6135  0.7534  2.3477
  154DOPC   H3Y18508   6.395   3.878   6.425 -0.4004  0.1789  0.4095
  154DOPC   C3418509   6.276   3.950   6.252  0.6653  0.0989  0.4523
  154DOPC   H4X18510   6.368   3.963   6.190  0.0126 -0.7255 -0.7472
  154DOPC   H4Y18511   6.236   4.042   6.298 -0.7856 -0.2465 -0.0719
  154DOPC   C3518512   6.170   3.910   6.148 -0.8663 -0.5975  0.1796
  154DOPC   H5X18513   6.150   3.998   6.084  1.7674 -0.5341 -0.6887
  154DOPC   H5Y18514   6.071   3.884   6.192  0.5103 -1.5412  2.9875
  154DOPC   C3618515   6.220   3.801   6.046 -0.3298 -0.9864 -0.6702
  154DOPC   H6X18516   6.319   3.827   6.002 -0.0826 -0.5156  0.1347
  154DOPC   H6Y18517   6.237   3.701   6.092 -0.2440 -0.7349 -0.1436
  154DOPC   C3718518   6.112   3.772   5.948  0.6562 -0.4858  0.5752
  154DOPC   H7X18519   6.025   3.745   6.011  0.8368 -1.6896  0.3190
  154DOPC   H7Y18520   6.075   3.857   5.886  0.8009 -1.3026 -0.6610
  154DOPC   C3818521   6.135   3.663   5.850 -0.4670  0.3662  1.0165
  154DOPC   H8X18522   6.041   3.633   5.799 -0.2583 -0.2935  0.9999
  154DOPC   H8Y18523   6.174   3.574   5.904 -1.6589 -0.5802  0.3776
  154DOPC   C3918524   6.236   3.717   5.747  0.5286  0.1266  0.1565
  154DOPC   H9X18525   6.339   3.689   5.772 -0.1956 -1.3573  1.6467
  154DOPC  C31018526   6.206   3.787   5.634 -0.2029 -0.2477 -0.4203
  154DOPC  H10X18527   6.290   3.821   5.571  0.5120 -2.2121 -0.5800
  154DOPC  C31118528   6.075   3.811   5.567  0.3510  0.2794 -0.1081
  154DOPC  H11X18529   6.030   3.911   5.584 -1.3894 -0.1997 -1.6041
  154DOPC  H11Y18530   6.002   3.732   5.593  1.6728 -1.2266 -0.8080
  154DOPC  C31218531   6.087   3.806   5.419  0.1665  0.1200  0.0558
  154DOPC  H12X18532   6.137   3.712   5.386  0.6756  0.6478 -0.7180
  154DOPC  H12Y18533   6.151   3.889   5.382 -0.1138  0.5847  0.6046
  154DOPC  C31318534   5.953   3.827   5.332 -0.1315  0.1094  0.0965
  154DOPC  H13X18535   5.885   3.753   5.379 -0.4788  1.2834  1.5305
  154DOPC  H13Y18536   5.908   3.928   5.344  0.0785  0.4702 -1.8482
  154DOPC  C31418537   5.984   3.788   5.187 -0.1688  0.5462 -0.2079
  154DOPC  H14X18538   6.037   3.873   5.138  0.9086  0.8341  1.3499
  154DOPC  H14Y18539   6.058   3.705   5.183 -1.0552 -0.2018 -1.4874
  154DOPC  C31518540   5.871   3.754   5.099  0.7143  0.6814 -0.3107
  154DOPC  H15X18541   5.800   3.839   5.100 -0.7481 -0.4881 -0.7190
  154DOPC  H15Y18542   5.828   3.662   5.143  2.3885  0.1296  0.2498
  154DOPC  C31618543   5.915   3.726   4.950 -0.3057  0.1439 -0.1136
  154DOPC  H16X18544   5.972   3.807   4.900 -1.8338  0.9736 -0.6022
  154DOPC  H16Y18545   5.969   3.629   4.948  2.6533  1.6867 -0.4337
  154DOPC  C31718546   5.798   3.713   4.849 -0.7320 -0.4039 -0.9980
  154DOPC  H17X18547   5.704   3.666   4.885 -0.0145 -1.4529 -0.4138
  154DOPC  H17Y18548   5.764   3.817   4.837 -1.9495 -0.2317  2.6592
  154DOPC  C31818549   5.829   3.640   4.717 -0.7204  0.0100  0.2229
  154DOPC  H18X18550   5.930   3.659   4.675 -0.8740  0.3960  0.0325
  154DOPC  H18Y18551   5.802   3.532   4.717  2.6973 -0.9583  0.7033
  154DOPC  H18Z18552   5.762   3.672   4.635 -1.2340 -0.9573  0.2493
  155DOPC     N18553   2.634   1.122   7.517  0.0273 -0.0423  0.1555
  155DOPC   C1218554   2.540   1.150   7.399  0.6859  0.3489  0.3501
  155DOPC  H12A18555   2.572   1.245   7.358  0.1497  0.2839 -0.2364
  155DOPC  H12B18556   2.443   1.157   7.446  0.7448 -1.8415  0.9094
  155DOPC   C1318557   2.604   1.209   7.628  0.3163 -0.4782 -0.2134
  155DOPC  H13A18558   2.636   1.308   7.600 -1.3648  0.0335 -0.4273
  155DOPC  H13B18559   2.501   1.196   7.660  0.2593 -1.2657 -0.6921
  155DOPC  H13C18560   2.647   1.178   7.722 -2.4444  1.6338  1.9399
  155DOPC   C1418561   2.774   1.135   7.479  0.1972  0.9223  0.2130
  155DOPC  H14A18562   2.843   1.090   7.548  0.9289 -1.2357 -1.7607
  155DOPC  H14B18563   2.812   1.107   7.382  0.8223  0.9139  0.4589
  155DOPC  H14C18564   2.811   1.236   7.477  0.7069  0.7317 -0.4480
  155DOPC   C1518565   2.609   0.976   7.550 -0.2649  0.3698 -0.3307
  155DOPC  H15A18566   2.612   0.931   7.452 -1.5279  2.2695 -1.3266
  155DOPC  H15B18567   2.511   0.962   7.592 -0.7010 -3.1393 -2.1759
  155DOPC  H15C18568   2.683   0.933   7.615 -1.4762 -0.0155  0.8297
  155DOPC   C1118569   2.542   1.052   7.276 -0.5060 -0.8096  0.2056
  155DOPC  H11A18570   2.504   1.106   7.187 -0.7702 -0.3891  0.5730
  155DOPC  H11B18571   2.650   1.026   7.265 -0.8676 -1.8125 -1.1861
  155DOPC     P18572   2.304   0.949   7.304  0.2052  0.2221  0.1438
  155DOPC   O1318573   2.267   1.057   7.401 -0.0826 -0.5343 -0.7205
  155DOPC   O1418574   2.256   0.811   7.338 -0.0608  0.1787 -0.0381
  155DOPC   O1218575   2.458   0.935   7.295  0.7671  0.0343 -0.0879
  155DOPC   O1118576   2.270   0.990   7.160 -0.5676 -0.5827 -0.0438
  155DOPC    C118577   2.306   0.902   7.047 -0.6007  0.8851  0.1583
  155DOPC    HA18578   2.216   0.844   7.021 -1.2153  1.7731  0.2722
  155DOPC    HB18579   2.391   0.834   7.070 -1.6573 -0.7731 -0.7135
  155DOPC    C218580   2.347   0.996   6.929 -0.5288  0.8274 -0.6316
  155DOPC    HS18581   2.426   1.057   6.977 -2.2864  1.4935  1.5610
  155DOPC   O2118582   2.232   1.074   6.890  0.4989 -0.6260 -0.2724
  155DOPC   C2118583   2.264   1.196   6.856  0.0667  0.5959 -0.4870
  155DOPC   O2218584   2.368   1.250   6.880 -0.0523  0.1182  0.1886
  155DOPC   C2218585   2.147   1.259   6.777 -0.9193  0.0847 -0.8306
  155DOPC   H2R18586   2.141   1.362   6.817  0.6583  0.2333 -0.9259
  155DOPC   H2S18587   2.057   1.202   6.809  0.6340 -3.4231 -2.1699
  155DOPC    C318588   2.401   0.918   6.801 -0.3132  0.5474  0.4837
  155DOPC    HX18589   2.321   0.845   6.775 -0.3490 -0.4589  3.0779
  155DOPC    HY18590   2.489   0.865   6.844 -0.2342 -0.2852 -0.6565
  155DOPC   O3118591   2.440   1.000   6.689  0.3122  0.2963 -0.0770
  155DOPC   C3118592   2.560   1.063   6.711 -0.6198 -0.2977 -0.1335
  155DOPC   O3218593   2.632   1.044   6.811  0.4101 -0.6400  0.3045
  155DOPC   C3218594   2.575   1.156   6.591 -0.3548 -0.6026 -0.5407
  155DOPC   H2X18595   2.610   1.103   6.500  0.5338 -0.0640 -0.5174
  155DOPC   H2Y18596   2.480   1.213   6.585  1.0347  1.8059 -1.1371
  155DOPC   C2318597   2.163   1.254   6.620  0.2419  0.4072  0.0592
  155DOPC   H3R18598   2.068   1.223   6.573  0.1394 -0.2693  0.6823
  155DOPC   H3S18599   2.223   1.164   6.596  0.6218  1.3929 -3.1572
  155DOPC   C2418600   2.232   1.378   6.568  0.0418 -0.2879  0.2425
  155DOPC   H4R18601   2.319   1.411   6.628 -0.3943 -0.0833  0.7648
  155DOPC   H4S18602   2.147   1.450   6.573 -0.4180 -0.8480  0.5081
  155DOPC   C2518603   2.254   1.373   6.418 -0.0694 -0.3198 -0.3006
  155DOPC   H5R18604   2.166   1.365   6.351  0.4792 -0.2100 -1.0537
  155DOPC   H5S18605   2.308   1.277   6.404 -0.2713 -0.5540  0.4867
  155DOPC   C2618606   2.323   1.501   6.361 -0.1339  0.0267 -0.8023
  155DOPC   H6R18607   2.416   1.515   6.420 -0.7025 -2.2044  0.7613
  155DOPC   H6S18608   2.257   1.587   6.383 -3.6235 -2.3342 -1.2805
  155DOPC   C2718609   2.345   1.497   6.209 -0.4569 -0.1593 -0.2807
  155DOPC   H7R18610   2.331   1.602   6.176 -3.8000 -0.3144  0.2917
  155DOPC   H7S18611   2.253   1.446   6.171 -0.3398 -0.9362  0.4609
  155DOPC   C2818612   2.470   1.417   6.163  0.3772 -0.1209 -0.5623
  155DOPC   H8R18613   2.478   1.420   6.053 -0.1643 -1.4641 -0.6585
  155DOPC   H8S18614   2.458   1.313   6.202  1.7437  0.9515  3.1643
  155DOPC   C2918615   2.605   1.454   6.221  0.3454  0.0984  0.1022
  155DOPC   H9R18616   2.610   1.529   6.301  0.0384  1.1011 -0.7992
  155DOPC  C21018617   2.725   1.396   6.194  0.5227 -0.2345  0.2405
  155DOPC  H10R18618   2.809   1.448   6.244 -1.0108  1.3983  1.2604
  155DOPC  C21118619   2.768   1.296   6.088  1.0014 -0.7028  0.2150
  155DOPC  H11R18620   2.679   1.251   6.039  1.6425 -0.8286 -0.8814
  155DOPC  H11S18621   2.810   1.202   6.129 -0.9281 -1.0890  1.4462
  155DOPC  C21218622   2.857   1.350   5.975 -0.4971 -0.1120  0.0828
  155DOPC  H12R18623   2.956   1.387   6.011 -0.0062 -0.3911 -0.9319
  155DOPC  H12S18624   2.811   1.439   5.928  0.2990 -0.1662 -0.8201
  155DOPC  C21318625   2.880   1.232   5.874  0.2424 -0.3629  0.2668
  155DOPC  H13R18626   2.783   1.180   5.861 -0.2739  0.7947 -0.6564
  155DOPC  H13S18627   2.947   1.162   5.930 -0.7448 -0.0142  1.9632
  155DOPC  C21418628   2.953   1.275   5.745  0.0247  0.0228  0.6088
  155DOPC  H14R18629   3.015   1.363   5.772  1.8821 -1.1798  0.4474
  155DOPC  H14S18630   2.875   1.320   5.680 -0.4246 -0.7347  0.6140
  155DOPC  C21518631   3.029   1.176   5.666  0.2332 -0.3807 -0.1041
  155DOPC  H15R18632   2.964   1.087   5.651  0.0976 -0.1108 -1.1947
  155DOPC  H15S18633   3.130   1.149   5.704  0.9727  1.5488 -0.5908
  155DOPC  C21618634   3.056   1.221   5.519  0.6770 -0.4475  0.3573
  155DOPC  H16R18635   3.126   1.307   5.514  0.1665 -0.0585 -0.3462
  155DOPC  H16S18636   2.959   1.256   5.478  1.7801  0.1082 -1.9262
  155DOPC  C21718637   3.122   1.108   5.441  0.2014 -0.5306 -0.2820
  155DOPC  H17R18638   3.067   1.012   5.430  2.0020 -1.5230 -1.0566
  155DOPC  H17S18639   3.206   1.066   5.501 -1.1376 -0.9503  1.3809
  155DOPC  C21818640   3.177   1.159   5.304  0.0793  0.1316  0.3779
  155DOPC  H18R18641   3.095   1.189   5.235  0.8770 -0.8158 -1.0316
  155DOPC  H18S18642   3.236   1.084   5.248  0.9149  0.2260  1.1025
  155DOPC  H18T18643   3.240   1.251   5.310 -0.7221  0.9086 -2.0731
  155DOPC   C3318644   2.678   1.262   6.633  0.6540  1.4698  0.2823
  155DOPC   H3X18645   2.667   1.295   6.738  0.2665  1.1658  0.3378
  155DOPC   H3Y18646   2.665   1.348   6.563 -1.2920 -0.1657 -1.4906
  155DOPC   C3418647   2.826   1.209   6.619  0.2308  0.5433 -0.5497
  155DOPC   H4X18648   2.829   1.116   6.679 -2.0071  0.2097 -0.8450
  155DOPC   H4Y18649   2.892   1.289   6.660 -0.0108  0.2663  0.4061
  155DOPC   C3518650   2.859   1.181   6.476  0.0444  0.8460 -0.3227
  155DOPC   H5X18651   2.864   1.276   6.418  1.8888  1.6987  1.1259
  155DOPC   H5Y18652   2.790   1.117   6.416 -0.6874  0.3585  1.0049
  155DOPC   C3618653   2.999   1.128   6.455  0.1103 -0.1490 -1.0111
  155DOPC   H6X18654   3.069   1.200   6.504 -1.2587  1.3721 -1.2254
  155DOPC   H6Y18655   2.999   1.025   6.498 -3.3192  0.2734  0.3053
  155DOPC   C3718656   3.028   1.124   6.306  0.5522 -0.0748  0.6838
  155DOPC   H7X18657   2.945   1.067   6.260 -0.4653  1.5785  0.3517
  155DOPC   H7Y18658   3.015   1.224   6.260  1.2986 -0.2653  0.0532
  155DOPC   C3818659   3.166   1.072   6.260  0.7821 -0.0183 -0.0826
  155DOPC   H8X18660   3.180   0.969   6.300  1.4055 -0.1479 -0.6022
  155DOPC   H8Y18661   3.230   1.138   6.322  0.3485  1.0134 -0.7064
  155DOPC   C3918662   3.196   1.081   6.112 -0.3043 -0.0395  0.7851
  155DOPC   H9X18663   3.122   1.025   6.053 -0.5959  0.6400  0.4943
  155DOPC  C31018664   3.285   1.160   6.043 -0.4439  0.0372 -0.1852
  155DOPC  H10X18665   3.281   1.160   5.933  1.3946 -2.0607 -0.3181
  155DOPC  C31118666   3.388   1.261   6.096  0.5916 -0.2705  0.4970
  155DOPC  H11X18667   3.438   1.210   6.181 -0.9062 -2.4353  0.1399
  155DOPC  H11Y18668   3.327   1.342   6.143 -1.0384 -0.6548 -0.8709
  155DOPC  C31218669   3.494   1.317   6.003  0.1056  0.1165 -0.0853
  155DOPC  H12X18670   3.563   1.237   5.966  1.9531  2.0615 -1.0695
  155DOPC  H12Y18671   3.560   1.395   6.046 -0.0918  1.5797 -2.2748
  155DOPC  C31318672   3.442   1.403   5.885 -0.4077  0.4763  0.1319
  155DOPC  H13X18673   3.431   1.327   5.804  0.9382 -2.4136  2.5026
  155DOPC  H13Y18674   3.345   1.444   5.921 -0.3024  1.4275 -0.6171
  155DOPC  C31418675   3.534   1.521   5.847 -0.0745 -0.0764 -0.0812
  155DOPC  H14X18676   3.535   1.583   5.938  0.9419 -0.3454  0.1063
  155DOPC  H14Y18677   3.636   1.485   5.818 -0.4454 -0.5751 -0.7976
  155DOPC  C31518678   3.475   1.612   5.736  0.7799  0.3209  0.4586
  155DOPC  H15X18679   3.542   1.700   5.740 -0.9149  1.6410  1.1143
  155DOPC  H15Y18680   3.378   1.650   5.774  0.2627  0.7145 -1.1543
  155DOPC  C31618681   3.446   1.545   5.600 -0.8493 -0.0130  0.1326
  155DOPC  H16X18682   3.361   1.475   5.616 -1.6865  0.7869 -0.7037
  155DOPC  H16Y18683   3.419   1.635   5.541 -0.6785  0.4038  0.6777
  155DOPC  C31718684   3.563   1.473   5.526 -0.4642 -0.1208 -0.3370
  155DOPC  H17X18685   3.651   1.541   5.518  0.8738 -1.3599  2.4131
  155DOPC  H17Y18686   3.592   1.387   5.591 -1.8218  0.3606  0.9655
  155DOPC  C31818687   3.528   1.427   5.390  0.1551  0.0832  0.6546
  155DOPC  H18X18688   3.522   1.521   5.331  0.0630 -1.2224 -1.5547
  155DOPC  H18Y18689   3.613   1.368   5.350 -0.5373 -0.0550 -0.6968
  155DOPC  H18Z18690   3.435   1.366   5.399  1.6633 -2.5260 -0.1739
  156DOPC     N18691   7.197   6.511   7.089 -0.2847  0.2231  0.0719
  156DOPC   C1218692   7.059   6.462   7.048  0.2297 -0.2828  0.5791
  156DOPC  H12A18693   7.035   6.512   6.956  3.1447  1.7287  0.7687
  156DOPC  H12B18694   6.987   6.489   7.124  0.5549  2.0329  0.1545
  156DOPC   C1318695   7.300   6.496   6.982  0.6117 -0.9241 -0.3936
  156DOPC  H13A18696   7.315   6.392   6.956 -0.5161 -1.2472  0.1637
  156DOPC  H13B18697   7.271   6.551   6.894 -2.2204 -2.7724 -0.7458
  156DOPC  H13C18698   7.393   6.540   7.016 -0.1930  0.7651 -0.2835
  156DOPC   C1418699   7.240   6.425   7.201 -0.5663 -0.7450  0.2756
  156DOPC  H14A18700   7.285   6.336   7.158  1.9025 -0.3523  1.8722
  156DOPC  H14B18701   7.313   6.473   7.264 -0.8241 -1.6277  1.2708
  156DOPC  H14C18702   7.151   6.405   7.259  0.1943 -2.7457  0.8304
  156DOPC   C1518703   7.181   6.656   7.128 -0.9772  0.0684  0.5112
  156DOPC  H15A18704   7.101   6.658   7.200 -1.8339  1.5547 -0.4080
  156DOPC  H15B18705   7.145   6.707   7.039  1.7171  0.7932 -0.2398
  156DOPC  H15C18706   7.278   6.697   7.151  0.1343  0.0759 -3.4662
  156DOPC   C1118707   7.038   6.314   7.014 -0.6328  0.1090 -0.6622
  156DOPC  H11A18708   7.067   6.258   7.106 -1.1566  1.6671  0.5008
  156DOPC  H11B18709   6.929   6.305   6.994 -0.6135  0.0753 -0.7491
  156DOPC     P18710   7.131   6.132   6.860  0.0912 -0.3597 -0.4928
  156DOPC   O1318711   7.139   6.041   6.980 -0.7871 -0.1017  0.6148
  156DOPC   O1418712   7.240   6.123   6.759  0.1783 -0.6153  0.0004
  156DOPC   O1218713   7.112   6.283   6.902  0.2787  0.0674  0.2083
  156DOPC   O1118714   7.008   6.103   6.773  0.1587  0.4230 -0.6338
  156DOPC    C118715   6.994   5.982   6.694  0.6309 -0.3016  0.5838
  156DOPC    HA18716   6.911   5.923   6.736 -1.0172  0.4024 -1.4973
  156DOPC    HB18717   7.080   5.913   6.708  0.4537 -0.8196 -0.7752
  156DOPC    C218718   6.971   6.014   6.543  0.3413 -0.3972 -0.2177
  156DOPC    HS18719   6.862   6.036   6.533  0.4986  0.4412 -0.1767
  156DOPC   O2118720   7.016   5.891   6.479 -0.2334 -0.4296  0.0001
  156DOPC   C2118721   6.954   5.868   6.364 -0.2938  0.7897  0.2476
  156DOPC   O2218722   6.859   5.922   6.317  0.1147  0.1296  0.2419
  156DOPC   C2218723   7.046   5.770   6.295 -0.5001  0.5676  0.0381
  156DOPC   H2R18724   7.109   5.715   6.368 -0.7497 -0.5054 -0.5251
  156DOPC   H2S18725   7.118   5.834   6.240 -1.8355  0.8486 -1.4818
  156DOPC    C318726   7.054   6.135   6.486  0.1242  0.2967 -0.1057
  156DOPC    HX18727   7.165   6.124   6.494  0.2281  1.2538 -0.1353
  156DOPC    HY18728   7.034   6.211   6.564  0.7219  0.8038 -0.4377
  156DOPC   O3118729   7.020   6.174   6.351  0.2262 -0.1705 -0.4098
  156DOPC   C3118730   6.906   6.248   6.342 -1.0657  0.3014 -0.0062
  156DOPC   O3218731   6.835   6.275   6.435  1.0225 -0.1092  0.0116
  156DOPC   C3218732   6.873   6.277   6.201 -0.1805 -0.0957  0.3080
  156DOPC   H2X18733   6.970   6.312   6.159 -0.3038  1.1598  1.0200
  156DOPC   H2Y18734   6.843   6.184   6.147  2.9737 -1.2786  0.3616
  156DOPC   C2318735   6.981   5.678   6.188 -0.1293 -0.1609  0.0016
  156DOPC   H3R18736   6.872   5.672   6.211 -0.2974 -1.1685 -0.9505
  156DOPC   H3S18737   7.025   5.577   6.206 -0.7852 -0.8131 -1.7585
  156DOPC   C2418738   7.009   5.731   6.043  0.1313  0.8624 -0.9903
  156DOPC   H4R18739   7.003   5.644   5.974  0.7335 -0.4920  0.6186
  156DOPC   H4S18740   7.113   5.769   6.025 -0.2936  1.3859 -2.4930
  156DOPC   C2518741   6.902   5.826   5.992 -1.0246 -0.1451  0.6102
  156DOPC   H5R18742   6.889   5.919   6.051  0.7432  1.3397 -1.1932
  156DOPC   H5S18743   6.806   5.774   6.007 -0.1469 -1.5103  1.6493
  156DOPC   C2618744   6.928   5.868   5.844 -0.2257  0.2152 -0.0329
  156DOPC   H6R18745   6.936   5.775   5.784  2.3694  0.8821 -0.8383
  156DOPC   H6S18746   7.030   5.911   5.840 -0.3963  0.5615 -0.9891
  156DOPC   C2718747   6.819   5.955   5.786 -0.5148 -0.0570  1.5923
  156DOPC   H7R18748   6.814   6.045   5.852 -0.1686  0.4069  0.9912
  156DOPC   H7S18749   6.726   5.897   5.805  0.0660 -1.5119  0.1669
  156DOPC   C2818750   6.837   5.992   5.636  0.0146 -0.3746  0.1640
  156DOPC   H8R18751   6.933   6.047   5.623  0.3069 -1.0306 -0.5145
  156DOPC   H8S18752   6.753   6.060   5.611  1.8640  1.6952 -0.7202
  156DOPC   C2918753   6.828   5.871   5.548  0.0860  0.3002  0.6849
  156DOPC   H9R18754   6.880   5.780   5.583  1.6545  0.4503 -1.1406
  156DOPC  C21018755   6.733   5.863   5.445 -0.1373 -1.0664  0.0993
  156DOPC  H10R18756   6.747   5.772   5.385  1.2542 -0.6980 -0.1754
  156DOPC  C21118757   6.674   5.982   5.378 -0.4133 -0.1875 -0.3751
  156DOPC  H11R18758   6.744   6.063   5.409 -0.6479 -0.2824  0.4346
  156DOPC  H11S18759   6.573   6.011   5.412  0.9132  2.0694  2.0994
  156DOPC  C21218760   6.681   5.983   5.229  0.0060 -0.0674  0.1872
  156DOPC  H12R18761   6.776   5.940   5.190 -0.3181 -1.8067  1.2370
  156DOPC  H12S18762   6.679   6.091   5.200 -2.7437  0.3806  1.7134
  156DOPC  C21318763   6.567   5.918   5.171  0.2490 -0.2022 -0.0173
  156DOPC  H13R18764   6.475   5.978   5.188 -0.2064 -1.0985  0.7670
  156DOPC  H13S18765   6.559   5.818   5.218  0.6222  0.6575  1.9866
  156DOPC  C21418766   6.584   5.894   5.023  0.8034 -0.0302 -0.3280
  156DOPC  H14R18767   6.627   5.981   4.968  1.8932 -0.4202 -0.1237
  156DOPC  H14S18768   6.487   5.880   4.972 -0.7062  0.5701  2.2304
  156DOPC  C21518769   6.672   5.771   4.981 -0.4004 -0.2106 -0.2363
  156DOPC  H15R18770   6.621   5.682   5.024 -2.1054  0.8649  0.0535
  156DOPC  H15S18771   6.769   5.783   5.035  0.5159  2.1796 -2.2371
  156DOPC  C21618772   6.690   5.747   4.837  0.1019  0.0663 -0.0509
  156DOPC  H16R18773   6.732   5.832   4.778 -2.0152  1.2092 -0.0068
  156DOPC  H16S18774   6.594   5.721   4.787 -0.2239 -0.4408  0.8111
  156DOPC  C21718775   6.780   5.625   4.806  0.5632  0.1690 -0.7838
  156DOPC  H17R18776   6.880   5.659   4.842  0.8664 -1.3900 -0.0455
  156DOPC  H17S18777   6.771   5.599   4.699 -0.9929 -0.6215 -0.4775
  156DOPC  C21818778   6.757   5.499   4.891  0.2729  0.3724 -0.2328
  156DOPC  H18R18779   6.648   5.491   4.913  0.0698 -1.1894 -1.5860
  156DOPC  H18S18780   6.806   5.500   4.990 -2.2695  2.9807  1.1533
  156DOPC  H18T18781   6.791   5.414   4.828 -0.6598 -0.8206  0.8378
  156DOPC   C3318782   6.776   6.396   6.178 -0.2698  0.7220  0.0663
  156DOPC   H3X18783   6.796   6.482   6.245 -0.7945  1.9749 -1.3237
  156DOPC   H3Y18784   6.672   6.362   6.196 -1.5350  3.5090 -1.3556
  156DOPC   C3418785   6.777   6.449   6.033  0.3032  0.3592 -0.2604
  156DOPC   H4X18786   6.880   6.473   6.001 -0.2237 -0.9199 -3.2483
  156DOPC   H4Y18787   6.726   6.548   6.026  0.6016  0.7005  1.8989
  156DOPC   C3518788   6.711   6.366   5.935 -0.0317 -0.4065  0.6285
  156DOPC   H5X18789   6.603   6.363   5.963 -0.1827 -1.3720 -0.0029
  156DOPC   H5Y18790   6.738   6.258   5.940 -1.7836 -0.9397 -0.3669
  156DOPC   C3618791   6.729   6.411   5.784 -0.9733  0.3677 -0.8245
  156DOPC   H6X18792   6.705   6.519   5.791 -1.0213  0.2508  1.4556
  156DOPC   H6Y18793   6.834   6.398   5.749 -2.2472  0.6505 -5.4187
  156DOPC   C3718794   6.639   6.337   5.695  0.3294  0.2497 -0.0800
  156DOPC   H7X18795   6.641   6.228   5.718  1.2338  0.3471  0.3647
  156DOPC   H7Y18796   6.536   6.373   5.717 -1.0497 -0.9526 -3.7439
  156DOPC   C3818797   6.650   6.358   5.542 -0.1758 -0.1399 -0.7539
  156DOPC   H8X18798   6.746   6.330   5.492 -1.4835 -2.7163 -2.0385
  156DOPC   H8Y18799   6.627   6.467   5.545  0.6503  0.0216  0.6207
  156DOPC   C3918800   6.534   6.274   5.486 -0.3489 -1.0493  0.2008
  156DOPC   H9X18801   6.537   6.173   5.530  0.4792 -1.2242 -0.2273
  156DOPC  C31018802   6.433   6.313   5.411 -0.2394  0.2438  0.7219
  156DOPC  H10X18803   6.359   6.236   5.386  1.7555 -1.3204 -0.7645
  156DOPC  C31118804   6.401   6.446   5.346 -0.0668 -0.2830 -0.2668
  156DOPC  H11X18805   6.497   6.495   5.318  0.0124  0.0200  0.5077
  156DOPC  H11Y18806   6.346   6.518   5.410 -0.0484  0.1515 -0.7374
  156DOPC  C31218807   6.315   6.427   5.227 -0.4901 -0.4180  0.6868
  156DOPC  H12X18808   6.279   6.519   5.177 -1.5795 -1.4081 -0.4266
  156DOPC  H12Y18809   6.215   6.383   5.245 -1.5532  1.2941 -0.6692
  156DOPC  C31318810   6.379   6.321   5.129  0.2031 -1.1437 -0.2802
  156DOPC  H13X18811   6.488   6.339   5.123 -0.1324  1.4224  0.1146
  156DOPC  H13Y18812   6.369   6.223   5.181  0.5119 -0.6825  0.6786
  156DOPC  C31418813   6.316   6.314   4.997  0.3059 -0.2293 -0.2187
  156DOPC  H14X18814   6.207   6.313   5.015  0.4947 -0.9733  1.0295
  156DOPC  H14Y18815   6.346   6.409   4.947  0.7301 -0.6344 -0.7436
  156DOPC  C31518816   6.353   6.193   4.906  0.4156 -0.5471 -0.0627
  156DOPC  H15X18817   6.354   6.111   4.981 -1.2715  0.1716  0.7870
  156DOPC  H15Y18818   6.461   6.191   4.879  0.6893 -2.9760  0.9902
  156DOPC  C31618819   6.268   6.180   4.780 -0.8504  0.4357  0.2611
  156DOPC  H16X18820   6.168   6.154   4.820 -1.6826  1.8206 -0.8287
  156DOPC  H16Y18821   6.271   6.272   4.717  0.7227 -0.9719 -1.8681
  156DOPC  C31718822   6.314   6.064   4.684 -0.5860 -1.1883  0.0696
  156DOPC  H17X18823   6.367   5.985   4.741  2.7676 -0.2831 -1.5268
  156DOPC  H17Y18824   6.225   6.013   4.640  0.3274 -0.2258 -3.2127
  156DOPC  C31818825   6.400   6.110   4.557  0.1494  0.4156 -0.2690
  156DOPC  H18X18826   6.378   6.215   4.529 -0.9204  0.0220 -0.9493
  156DOPC  H18Y18827   6.510   6.106   4.572 -0.2400 -1.2796  3.0188
  156DOPC  H18Z18828   6.368   6.046   4.473 -1.1783  0.7830 -0.0735
  157DOPC     N18829   7.420   0.500   7.103 -0.0819  0.2489 -0.5052
  157DOPC   C1218830   7.441   0.592   6.978  0.0300  0.1760 -0.4019
  157DOPC  H12A18831   7.356   0.570   6.915  0.3793 -2.6619  0.0039
  157DOPC  H12B18832   7.522   0.559   6.914 -1.5072  1.5552 -3.2817
  157DOPC   C1318833   7.543   0.512   7.189  0.5370 -0.1606 -0.3169
  157DOPC  H13A18834   7.536   0.603   7.247 -2.3589  0.6620 -1.7541
  157DOPC  H13B18835   7.551   0.429   7.257 -3.7189  1.2897  2.3191
  157DOPC  H13C18836   7.634   0.515   7.130  0.1519 -0.4714 -0.9285
  157DOPC   C1418837   7.400   0.358   7.055 -0.2051  1.0122  0.9147
  157DOPC  H14A18838   7.334   0.347   6.971  2.3429 -0.1552 -1.0655
  157DOPC  H14B18839   7.491   0.332   7.003 -0.2933 -2.1106  2.1406
  157DOPC  H14C18840   7.377   0.297   7.142  0.4644  2.4621  2.1680
  157DOPC   C1518841   7.300   0.549   7.184  0.1014  0.9531  0.0236
  157DOPC  H15A18842   7.284   0.501   7.280  1.2008  0.6148  0.0480
  157DOPC  H15B18843   7.209   0.532   7.129 -0.4871 -0.3146  1.3291
  157DOPC  H15C18844   7.309   0.655   7.203  0.2265  1.3291 -1.9735
  157DOPC   C1118845   7.468   0.745   6.999 -0.0030 -0.2313 -0.0308
  157DOPC  H11A18846   7.552   0.753   7.071 -0.2316 -0.0644  0.2177
  157DOPC  H11B18847   7.498   0.802   6.908  1.6379 -1.3097 -0.2161
  157DOPC     P18848   7.348   0.949   7.109  0.3926  0.2575 -0.4042
  157DOPC   O1318849   7.452   0.974   7.204  0.5043 -0.4156 -0.2815
  157DOPC   O1418850   7.210   0.972   7.152  0.1492 -0.2215  0.3239
  157DOPC   O1218851   7.353   0.810   7.053 -0.2517 -0.3962  0.1834
  157DOPC   O1118852   7.379   1.042   6.977 -0.2565 -0.3644 -0.4455
  157DOPC    C118853   7.275   1.059   6.881 -0.1385  0.4047 -0.7084
  157DOPC    HA18854   7.293   1.153   6.825  0.2030 -0.2068 -1.6365
  157DOPC    HB18855   7.178   1.075   6.934  0.0590  0.8956 -0.4829
  157DOPC    C218856   7.255   0.949   6.777 -0.3120  0.2064  0.9198
  157DOPC    HS18857   7.234   0.856   6.833  0.6401 -1.5184 -1.4201
  157DOPC   O2118858   7.376   0.928   6.701  0.0790  0.4455 -0.0197
  157DOPC   C2118859   7.386   0.808   6.647  0.4850  0.3334  0.0826
  157DOPC   O2218860   7.303   0.723   6.657 -0.4136 -0.0090  0.2325
  157DOPC   C2218861   7.522   0.788   6.578 -0.3637 -0.1316 -0.5688
  157DOPC   H2R18862   7.544   0.679   6.567 -1.4303 -0.6948  2.0554
  157DOPC   H2S18863   7.600   0.830   6.645 -1.8574  1.6208  0.1759
  157DOPC    C318864   7.141   0.994   6.677  0.3388 -0.2100 -0.1495
  157DOPC    HX18865   7.047   0.970   6.732 -0.1550  4.0963  1.2738
  157DOPC    HY18866   7.138   0.927   6.589  0.9224  0.5338 -0.7502
  157DOPC   O3118867   7.146   1.125   6.637 -0.3272 -0.0601 -0.3174
  157DOPC   C3118868   7.066   1.217   6.696  0.3140 -0.4265 -0.3097
  157DOPC   O3218869   6.991   1.193   6.790 -0.2058 -0.0164 -0.4767
  157DOPC   C3218870   7.077   1.344   6.613  0.4625 -0.0048  0.0243
  157DOPC   H2X18871   7.177   1.387   6.634 -0.0731 -0.0071  3.1885
  157DOPC   H2Y18872   7.059   1.314   6.508 -2.4483  1.0970  0.1123
  157DOPC   C2318873   7.528   0.867   6.445  0.3037 -0.1989  0.3974
  157DOPC   H3R18874   7.634   0.865   6.412  0.2396 -0.6449  0.2215
  157DOPC   H3S18875   7.488   0.969   6.464 -1.3274 -1.3141  3.9146
  157DOPC   C2418876   7.446   0.796   6.334 -0.4208  0.7476 -0.3841
  157DOPC   H4R18877   7.338   0.782   6.355 -0.7633  0.7924 -1.9608
  157DOPC   H4S18878   7.478   0.691   6.314 -1.6294 -0.7855  4.3732
  157DOPC   C2518879   7.470   0.873   6.203  0.2600  0.2486  0.6112
  157DOPC   H5R18880   7.579   0.874   6.183  0.0215 -0.4143 -0.8324
  157DOPC   H5S18881   7.430   0.977   6.210  0.4017  0.2068  2.8869
  157DOPC   C2618882   7.415   0.810   6.074 -0.7590  0.4697 -0.4694
  157DOPC   H6R18883   7.304   0.807   6.074 -1.1823  5.0486  2.8000
  157DOPC   H6S18884   7.458   0.707   6.076  0.0305  0.7799 -1.0762
  157DOPC   C2718885   7.461   0.882   5.946  0.1372 -0.1085 -0.1414
  157DOPC   H7R18886   7.565   0.915   5.972 -0.3363  0.5764  0.9868
  157DOPC   H7S18887   7.403   0.976   5.939 -0.0510 -0.3521 -3.1313
  157DOPC   C2818888   7.459   0.808   5.810 -0.2306 -0.3591 -0.7926
  157DOPC   H8R18889   7.503   0.707   5.817  1.9314  0.5874  0.1645
  157DOPC   H8S18890   7.512   0.867   5.733 -0.8689  1.1657 -0.1174
  157DOPC   C2918891   7.321   0.795   5.747 -0.4744  0.2715  0.0910
  157DOPC   H9R18892   7.265   0.701   5.762 -1.3491  1.0759  2.4141
  157DOPC  C21018893   7.266   0.894   5.673 -0.0053 -0.6170  0.2594
  157DOPC  H10R18894   7.171   0.865   5.626  0.2767 -0.4596 -0.4189
  157DOPC  C21118895   7.313   1.029   5.635 -0.8683  0.1684 -0.1827
  157DOPC  H11R18896   7.330   1.015   5.526 -0.7115 -0.4043 -0.0882
  157DOPC  H11S18897   7.411   1.053   5.682  0.9225 -0.2631 -3.4027
  157DOPC  C21218898   7.203   1.131   5.663 -0.4290  0.5991  0.6912
  157DOPC  H12R18899   7.201   1.148   5.772 -0.1001  1.5667  0.5540
  157DOPC  H12S18900   7.111   1.081   5.626 -0.6007 -0.6919  2.7476
  157DOPC  C21318901   7.219   1.265   5.590  0.8714  0.2581 -0.5165
  157DOPC  H13R18902   7.174   1.247   5.490 -1.5391  0.5145  0.4752
  157DOPC  H13S18903   7.328   1.284   5.582  1.2431 -0.7721  1.4619
  157DOPC  C21418904   7.138   1.382   5.649  0.3569  0.1670  0.2637
  157DOPC  H14R18905   7.179   1.481   5.619  2.8123 -0.1318  2.2507
  157DOPC  H14S18906   7.147   1.373   5.759 -0.7645  2.2299  0.5711
  157DOPC  C21518907   6.994   1.387   5.613  0.1375  0.1832 -0.2128
  157DOPC  H15R18908   6.952   1.309   5.680  0.6799  1.5527  1.8094
  157DOPC  H15S18909   6.987   1.364   5.504  0.6920  1.8093 -0.6176
  157DOPC  C21618910   6.916   1.521   5.642 -0.2936 -0.1543 -0.0334
  157DOPC  H16R18911   6.813   1.490   5.614  0.7116 -1.2189 -2.8158
  157DOPC  H16S18912   6.940   1.598   5.566  0.7527  0.5310  0.9644
  157DOPC  C21718913   6.942   1.579   5.785  0.0139  0.7368  0.9442
  157DOPC  H17R18914   7.047   1.572   5.820  0.1662  0.9283  0.5207
  157DOPC  H17S18915   6.892   1.517   5.863 -0.8947 -1.1784 -1.0356
  157DOPC  C21818916   6.888   1.724   5.798 -0.4462 -0.6319 -0.4015
  157DOPC  H18R18917   6.780   1.725   5.773 -0.4720 -2.1662 -0.4438
  157DOPC  H18S18918   6.944   1.783   5.722  2.5297 -0.6010  1.6508
  157DOPC  H18T18919   6.916   1.761   5.899 -0.4806 -1.2083 -0.1740
  157DOPC   C3318920   6.970   1.456   6.642  0.6241 -0.0529 -0.1067
  157DOPC   H3X18921   6.998   1.553   6.594 -0.5190 -0.6233 -2.0180
  157DOPC   H3Y18922   6.963   1.467   6.753  1.9206  0.1775 -0.0278
  157DOPC   C3418923   6.829   1.417   6.588  0.3802  1.1436  0.1004
  157DOPC   H4X18924   6.803   1.318   6.631  0.1721  0.3471 -1.7611
  157DOPC   H4Y18925   6.831   1.412   6.477 -1.7625  1.4668 -0.0034
  157DOPC   C3518926   6.721   1.520   6.622 -0.3226  0.0020 -0.4771
  157DOPC   H5X18927   6.721   1.545   6.730 -3.4689 -0.6854 -0.2390
  157DOPC   H5Y18928   6.619   1.476   6.620 -1.0382  1.5076  0.5855
  157DOPC   C3618929   6.713   1.653   6.539 -0.2764  0.3781 -0.6767
  157DOPC   H6X18930   6.804   1.715   6.555  0.6485 -0.7424 -1.4653
  157DOPC   H6Y18931   6.704   1.622   6.433 -0.5078 -0.6356 -0.3767
  157DOPC   C3718932   6.596   1.737   6.578 -0.0474  0.1393 -0.1589
  157DOPC   H7X18933   6.502   1.679   6.566 -0.4725  0.9867 -1.0002
  157DOPC   H7Y18934   6.609   1.767   6.684  0.0731  2.1423 -0.7022
  157DOPC   C3818935   6.601   1.867   6.496  0.0520 -1.0969  0.3131
  157DOPC   H8X18936   6.593   1.835   6.390  1.0351 -0.7424  0.1124
  157DOPC   H8Y18937   6.701   1.916   6.491 -0.8171  0.7528  0.2763
  157DOPC   C3918938   6.505   1.976   6.542 -0.7802 -0.1222  0.3105
  157DOPC   H9X18939   6.563   2.061   6.583 -0.6785  0.7635 -1.5394
  157DOPC  C31018940   6.374   1.990   6.516 -0.8792  0.2634  1.3518
  157DOPC  H10X18941   6.315   2.074   6.555 -1.2831 -0.1178  1.5801
  157DOPC  C31118942   6.286   1.878   6.459  0.2580 -0.5332 -0.4744
  157DOPC  H11X18943   6.201   1.865   6.530  0.6741  0.9779  0.3676
  157DOPC  H11Y18944   6.340   1.782   6.446 -1.5750 -1.6795  0.1098
  157DOPC  C31218945   6.218   1.915   6.329 -0.0974  0.1095  0.5344
  157DOPC  H12X18946   6.188   2.022   6.330  0.1520  0.2154 -0.9344
  157DOPC  H12Y18947   6.120   1.863   6.323 -0.8946  1.5393  0.6524
  157DOPC  C31318948   6.291   1.879   6.198  0.2538  0.0413 -0.3096
  157DOPC  H13X18949   6.381   1.944   6.198 -0.7670  1.5432 -1.5989
  157DOPC  H13Y18950   6.311   1.772   6.219 -1.3601 -0.0991  0.6474
  157DOPC  C31418951   6.207   1.906   6.071 -0.4624  0.6576 -0.2217
  157DOPC  H14X18952   6.107   1.867   6.100  0.4058 -0.7117  1.0639
  157DOPC  H14Y18953   6.202   2.017   6.060 -2.7791  0.5076 -1.2387
  157DOPC  C31518954   6.251   1.817   5.960  0.1545  0.0494 -0.4578
  157DOPC  H15X18955   6.240   1.710   5.990 -1.1834  0.1468 -0.5435
  157DOPC  H15Y18956   6.361   1.827   5.956  0.2533 -0.4230  0.7294
  157DOPC  C31618957   6.192   1.854   5.830 -0.2383 -0.6559 -0.1628
  157DOPC  H16X18958   6.082   1.850   5.818 -0.1665  0.0177 -1.2442
  157DOPC  H16Y18959   6.216   1.963   5.825  0.2429 -0.7348  0.3640
  157DOPC  C31718960   6.253   1.786   5.710 -0.0204  0.4320  0.1755
  157DOPC  H17X18961   6.231   1.843   5.618  1.4259 -2.5721 -2.1905
  157DOPC  H17Y18962   6.362   1.791   5.729 -0.0628 -0.8004  0.9098
  157DOPC  C31818963   6.224   1.632   5.685  0.1212 -0.5306 -0.0939
  157DOPC  H18X18964   6.256   1.567   5.770 -0.4238 -2.5794 -1.3985
  157DOPC  H18Y18965   6.115   1.612   5.690 -0.0972  0.5507 -0.2832
  157DOPC  H18Z18966   6.265   1.599   5.587  1.5378  1.3598 -0.2050
  158DOPC     N18967   5.112   7.532   7.341 -0.1674 -0.1567 -0.3537
  158DOPC   C1218968   5.148   7.527   7.197 -0.0910 -0.0133  0.1788
  158DOPC  H12A18969   5.234   7.591   7.189 -1.4737  1.8704 -0.4128
  158DOPC  H12B18970   5.074   7.579   7.138  1.5342  0.5772 -1.4174
  158DOPC   C1318971   5.054   7.671   7.376 -0.3520 -0.1774  0.4489
  158DOPC  H13A18972   5.129   7.747   7.357  0.4009 -1.0085  0.0557
  158DOPC  H13B18973   4.962   7.688   7.323  0.1322  0.9879 -0.0635
  158DOPC  H13C18974   5.023   7.687   7.478  0.6314 -0.6624  0.8368
  158DOPC   C1418975   5.223   7.509   7.438 -0.0768 -0.5116 -0.8237
  158DOPC  H14A18976   5.289   7.429   7.408 -0.6157 -1.0897 -0.5099
  158DOPC  H14B18977   5.289   7.594   7.445 -2.6723  1.4891  1.5220
  158DOPC  H14C18978   5.190   7.503   7.540  3.1034 -0.4496  0.3116
  158DOPC   C1518979   5.002   7.434   7.357 -0.4860  0.0438  0.0234
  158DOPC  H15A18980   4.947   7.442   7.449  0.6068 -0.1271  0.7106
  158DOPC  H15B18981   5.037   7.333   7.341  0.1521  0.1966  0.4224
  158DOPC  H15C18982   4.929   7.453   7.280  0.2533  1.0037 -0.4537
  158DOPC   C1118983   5.176   7.385   7.140 -0.4728  0.2110  0.4489
  158DOPC  H11A18984   5.081   7.332   7.116 -0.5461  0.5222  0.0516
  158DOPC  H11B18985   5.228   7.407   7.044 -0.3934  0.7198  0.6062
  158DOPC     P18986   5.220   7.143   7.247  0.0883  0.0983 -0.0287
  158DOPC   O1318987   5.082   7.128   7.295 -0.1383 -0.4046 -0.1430
  158DOPC   O1418988   5.327   7.071   7.318 -0.3763 -0.2197 -0.4687
  158DOPC   O1218989   5.259   7.297   7.221 -1.0256 -0.5116 -0.0103
  158DOPC   O1118990   5.219   7.094   7.096 -0.3401 -0.4305  0.0929
  158DOPC    C118991   5.337   7.098   7.024 -0.3330 -0.0599 -0.1466
  158DOPC    HA18992   5.407   7.017   7.053  0.8579  0.6681 -0.8819
  158DOPC    HB18993   5.402   7.188   7.031  0.1871 -0.4349  0.0005
  158DOPC    C218994   5.311   7.082   6.872 -0.1943 -0.4749 -0.0905
  158DOPC    HS18995   5.253   7.173   6.848 -2.4505 -1.5723  0.8751
  158DOPC   O2118996   5.234   6.966   6.847  0.3497 -0.5445  0.1785
  158DOPC   C2118997   5.134   6.980   6.761  0.5720  0.7150 -0.1121
  158DOPC   O2218998   5.101   7.086   6.705 -0.1072  0.9881 -0.2385
  158DOPC   C2218999   5.048   6.853   6.764 -0.1940  0.1582  0.5919
  158DOPC   H2R19000   5.022   6.851   6.872  0.3363  0.0341  0.7200
  158DOPC   H2S19001   5.112   6.764   6.752  0.3014  0.4907  0.7435
  158DOPC    C319002   5.443   7.088   6.798  0.8329 -0.2381  0.2334
  158DOPC    HX19003   5.498   6.997   6.830  0.1873 -2.0144 -3.1495
  158DOPC    HY19004   5.507   7.176   6.820 -0.3716  1.1162 -1.2913
  158DOPC   O3119005   5.429   7.075   6.654 -0.1784  0.2802  0.5939
  158DOPC   C3119006   5.368   7.177   6.591 -1.0438 -0.1901 -0.0356
  158DOPC   O3219007   5.350   7.289   6.645 -0.0093 -0.3534  0.4851
  158DOPC   C3219008   5.325   7.153   6.446  0.7143 -0.1433  0.2734
  158DOPC   H2X19009   5.408   7.110   6.385 -0.0472 -1.2267 -0.0234
  158DOPC   H2Y19010   5.239   7.082   6.453 -0.6280  1.1867 -1.6333
  158DOPC   C2319011   4.921   6.846   6.673 -0.3026 -0.1921  0.6232
  158DOPC   H3R19012   4.877   6.947   6.687  0.1562 -0.1440  1.8778
  158DOPC   H3S19013   4.859   6.760   6.707  0.5346 -0.1680  2.3028
  158DOPC   C2419014   4.941   6.831   6.525  0.7320  0.0033  0.6375
  158DOPC   H4R19015   4.972   6.727   6.501 -0.2251  0.2191 -1.8052
  158DOPC   H4S19016   5.019   6.902   6.492 -0.9974  1.5521 -0.2826
  158DOPC   C2519017   4.816   6.864   6.448 -0.1473 -0.1790 -0.7646
  158DOPC   H5R19018   4.757   6.940   6.504  1.3015 -1.2948  2.4935
  158DOPC   H5S19019   4.751   6.776   6.427 -1.1914  0.2777  0.4409
  158DOPC   C2619020   4.861   6.909   6.310  0.4339  0.2874  0.5080
  158DOPC   H6R19021   4.952   6.860   6.270  1.7401  2.2392  0.9478
  158DOPC   H6S19022   4.901   7.008   6.341  1.5970 -0.5361  1.7344
  158DOPC   C2719023   4.753   6.942   6.205  0.1453  0.0701 -0.0755
  158DOPC   H7R19024   4.792   7.004   6.122 -1.0069  0.2047 -0.5335
  158DOPC   H7S19025   4.677   7.002   6.260 -1.7986 -1.2033 -1.2364
  158DOPC   C2819026   4.692   6.811   6.155  0.2305 -0.1392  0.1918
  158DOPC   H8R19027   4.604   6.830   6.089  1.8187 -0.4731 -2.1558
  158DOPC   H8S19028   4.655   6.757   6.245  0.2801  1.4499  1.1996
  158DOPC   C2919029   4.805   6.743   6.083  0.1330 -0.6246 -0.5229
  158DOPC   H9R19030   4.883   6.714   6.155 -2.0381 -1.0120  1.8150
  158DOPC  C21019031   4.818   6.728   5.950  0.1311 -0.3393  0.5832
  158DOPC  H10R19032   4.908   6.675   5.916 -0.4223 -0.1441 -1.2918
  158DOPC  C21119033   4.722   6.772   5.846 -0.0320 -0.2600 -0.6437
  158DOPC  H11R19034   4.690   6.877   5.867 -1.4176 -1.0503  1.5780
  158DOPC  H11S19035   4.632   6.708   5.852  0.4070 -0.9125 -0.9824
  158DOPC  C21219036   4.794   6.765   5.712  0.1878 -0.2000  0.1260
  158DOPC  H12R19037   4.808   6.656   5.693 -0.3121  0.1161 -2.4194
  158DOPC  H12S19038   4.897   6.807   5.713  0.2454 -0.2723 -1.1236
  158DOPC  C21319039   4.700   6.823   5.601  0.0504 -0.0919 -0.6520
  158DOPC  H13R19040   4.733   6.813   5.495 -0.3637  2.5225 -1.0737
  158DOPC  H13S19041   4.686   6.932   5.615 -0.8605 -0.1696 -0.8910
  158DOPC  C21419042   4.566   6.753   5.594  0.3319 -0.4322  0.2433
  158DOPC  H14R19043   4.505   6.787   5.681  1.4594 -0.2208  0.9730
  158DOPC  H14S19044   4.584   6.644   5.597  0.6868 -0.4126 -0.8419
  158DOPC  C21519045   4.498   6.783   5.462  0.2640  0.1774  0.0682
  158DOPC  H15R19046   4.567   6.762   5.377  0.0104 -1.7548  0.2968
  158DOPC  H15S19047   4.469   6.891   5.465 -1.0951 -0.1888  0.9231
  158DOPC  C21619048   4.372   6.701   5.440 -0.3028 -0.6221 -0.0651
  158DOPC  H16R19049   4.312   6.718   5.532  2.4402  1.5727  1.4701
  158DOPC  H16S19050   4.401   6.595   5.422 -2.9048 -1.0466 -2.5576
  158DOPC  C21719051   4.293   6.737   5.316  0.5167  0.0521 -1.2518
  158DOPC  H17R19052   4.236   6.645   5.288 -0.3192  0.7465 -1.8977
  158DOPC  H17S19053   4.355   6.776   5.233  0.0241  2.1210 -0.6999
  158DOPC  C21819054   4.193   6.853   5.346  0.5225  0.7717 -0.4508
  158DOPC  H18R19055   4.138   6.897   5.261  0.3382  2.8375  0.6653
  158DOPC  H18S19056   4.245   6.942   5.387  2.3467 -0.8049  0.8802
  158DOPC  H18T19057   4.116   6.815   5.417  2.4810 -2.4575  0.1731
  158DOPC   C3319058   5.263   7.281   6.383 -0.3215  0.0332 -0.2296
  158DOPC   H3X19059   5.334   7.365   6.395 -0.1630 -0.1089 -0.1631
  158DOPC   H3Y19060   5.179   7.326   6.439  1.2340  1.6282  0.9565
  158DOPC   C3419061   5.236   7.254   6.229 -0.3372  0.1597  0.1633
  158DOPC   H4X19062   5.251   7.145   6.215 -0.5312  0.1597 -0.0500
  158DOPC   H4Y19063   5.308   7.304   6.161  2.0246 -1.1259  1.5707
  158DOPC   C3519064   5.097   7.309   6.183 -0.4927  0.1877 -0.2648
  158DOPC   H5X19065   5.113   7.418   6.194  1.3633 -0.2655  2.8428
  158DOPC   H5Y19066   5.018   7.284   6.258 -0.7928 -3.1271 -1.5353
  158DOPC   C3619067   5.056   7.274   6.045 -0.0118  0.4323 -0.0023
  158DOPC   H6X19068   4.947   7.294   6.033 -0.3540 -1.4551 -0.3728
  158DOPC   H6Y19069   5.121   7.318   5.966 -1.2688  0.1362 -1.2585
  158DOPC   C3719070   5.064   7.122   6.019  0.1908 -0.3518 -0.7380
  158DOPC   H7X19071   5.172   7.100   6.022 -0.3355 -3.1853  0.3312
  158DOPC   H7Y19072   5.013   7.078   6.107 -0.7413  1.8246 -0.1005
  158DOPC   C3819073   4.996   7.081   5.888  0.2919  0.4169  0.1365
  158DOPC   H8X19074   4.886   7.096   5.888  0.2019  0.0640  2.1117
  158DOPC   H8Y19075   5.007   6.970   5.878 -1.7125  0.1654  0.1632
  158DOPC   C3919076   5.058   7.139   5.765 -0.0739  0.0895 -0.3457
  158DOPC   H9X19077   5.142   7.082   5.724  0.5025  1.4072 -1.0621
  158DOPC  C31019078   5.003   7.239   5.698  0.1169  0.1957  0.8717
  158DOPC  H10X19079   5.070   7.270   5.616 -1.1467 -0.0489 -0.2922
  158DOPC  C31119080   4.874   7.317   5.720  0.7655 -0.0460 -0.7083
  158DOPC  H11X19081   4.900   7.422   5.747  0.9169 -0.8857  2.8851
  158DOPC  H11Y19082   4.831   7.285   5.818 -0.5784  0.2429 -1.1815
  158DOPC  C31219083   4.772   7.289   5.603 -0.6627  0.6302 -0.5967
  158DOPC  H12X19084   4.670   7.311   5.641 -0.0265 -2.3539  3.6314
  158DOPC  H12Y19085   4.778   7.182   5.576 -1.7248  0.7731 -1.4516
  158DOPC  C31319086   4.811   7.376   5.478  0.2241 -0.3594 -0.3011
  158DOPC  H13X19087   4.836   7.478   5.516  1.2801 -0.6667 -0.1238
  158DOPC  H13Y19088   4.910   7.347   5.436  0.0498 -0.4240 -0.6597
  158DOPC  C31419089   4.700   7.377   5.377 -0.2411  0.6589 -0.0139
  158DOPC  H14X19090   4.677   7.280   5.329 -1.8187  0.8299  0.3297
  158DOPC  H14Y19091   4.615   7.415   5.438  0.6875  1.9968  0.4879
  158DOPC  C31519092   4.718   7.488   5.268  0.4059 -0.1618 -0.3295
  158DOPC  H15X19093   4.802   7.452   5.205  0.5997 -0.2174 -0.0434
  158DOPC  H15Y19094   4.748   7.569   5.338 -1.5514  0.3325 -0.0056
  158DOPC  C31619095   4.587   7.523   5.200  0.7043  0.3056 -0.5107
  158DOPC  H16X19096   4.549   7.434   5.145 -1.2667  0.1435  1.0165
  158DOPC  H16Y19097   4.508   7.545   5.275  1.3941 -2.7559  1.2651
  158DOPC  C31719098   4.596   7.641   5.106 -0.3163  0.0189 -0.1231
  158DOPC  H17X19099   4.640   7.722   5.167  0.9508 -1.5368  1.1232
  158DOPC  H17Y19100   4.667   7.621   5.022 -0.5911 -0.4651 -0.2465
  158DOPC  C31819101   4.464   7.689   5.048 -0.3009 -0.6831  0.1061
  158DOPC  H18X19102   4.407   7.757   5.115  0.2482 -0.3314  0.2226
  158DOPC  H18Y19103   4.482   7.760   4.964  0.3306 -1.0767 -0.0906
  158DOPC  H18Z19104   4.392   7.610   5.017 -2.0589  1.0471 -0.4332
  159DOPC     N19105   0.037   2.205   7.480 -0.1947  0.2581 -0.2220
  159DOPC   C1219106   0.023   2.210   7.325 -0.4871 -0.6200 -0.5366
  159DOPC  H12A19107   0.055   2.308   7.295 -0.6455 -1.3482 -3.2990
  159DOPC  H12B19108  -0.083   2.205   7.304 -0.8413  0.4460  0.8160
  159DOPC   C1319109  -0.038   2.307   7.560 -0.0971  0.1690 -0.0156
  159DOPC  H13A19110  -0.029   2.275   7.663  1.0597 -0.1098 -0.1917
  159DOPC  H13B19111   0.017   2.400   7.556  1.8508 -0.9459 -0.7205
  159DOPC  H13C19112  -0.138   2.312   7.520 -0.7438  0.8122  1.5625
  159DOPC   C1419113   0.185   2.205   7.514  0.8797 -0.3556  0.7015
  159DOPC  H14A19114   0.219   2.307   7.501 -2.2911  0.6833 -0.2176
  159DOPC  H14B19115   0.201   2.175   7.617 -2.3091  1.2869  1.8217
  159DOPC  H14C19116   0.236   2.144   7.442  0.3287 -0.8147  0.6982
  159DOPC   C1519117  -0.025   2.072   7.525 -0.1820 -0.2119 -0.4113
  159DOPC  H15A19118  -0.027   2.057   7.632  0.3547 -3.5208 -0.7406
  159DOPC  H15B19119   0.039   1.992   7.489  1.5099  0.7440  0.3251
  159DOPC  H15C19120  -0.125   2.058   7.488 -0.2278  0.6006 -0.6058
  159DOPC   C1119121   0.095   2.106   7.238 -0.1176 -0.1301 -0.1563
  159DOPC  H11A19122   0.048   2.009   7.264  2.8638 -1.1865  1.7933
  159DOPC  H11B19123   0.075   2.126   7.131  1.2507  1.3244 -0.1723
  159DOPC     P19124   0.328   2.212   7.202 -0.1416 -0.1035  0.4935
  159DOPC   O1319125   0.460   2.185   7.246  0.0685 -0.4034 -0.3652
  159DOPC   O1419126   0.266   2.340   7.247 -0.3566  0.0468  0.1606
  159DOPC   O1219127   0.236   2.098   7.268  0.2267  0.3484  0.1710
  159DOPC   O1119128   0.307   2.200   7.046 -0.0987 -0.2450  0.0819
  159DOPC    C119129   0.342   2.085   6.980 -0.0671  0.0737  0.0040
  159DOPC    HA19130   0.290   1.993   7.015  0.3504  0.1002  0.7117
  159DOPC    HB19131   0.453   2.090   6.980 -0.0467  2.3232 -3.0352
  159DOPC    C219132   0.305   2.099   6.834 -0.4996  0.0219  0.4540
  159DOPC    HS19133   0.299   2.002   6.780 -1.5890 -0.0745  0.7098
  159DOPC   O2119134   0.396   2.188   6.772  0.6900  0.2060  0.4248
  159DOPC   C2119135   0.514   2.128   6.742  0.2908 -0.1676 -0.1559
  159DOPC   O2219136   0.535   2.012   6.754 -0.1548 -0.1041 -0.2347
  159DOPC   C2219137   0.608   2.236   6.694  0.1385 -0.1441  0.3404
  159DOPC   H2R19138   0.692   2.233   6.766  1.2240 -3.0633 -0.8998
  159DOPC   H2S19139   0.563   2.337   6.706  2.1041  1.0031 -1.3419
  159DOPC    C319140   0.155   2.151   6.817 -0.4294  0.6422  0.2122
  159DOPC    HX19141   0.150   2.245   6.877 -2.3582  1.6389 -1.3935
  159DOPC    HY19142   0.083   2.080   6.863 -0.6190  1.3261  0.9944
  159DOPC   O3119143   0.119   2.156   6.678 -0.0531 -0.4326 -0.1946
  159DOPC   C3119144   0.157   2.270   6.620  0.1875  0.5444 -0.5355
  159DOPC   O3219145   0.200   2.366   6.681  0.4849  0.2261  0.1785
  159DOPC   C3219146   0.140   2.265   6.467 -0.8854 -0.1126  0.4335
  159DOPC   H2X19147   0.243   2.268   6.425 -1.7675  0.6283 -1.8066
  159DOPC   H2Y19148   0.088   2.173   6.434 -0.1852 -0.2008 -0.4613
  159DOPC   C2319149   0.659   2.210   6.556 -0.0496  0.5974 -0.4524
  159DOPC   H3R19150   0.717   2.119   6.531  1.1380  1.5235 -1.1902
  159DOPC   H3S19151   0.736   2.286   6.530 -0.3254  0.2884 -2.2577
  159DOPC   C2419152   0.551   2.230   6.451 -0.3740 -0.4440  0.6624
  159DOPC   H4R19153   0.489   2.314   6.488 -0.9390 -1.4295  2.0540
  159DOPC   H4S19154   0.471   2.153   6.462 -0.3839 -0.5090  0.1621
  159DOPC   C2519155   0.590   2.248   6.300 -0.5753 -0.3906 -0.2153
  159DOPC   H5R19156   0.503   2.219   6.237  0.4806 -1.9969 -1.0130
  159DOPC   H5S19157   0.670   2.175   6.273  1.4587  1.3336  0.9084
  159DOPC   C2619158   0.633   2.394   6.273  0.0757  0.0536  0.2225
  159DOPC   H6R19159   0.739   2.403   6.308  0.5619 -2.6811 -0.3116
  159DOPC   H6S19160   0.559   2.462   6.321  0.1348 -1.1406  2.1187
  159DOPC   C2719161   0.632   2.442   6.123  0.7596  0.7408 -0.1830
  159DOPC   H7R19162   0.696   2.533   6.116  0.8941  0.5753 -1.3761
  159DOPC   H7S19163   0.535   2.468   6.077  1.2576  2.5120 -0.2961
  159DOPC   C2819164   0.699   2.332   6.035  0.2298 -0.0310  0.0730
  159DOPC   H8R19165   0.634   2.241   6.039  1.6627 -1.0395  1.5239
  159DOPC   H8S19166   0.797   2.310   6.081 -0.2781  0.7566  1.5881
  159DOPC   C2919167   0.733   2.402   5.904 -0.5933 -0.0438 -0.0825
  159DOPC   H9R19168   0.648   2.409   5.835 -1.9702 -1.7842  1.3461
  159DOPC  C21019169   0.848   2.463   5.863 -0.6241  0.4060 -0.8069
  159DOPC  H10R19170   0.845   2.505   5.762 -0.4854 -0.7129 -1.2991
  159DOPC  C21119171   0.982   2.474   5.933 -0.4900  0.4750  0.4249
  159DOPC  H11R19172   1.050   2.529   5.865 -0.2330 -1.9409 -1.4163
  159DOPC  H11S19173   1.029   2.374   5.945 -0.6200  0.5425  1.6546
  159DOPC  C21219174   1.002   2.547   6.067 -0.2275  0.3446 -0.5563
  159DOPC  H12R19175   0.952   2.496   6.151  1.7928 -1.0860 -0.1649
  159DOPC  H12S19176   0.948   2.644   6.073  1.1650  1.0889  0.6609
  159DOPC  C21319177   1.155   2.557   6.104  0.2715 -0.1206 -0.1059
  159DOPC  H13R19178   1.160   2.626   6.190 -1.9850 -0.0932  0.0659
  159DOPC  H13S19179   1.218   2.595   6.020  0.3350 -0.5174 -0.2430
  159DOPC  C21419180   1.219   2.432   6.161 -0.5775 -0.8613 -1.2948
  159DOPC  H14R19181   1.259   2.360   6.087  0.5543 -0.5039 -1.0631
  159DOPC  H14S19182   1.136   2.381   6.214 -0.3933  0.1594  0.0293
  159DOPC  C21519183   1.347   2.462   6.251 -0.3633 -0.9311 -0.2985
  159DOPC  H15R19184   1.304   2.519   6.336  0.5623 -0.1616 -0.3288
  159DOPC  H15S19185   1.432   2.522   6.211 -0.3991 -1.7099 -1.6041
  159DOPC  C21619186   1.424   2.335   6.296 -0.2116 -0.2440 -0.7289
  159DOPC  H16R19187   1.443   2.272   6.206  0.8545  1.0556 -1.4540
  159DOPC  H16S19188   1.361   2.277   6.366 -3.0771  1.7073 -1.5183
  159DOPC  C21719189   1.568   2.346   6.358  0.6010 -0.2521  0.3982
  159DOPC  H17R19190   1.551   2.413   6.444  2.0091  1.4144 -0.5703
  159DOPC  H17S19191   1.635   2.398   6.286 -1.4555  1.9434 -0.0614
  159DOPC  C21819192   1.632   2.215   6.403 -0.1978 -0.4135  0.6461
  159DOPC  H18R19193   1.735   2.237   6.438 -0.4319  2.6081 -0.2825
  159DOPC  H18S19194   1.635   2.144   6.318  1.6536  0.7003 -0.3061
  159DOPC  H18T19195   1.587   2.170   6.493  1.1150  0.6169  1.8699
  159DOPC   C3319196   0.077   2.396   6.420  0.0473  0.7658 -0.3834
  159DOPC   H3X19197   0.140   2.484   6.446  0.1449  0.5047  0.2757
  159DOPC   H3Y19198  -0.024   2.408   6.466  0.4091 -1.0720  1.0064
  159DOPC   C3419199   0.064   2.398   6.272 -0.4641 -0.1433 -0.3474
  159DOPC   H4X19200   0.006   2.314   6.228 -3.4210  0.5510  1.9486
  159DOPC   H4Y19201   0.163   2.394   6.221 -0.3533  1.0734 -0.2531
  159DOPC   C3519202  -0.002   2.535   6.233 -0.0959 -0.7874 -0.3098
  159DOPC   H5X19203   0.062   2.622   6.258  2.3543 -2.5837  0.0804
  159DOPC   H5Y19204  -0.101   2.554   6.280  0.5132 -0.2432  0.7839
  159DOPC   C3619205  -0.029   2.545   6.086 -0.3275 -0.5142 -0.1152
  159DOPC   H6X19206  -0.088   2.453   6.063  0.4976 -1.5903  1.8277
  159DOPC   H6Y19207  -0.101   2.629   6.070 -1.7391 -1.7894 -0.7650
  159DOPC   C3719208   0.086   2.548   5.990 -0.2520 -0.1136 -0.6964
  159DOPC   H7X19209   0.148   2.633   6.024  0.0410 -1.1764  1.6252
  159DOPC   H7Y19210   0.156   2.463   6.008  2.0704  1.7003 -0.7026
  159DOPC   C3819211   0.057   2.559   5.836  0.4120  0.3933 -0.1172
  159DOPC   H8X19212   0.009   2.657   5.817 -0.0913  0.3435  0.8366
  159DOPC   H8Y19213  -0.013   2.477   5.810 -0.0200  1.5969 -3.1371
  159DOPC   C3919214   0.171   2.527   5.746 -0.7629  0.1973  0.2404
  159DOPC   H9X19215   0.196   2.420   5.745 -0.3491  0.2914  0.4606
  159DOPC  C31019216   0.228   2.604   5.646  0.5486  0.7667 -0.3330
  159DOPC  H10X19217   0.310   2.565   5.584 -0.1937 -0.8344 -0.3669
  159DOPC  C31119218   0.209   2.753   5.640 -0.2832  0.1023 -0.0207
  159DOPC  H11X19219   0.306   2.804   5.625  1.5592 -2.3822  2.4869
  159DOPC  H11Y19220   0.164   2.797   5.732 -0.7366 -0.4635  0.0365
  159DOPC  C31219221   0.134   2.804   5.520  0.1319 -0.3613 -0.2231
  159DOPC  H12X19222   0.117   2.910   5.547 -0.8000 -1.1238  2.5062
  159DOPC  H12Y19223   0.027   2.775   5.522 -0.3318  1.2773 -0.1963
  159DOPC  C31319224   0.190   2.777   5.378 -0.8133  0.2880  0.1193
  159DOPC  H13X19225   0.290   2.823   5.364  0.1004 -2.1937 -2.6923
  159DOPC  H13Y19226   0.198   2.666   5.374  0.0892  0.2207  2.1968
  159DOPC  C31419227   0.109   2.838   5.266  0.5029 -0.1386 -0.3539
  159DOPC  H14X19228   0.164   2.807   5.175 -1.9990  0.9238 -2.3380
  159DOPC  H14Y19229   0.005   2.798   5.257 -0.4688  1.8286  1.2388
  159DOPC  C31519230   0.111   2.994   5.250  0.0130  0.6453 -0.2071
  159DOPC  H15X19231   0.217   3.025   5.264  0.0397  1.0400 -1.2017
  159DOPC  H15Y19232   0.045   3.041   5.326 -0.1619  0.2779 -0.1279
  159DOPC  C31619233   0.052   3.043   5.115  0.8315  0.7741 -0.1777
  159DOPC  H16X19234   0.038   3.153   5.107 -0.1540  0.9143  2.5479
  159DOPC  H16Y19235   0.118   3.028   5.026  0.0259 -0.5896 -0.5848
  159DOPC  C31719236  -0.091   2.991   5.083  0.2021 -0.2279  0.1532
  159DOPC  H17X19237  -0.083   2.882   5.067  1.4469  0.1069 -1.8856
  159DOPC  H17Y19238  -0.141   3.005   5.181 -0.2135 -1.3296  0.1125
  159DOPC  C31819239  -0.178   3.059   4.982  0.1228  0.4470  0.1505
  159DOPC  H18X19240  -0.279   3.016   4.992  0.0496  1.0072  2.2840
  159DOPC  H18Y19241  -0.180   3.167   5.008  2.4827  0.3825  0.9421
  159DOPC  H18Z19242  -0.135   3.047   4.880 -1.6146  1.1366 -0.6935
  160DOPC     N19243   3.020   7.401   7.539  0.5657  0.3665 -0.4317
  160DOPC   C1219244   2.894   7.375   7.458 -0.1491 -0.3190 -0.2103
  160DOPC  H12A19245   2.929   7.355   7.358 -2.6081 -0.4084 -1.1227
  160DOPC  H12B19246   2.849   7.472   7.445 -2.5859 -1.1808  1.0844
  160DOPC   C1319247   3.126   7.472   7.464  0.1630  0.0923  0.3188
  160DOPC  H13A19248   3.214   7.465   7.527  0.3534 -1.6003 -0.1065
  160DOPC  H13B19249   3.147   7.428   7.368  2.7848 -0.0660  0.8831
  160DOPC  H13C19250   3.099   7.574   7.439  1.0180  0.1646 -0.3775
  160DOPC   C1419251   3.078   7.270   7.593 -0.2855 -0.2956  0.5030
  160DOPC  H14A19252   2.998   7.222   7.646 -0.7983  0.3938  0.3661
  160DOPC  H14B19253   3.116   7.207   7.514  0.3343 -0.5241  0.9695
  160DOPC  H14C19254   3.161   7.288   7.660  0.2906 -1.7277  0.1952
  160DOPC   C1519255   2.985   7.486   7.660  0.2493 -0.0749 -0.4498
  160DOPC  H15A19256   2.943   7.583   7.642  1.2274  0.1604 -1.5784
  160DOPC  H15B19257   3.068   7.515   7.723 -0.5245 -1.9525  1.5861
  160DOPC  H15C19258   2.908   7.440   7.721  1.4308  1.4528  2.4207
  160DOPC   C1119259   2.793   7.267   7.506 -0.5156 -0.6935  0.6785
  160DOPC  H11A19260   2.782   7.281   7.616 -0.0557  0.2508  0.6107
  160DOPC  H11B19261   2.698   7.285   7.451  1.2850  2.3324 -1.7925
  160DOPC     P19262   2.864   7.079   7.336  0.2700  0.2068  0.2836
  160DOPC   O1319263   2.755   6.981   7.320 -0.1927 -0.0816  0.7754
  160DOPC   O1419264   3.006   7.044   7.311  0.0259  0.1911 -0.1792
  160DOPC   O1219265   2.841   7.140   7.475  0.0310  0.0679 -0.1747
  160DOPC   O1119266   2.840   7.196   7.229 -0.3927  0.0396 -0.3267
  160DOPC    C119267   2.721   7.224   7.160  0.8533 -0.5347  0.6308
  160DOPC    HA19268   2.705   7.333   7.147  1.1898 -0.5113  0.3918
  160DOPC    HB19269   2.637   7.186   7.222  1.8571 -1.2781  1.5848
  160DOPC    C219270   2.720   7.149   7.024 -0.2951 -0.1718 -0.0040
  160DOPC    HS19271   2.720   7.042   7.055  1.0027 -0.2865 -0.3506
  160DOPC   O2119272   2.835   7.169   6.942 -1.0582 -0.3837  0.5639
  160DOPC   C2119273   2.888   7.066   6.876 -0.5688  0.1692  0.2605
  160DOPC   O2219274   2.840   6.956   6.873  0.0949 -0.1318 -0.2704
  160DOPC   C2219275   3.013   7.121   6.802  0.2444 -0.0556  0.4089
  160DOPC   H2R19276   3.078   7.171   6.877 -1.3860  0.1584  1.7458
  160DOPC   H2S19277   2.979   7.196   6.728  1.6842  1.5330  1.2749
  160DOPC    C319278   2.596   7.183   6.945  0.3530 -0.2880 -0.0920
  160DOPC    HX19279   2.607   7.289   6.913  1.4258 -0.4428 -0.2747
  160DOPC    HY19280   2.503   7.174   7.005  0.3288 -0.7770 -0.1998
  160DOPC   O3119281   2.583   7.098   6.824 -0.3537  0.3812  0.4714
  160DOPC   C3119282   2.535   6.976   6.850  0.0891  0.1463 -0.6434
  160DOPC   O3219283   2.488   6.947   6.960  0.3599 -0.2146 -0.2804
  160DOPC   C3219284   2.532   6.897   6.723 -0.3424 -1.1837  0.2229
  160DOPC   H2X19285   2.563   6.966   6.641 -0.2475 -0.8622  0.5219
  160DOPC   H2Y19286   2.604   6.812   6.726  0.7491 -0.3270 -0.6400
  160DOPC   C2319287   3.096   7.010   6.729 -0.0176  0.4282 -0.1831
  160DOPC   H3R19288   3.029   6.956   6.659 -0.2179  2.4215 -1.6079
  160DOPC   H3S19289   3.122   6.939   6.811 -1.2525  0.1446 -0.0271
  160DOPC   C2419290   3.216   7.071   6.647  0.1536  0.2843  0.4977
  160DOPC   H4R19291   3.259   7.162   6.695  2.6788 -1.1730  1.1966
  160DOPC   H4S19292   3.173   7.109   6.552 -1.1150 -0.6501  0.6819
  160DOPC   C2519293   3.321   6.968   6.609 -1.5389  0.0747  0.4633
  160DOPC   H5R19294   3.368   6.924   6.700 -0.4421  0.7282  0.2320
  160DOPC   H5S19295   3.399   7.010   6.542 -1.4006 -0.3326  0.3620
  160DOPC   C2619296   3.270   6.855   6.512 -0.0940  0.4849 -0.0945
  160DOPC   H6R19297   3.222   6.906   6.426  0.4796  1.2218  0.0092
  160DOPC   H6S19298   3.194   6.799   6.571  0.3873  1.2221  1.2659
  160DOPC   C2719299   3.372   6.754   6.467 -0.2021  0.1480 -0.3497
  160DOPC   H7R19300   3.419   6.700   6.552 -3.8793  1.0978  2.5532
  160DOPC   H7S19301   3.449   6.810   6.410 -0.4454  0.3748 -0.4576
  160DOPC   C2819302   3.320   6.650   6.359 -0.2470 -0.3299 -0.3182
  160DOPC   H8R19303   3.288   6.701   6.265  1.1490  1.0810 -0.0860
  160DOPC   H8S19304   3.230   6.599   6.399  0.3804  0.0858  1.7233
  160DOPC   C2919305   3.424   6.545   6.320  0.1507 -0.7137 -0.0780
  160DOPC   H9R19306   3.483   6.498   6.400  1.5114 -1.0179 -1.2156
  160DOPC  C21019307   3.434   6.500   6.195  0.4873 -0.4585  0.1802
  160DOPC  H10R19308   3.501   6.415   6.180  0.2200 -0.3306 -2.1622
  160DOPC  C21119309   3.357   6.546   6.074 -0.2376  0.2169 -0.3393
  160DOPC  H11R19310   3.365   6.656   6.064 -0.0500  0.3624  1.1631
  160DOPC  H11S19311   3.251   6.513   6.078 -1.5882  4.1267 -0.0548
  160DOPC  C21219312   3.395   6.468   5.944 -0.3019 -0.2883  0.3081
  160DOPC  H12R19313   3.390   6.358   5.961 -1.7502 -0.6395 -1.8707
  160DOPC  H12S19314   3.495   6.508   5.919 -0.4554 -0.0632  0.0396
  160DOPC  C21319315   3.309   6.503   5.821 -0.1683  0.5584 -0.4943
  160DOPC  H13R19316   3.316   6.609   5.790 -0.5248  0.3429 -1.3428
  160DOPC  H13S19317   3.201   6.477   5.832  0.7036 -2.9091  1.4441
  160DOPC  C21419318   3.353   6.416   5.700 -0.2498 -1.2240  0.1718
  160DOPC  H14R19319   3.278   6.427   5.619 -1.5937 -2.4484  1.2235
  160DOPC  H14S19320   3.339   6.313   5.737 -1.4242 -0.5661  1.6767
  160DOPC  C21519321   3.500   6.438   5.646 -0.0860 -1.1607 -0.5905
  160DOPC  H15R19322   3.532   6.354   5.581  0.7865 -1.2063 -0.1222
  160DOPC  H15S19323   3.575   6.434   5.728 -0.3705  3.0242  0.1103
  160DOPC  C21619324   3.508   6.579   5.583  0.4046 -0.2086 -0.5958
  160DOPC  H16R19325   3.527   6.659   5.659 -1.1943  0.8940 -1.3161
  160DOPC  H16S19326   3.411   6.598   5.533  0.1171 -1.6490 -0.6102
  160DOPC  C21719327   3.613   6.595   5.478  0.5268 -0.4712 -0.1860
  160DOPC  H17R19328   3.584   6.524   5.398 -1.5620 -0.5781  0.5858
  160DOPC  H17S19329   3.714   6.566   5.513  0.6861 -0.6685 -0.8012
  160DOPC  C21819330   3.613   6.734   5.415 -0.4913  0.1507 -0.3218
  160DOPC  H18R19331   3.694   6.736   5.339  2.2294  2.5002  2.4155
  160DOPC  H18S19332   3.636   6.808   5.495 -1.3740  0.1959 -0.0956
  160DOPC  H18T19333   3.521   6.752   5.355 -0.8867 -1.8360 -0.3715
  160DOPC   C3319334   2.385   6.859   6.693  0.1836  0.2987  0.0439
  160DOPC   H3X19335   2.313   6.943   6.690 -0.5992 -0.3795 -1.6771
  160DOPC   H3Y19336   2.350   6.798   6.779 -2.3540  1.0048 -0.4124
  160DOPC   C3419337   2.346   6.769   6.571 -0.4452  0.1192  0.7497
  160DOPC   H4X19338   2.235   6.755   6.571 -0.6794  1.6813 -1.3549
  160DOPC   H4Y19339   2.393   6.669   6.582 -3.1370 -1.2216  0.8903
  160DOPC   C3519340   2.379   6.849   6.445 -0.2624 -0.2074 -0.6611
  160DOPC   H5X19341   2.486   6.876   6.432 -1.0506  2.8642 -1.5593
  160DOPC   H5Y19342   2.311   6.937   6.455 -0.8261 -0.7376  0.3319
  160DOPC   C3619343   2.340   6.775   6.318 -0.6546  0.1231 -0.8914
  160DOPC   H6X19344   2.417   6.696   6.300  0.0041  0.6205 -0.3103
  160DOPC   H6Y19345   2.240   6.727   6.320 -0.7162  0.2466 -0.9610
  160DOPC   C3719346   2.345   6.870   6.197 -0.7191  0.3709  0.5136
  160DOPC   H7X19347   2.439   6.928   6.192  0.0012 -0.7552  0.7565
  160DOPC   H7Y19348   2.338   6.818   6.099  2.3924  0.4246  0.1749
  160DOPC   C3819349   2.235   6.980   6.180 -0.2006 -0.0776  0.0856
  160DOPC   H8X19350   2.268   7.031   6.087  2.2625 -2.1104 -0.2742
  160DOPC   H8Y19351   2.252   7.053   6.261  1.0081  0.0854 -0.2954
  160DOPC   C3919352   2.092   6.922   6.187  0.3011 -0.4236 -0.3913
  160DOPC   H9X19353   2.079   6.861   6.277  2.4706 -0.3194  0.0515
  160DOPC  C31019354   1.995   6.939   6.092  0.6945  0.1490 -0.1390
  160DOPC  H10X19355   1.900   6.883   6.102  1.5650 -1.5742 -0.9808
  160DOPC  C31119356   2.024   7.005   5.956  0.1545 -0.5753 -0.4055
  160DOPC  H11X19357   2.098   7.088   5.948 -0.0115 -0.5976 -3.3803
  160DOPC  H11Y19358   1.932   7.050   5.912 -0.5696 -0.0307  1.5543
  160DOPC  C31219359   2.078   6.899   5.858  0.4094  0.0694  0.4519
  160DOPC  H12X19360   2.007   6.816   5.872  0.2481  0.3116  1.1027
  160DOPC  H12Y19361   2.173   6.857   5.897 -1.1777 -1.6811  2.6885
  160DOPC  C31319362   2.093   6.944   5.709  0.5955  0.1279  0.0271
  160DOPC  H13X19363   2.009   7.007   5.672  0.3016 -0.7785 -0.8887
  160DOPC  H13Y19364   2.187   7.003   5.704  0.8272 -0.0813  1.5489
  160DOPC  C31419365   2.101   6.820   5.607 -0.2413  0.5336 -0.1371
  160DOPC  H14X19366   2.199   6.778   5.636  0.2007  0.8462 -1.1342
  160DOPC  H14Y19367   2.015   6.752   5.623 -1.5480  1.1228 -3.7689
  160DOPC  C31519368   2.115   6.859   5.461 -0.8637 -0.9687 -0.5118
  160DOPC  H15X19369   2.194   6.790   5.423 -2.4003 -2.3173 -1.3607
  160DOPC  H15Y19370   2.160   6.960   5.458 -1.7919 -0.5597 -0.6721
  160DOPC  C31619371   1.998   6.862   5.369  0.1464  0.2322  0.7775
  160DOPC  H16X19372   1.972   6.758   5.337  1.8361 -0.7920  2.5325
  160DOPC  H16Y19373   1.914   6.906   5.428 -0.9336 -2.0018  1.0184
  160DOPC  C31719374   2.013   6.939   5.238  0.6258 -0.6623 -0.1091
  160DOPC  H17X19375   1.909   6.959   5.203  1.6018  1.7913 -1.9124
  160DOPC  H17Y19376   2.064   7.032   5.272  0.3090 -1.0036  1.3729
  160DOPC  C31819377   2.088   6.857   5.139  0.6844  0.5709 -0.8732
  160DOPC  H18X19378   2.047   6.756   5.116  1.7027  0.2726 -1.4402
  160DOPC  H18Y19379   2.114   6.908   5.044 -0.1648  0.9854 -0.8903
  160DOPC  H18Z19380   2.192   6.847   5.178  1.1416  4.6102 -0.5915
  161DOPC     N19381   4.493   0.030   7.070  0.1378  0.1355  0.6471
  161DOPC   C1219382   4.637   0.035   7.024 -0.1847  0.1222  0.5630
  161DOPC  H12A19383   4.669  -0.060   6.984  1.5388  1.3991 -1.2948
  161DOPC  H12B19384   4.694   0.036   7.116  0.4401 -2.2771  0.2657
  161DOPC   C1319385   4.407   0.019   6.947 -0.4875 -0.1962 -0.4229
  161DOPC  H13A19386   4.301   0.029   6.964 -0.3379  0.9763 -0.1118
  161DOPC  H13B19387   4.434   0.092   6.872 -1.4876 -0.3093 -0.9079
  161DOPC  H13C19388   4.419  -0.080   6.906 -0.7691 -0.9335  1.1978
  161DOPC   C1419389   4.449   0.149   7.148 -0.3091 -1.0482  0.2020
  161DOPC  H14A19390   4.342   0.148   7.164 -0.0903 -0.1468  2.1273
  161DOPC  H14B19391   4.485   0.162   7.249 -1.5145 -0.0875  0.5389
  161DOPC  H14C19392   4.479   0.238   7.096 -1.4035 -1.3796 -1.0365
  161DOPC   C1519393   4.467  -0.096   7.147  0.4462  0.2768 -0.0106
  161DOPC  H15A19394   4.494  -0.179   7.083 -2.6697 -1.0105  0.1701
  161DOPC  H15B19395   4.362  -0.100   7.171  0.1135  2.1239 -0.9953
  161DOPC  H15C19396   4.533  -0.103   7.232  1.0688  2.1020 -0.2892
  161DOPC   C1119397   4.682   0.140   6.927 -0.0159 -0.0597  0.1535
  161DOPC  H11A19398   4.787   0.123   6.895 -0.0391 -0.0725  0.0845
  161DOPC  H11B19399   4.618   0.125   6.838 -0.6714  1.1901  0.3846
  161DOPC     P19400   4.779   0.350   7.052  0.3708  0.0278 -0.0202
  161DOPC   O1319401   4.839   0.263   7.153  0.3069  0.2791  0.8568
  161DOPC   O1419402   4.717   0.474   7.094  0.3028  0.0182 -0.0528
  161DOPC   O1219403   4.664   0.275   6.973  0.4814 -0.3981 -0.2399
  161DOPC   O1119404   4.888   0.378   6.942 -0.0192  0.2267  0.9994
  161DOPC    C119405   4.859   0.382   6.799  0.1855  0.0687  0.9820
  161DOPC    HA19406   4.761   0.333   6.779  0.7851 -0.9904  0.5603
  161DOPC    HB19407   4.939   0.330   6.742 -0.9563 -0.2392 -0.4117
  161DOPC    C219408   4.854   0.527   6.756  0.3521  0.0995 -0.2720
  161DOPC    HS19409   4.758   0.570   6.791  0.4265  0.6240 -0.7033
  161DOPC   O2119410   4.852   0.541   6.612 -0.1584  0.0114  0.0672
  161DOPC   C2119411   4.746   0.498   6.552  0.7069  0.1516 -0.4384
  161DOPC   O2219412   4.653   0.439   6.607 -0.1278  0.6700 -0.4274
  161DOPC   C2219413   4.748   0.510   6.405 -0.7644  0.8331  0.4638
  161DOPC   H2R19414   4.694   0.426   6.358  2.9656 -1.3830 -0.3126
  161DOPC   H2S19415   4.855   0.494   6.378 -0.6746 -0.3651  1.4918
  161DOPC    C319416   4.971   0.619   6.815  0.7777 -0.5574 -0.3716
  161DOPC    HX19417   5.065   0.559   6.808  0.7568 -0.5688 -0.5540
  161DOPC    HY19418   4.954   0.633   6.924 -1.0774 -1.0553 -0.5769
  161DOPC   O3119419   4.975   0.755   6.761  0.8517 -0.1849 -0.1946
  161DOPC   C3119420   4.885   0.846   6.799 -0.2349 -0.1684  0.4916
  161DOPC   O3219421   4.782   0.818   6.860 -0.5413  0.2296  0.1311
  161DOPC   C3219422   4.927   0.987   6.747  0.3334  0.6469  0.7991
  161DOPC   H2X19423   4.934   1.063   6.828  0.8669 -0.2163  1.6021
  161DOPC   H2Y19424   5.030   0.984   6.704  0.7517  0.0375  1.7940
  161DOPC   C2319425   4.695   0.646   6.370  0.1576 -0.1223  0.2455
  161DOPC   H3R19426   4.721   0.660   6.263  0.4833 -0.8958  0.2171
  161DOPC   H3S19427   4.748   0.721   6.432 -0.8360  0.5772  0.2754
  161DOPC   C2419428   4.541   0.653   6.391  0.1655 -0.2116  0.0528
  161DOPC   H4R19429   4.524   0.641   6.500  2.1711 -0.4428  0.3799
  161DOPC   H4S19430   4.479   0.570   6.350 -0.2049 -0.4013  0.9714
  161DOPC   C2519431   4.474   0.778   6.341  0.4006  0.4715 -0.2583
  161DOPC   H5R19432   4.519   0.870   6.385 -1.5536  1.0553  0.6342
  161DOPC   H5S19433   4.370   0.782   6.381 -0.0010 -0.5965 -1.1371
  161DOPC   C2619434   4.479   0.809   6.196  0.2321  0.6257  0.4835
  161DOPC   H6R19435   4.589   0.808   6.175  0.2152  0.2414  0.4056
  161DOPC   H6S19436   4.439   0.911   6.176  0.2230  0.4736 -0.2999
  161DOPC   C2719437   4.394   0.715   6.104 -0.6338  0.0295 -0.7281
  161DOPC   H7R19438   4.285   0.706   6.118 -0.2460 -2.0579  1.6501
  161DOPC   H7S19439   4.442   0.615   6.115 -0.0751  0.4299  0.6483
  161DOPC   C2819440   4.414   0.758   5.956 -0.9417  0.0543 -0.2156
  161DOPC   H8R19441   4.521   0.744   5.928 -0.5888  2.4490 -0.2410
  161DOPC   H8S19442   4.389   0.865   5.940 -2.7733 -0.3369 -0.1821
  161DOPC   C2919443   4.331   0.677   5.866  0.3503 -0.2530 -0.0927
  161DOPC   H9R19444   4.334   0.568   5.883 -1.1424 -0.1822  0.8142
  161DOPC  C21019445   4.228   0.713   5.786 -0.0483  0.0452  0.1050
  161DOPC  H10R19446   4.174   0.642   5.722 -0.1142  1.4739 -1.5103
  161DOPC  C21119447   4.173   0.850   5.762  0.1927 -0.1659 -0.4379
  161DOPC  H11R19448   4.219   0.927   5.827 -1.5294  0.0595  0.5740
  161DOPC  H11S19449   4.064   0.858   5.785  0.0286  3.2633 -1.8980
  161DOPC  C21219450   4.186   0.905   5.620  0.9720 -0.6007  0.0742
  161DOPC  H12R19451   4.295   0.897   5.597  0.4444 -2.1072 -2.3322
  161DOPC  H12S19452   4.155   1.011   5.608  0.5062 -0.7945 -0.4566
  161DOPC  C21319453   4.112   0.818   5.513 -0.0564 -0.1071  1.1484
  161DOPC  H13R19454   4.006   0.849   5.524 -0.5015 -0.2602 -1.9149
  161DOPC  H13S19455   4.127   0.710   5.532 -0.0849 -0.1587  0.8831
  161DOPC  C21419456   4.167   0.835   5.373  0.1302  0.8584 -0.0624
  161DOPC  H14R19457   4.270   0.796   5.388 -1.1670 -1.9246  2.9400
  161DOPC  H14S19458   4.165   0.942   5.342 -1.8966  1.3090  1.4154
  161DOPC  C21519459   4.099   0.750   5.263  0.6108 -0.1080 -0.4316
  161DOPC  H15R19460   3.994   0.784   5.253  0.4547 -0.4065  0.1675
  161DOPC  H15S19461   4.086   0.642   5.285 -3.7880  0.3490 -0.0628
  161DOPC  C21619462   4.153   0.755   5.122  1.0285 -0.1075 -0.1693
  161DOPC  H16R19463   4.245   0.693   5.121  0.4244 -1.2357  2.9024
  161DOPC  H16S19464   4.180   0.860   5.101  0.4443  0.0206 -0.3108
  161DOPC  C21719465   4.036   0.718   5.030  0.0780 -0.4434 -0.1592
  161DOPC  H17R19466   3.945   0.775   5.061  1.0030  1.7596 -1.3067
  161DOPC  H17S19467   4.019   0.609   5.045  1.2910 -0.6084  0.0950
  161DOPC  C21819468   4.054   0.741   4.880 -0.1167  0.0318  0.3997
  161DOPC  H18R19469   3.966   0.722   4.814  1.3218 -1.5714 -1.1772
  161DOPC  H18S19470   4.126   0.665   4.842 -1.1897 -0.2327 -1.2203
  161DOPC  H18T19471   4.084   0.847   4.868 -0.3395 -0.0173 -0.7285
  161DOPC   C3319472   4.822   1.042   6.637 -0.6033 -0.1921  0.1942
  161DOPC   H3X19473   4.850   1.149   6.625  0.5867 -0.2075  2.2928
  161DOPC   H3Y19474   4.721   1.054   6.680 -0.0660  0.3086  1.3827
  161DOPC   C3419475   4.825   0.968   6.503  0.3363 -0.0008 -0.3954
  161DOPC   H4X19476   4.748   0.888   6.491  3.7567 -3.7680  0.4958
  161DOPC   H4Y19477   4.927   0.927   6.489 -0.0667 -2.1189  2.0418
  161DOPC   C3519478   4.797   1.065   6.381 -0.1931 -0.2810 -0.2225
  161DOPC   H5X19479   4.852   1.162   6.384 -1.0251  0.1903  0.0030
  161DOPC   H5Y19480   4.689   1.092   6.382  0.3395  2.1761 -0.5028
  161DOPC   C3619481   4.838   1.008   6.243  0.0443 -0.4076 -0.2034
  161DOPC   H6X19482   4.945   1.035   6.234 -0.1463  1.1537  1.6791
  161DOPC   H6Y19483   4.817   0.899   6.246  0.2159 -0.4417 -0.2194
  161DOPC   C3719484   4.778   1.078   6.122 -0.2736  0.1252 -0.4771
  161DOPC   H7X19485   4.671   1.049   6.123 -0.4649  0.6607  2.3914
  161DOPC   H7Y19486   4.789   1.188   6.134  4.6614 -0.1372 -0.6677
  161DOPC   C3819487   4.853   1.040   5.995  0.3503  0.1057  0.1949
  161DOPC   H8X19488   4.957   1.079   6.008  0.9458 -1.5498  0.6714
  161DOPC   H8Y19489   4.797   1.102   5.922 -0.1421 -0.6191 -0.0446
  161DOPC   C3919490   4.850   0.900   5.943  0.1006  0.4458  0.1317
  161DOPC   H9X19491   4.757   0.841   5.955  0.4803 -0.4237 -1.0229
  161DOPC  C31019492   4.957   0.845   5.884 -0.0366 -0.2864 -0.2273
  161DOPC  H10X19493   4.943   0.748   5.834  1.7147 -0.3968 -0.5729
  161DOPC  C31119494   5.094   0.898   5.851 -0.1210  0.5811 -0.2327
  161DOPC  H11X19495   5.116   0.995   5.902 -1.1176  0.1007  1.1552
  161DOPC  H11Y19496   5.107   0.905   5.741  0.9940 -1.9255 -0.3157
  161DOPC  C31219497   5.203   0.802   5.915 -0.2404 -0.2615  0.3946
  161DOPC  H12X19498   5.162   0.800   6.019 -1.5022 -0.0562 -0.0819
  161DOPC  H12Y19499   5.288   0.873   5.916 -0.6554  0.2341  0.8560
  161DOPC  C31319500   5.217   0.673   5.847 -0.6002 -0.2622  0.5914
  161DOPC  H13X19501   5.126   0.626   5.803 -0.6537 -0.4080  0.8546
  161DOPC  H13Y19502   5.279   0.688   5.756 -1.0750 -3.0706 -0.3113
  161DOPC  C31419503   5.298   0.569   5.929  0.0202  0.1837 -0.8135
  161DOPC  H14X19504   5.263   0.565   6.034  1.7778  0.8287 -0.1734
  161DOPC  H14Y19505   5.285   0.470   5.880 -0.0530  2.2403 -5.4987
  161DOPC  C31519506   5.452   0.599   5.932  0.3216 -0.2358  0.5911
  161DOPC  H15X19507   5.496   0.528   6.005  1.6572  0.1800  0.2192
  161DOPC  H15Y19508   5.471   0.702   5.970 -1.0791  0.7250 -1.1566
  161DOPC  C31619509   5.528   0.588   5.799 -0.0723 -0.5727 -0.4573
  161DOPC  H16X19510   5.492   0.670   5.733 -0.4168  1.5145  2.1403
  161DOPC  H16Y19511   5.636   0.604   5.816 -0.2213  1.8104 -1.3053
  161DOPC  C31719512   5.505   0.452   5.733 -0.4215  0.1760  0.4136
  161DOPC  H17X19513   5.399   0.435   5.708  0.1702 -2.7421 -0.4998
  161DOPC  H17Y19514   5.566   0.458   5.640  1.4894  2.3322  1.7024
  161DOPC  C31819515   5.549   0.333   5.821 -0.1643 -0.3169  0.1551
  161DOPC  H18X19516   5.471   0.318   5.899  0.1160  3.2400  1.2798
  161DOPC  H18Y19517   5.534   0.247   5.752  1.1466  0.6959 -1.4834
  161DOPC  H18Z19518   5.653   0.353   5.854  0.0745 -0.9182 -0.2278
  162DOPC     N19519   1.618   6.286   7.012  0.6900  0.3635 -0.5703
  162DOPC   C1219520   1.692   6.353   6.894 -0.4446  0.1735 -0.3905
  162DOPC  H12A19521   1.794   6.366   6.928 -0.0932 -0.7844 -1.0638
  162DOPC  H12B19522   1.647   6.451   6.884 -0.4914  0.0575 -1.3832
  162DOPC   C1319523   1.644   6.365   7.133 -0.1616 -0.6615  0.3419
  162DOPC  H13A19524   1.628   6.469   7.110 -2.5897 -0.8186  1.0859
  162DOPC  H13B19525   1.592   6.339   7.224  2.6462 -0.0896  2.2322
  162DOPC  H13C19526   1.748   6.355   7.162  0.2729 -0.1887 -0.9904
  162DOPC   C1419527   1.652   6.143   7.030  0.1400 -0.1958  0.3427
  162DOPC  H14A19528   1.602   6.115   7.121  0.3127 -1.5294  0.0613
  162DOPC  H14B19529   1.616   6.082   6.948 -2.0605  0.9290  0.4200
  162DOPC  H14C19530   1.760   6.134   7.030  0.2442  0.6432 -1.5003
  162DOPC   C1519531   1.471   6.288   6.976 -0.0486  0.0728  0.0616
  162DOPC  H15A19532   1.455   6.243   6.879  1.9078  0.1981 -0.3515
  162DOPC  H15B19533   1.432   6.388   6.964 -0.1160  0.5587  3.4404
  162DOPC  H15C19534   1.410   6.233   7.047  1.8775 -0.2388  1.5418
  162DOPC   C1119535   1.691   6.291   6.754 -0.0176  0.3734  0.2169
  162DOPC  H11A19536   1.584   6.270   6.735 -0.2682 -0.0800  1.9435
  162DOPC  H11B19537   1.735   6.359   6.678  2.3166 -1.6829 -0.4218
  162DOPC     P19538   1.924   6.153   6.760  0.2499 -0.1171 -0.0006
  162DOPC   O1319539   1.962   6.050   6.665 -0.2638 -0.1227 -0.2275
  162DOPC   O1419540   1.956   6.127   6.900 -0.5676  0.0482  0.3150
  162DOPC   O1219541   1.762   6.165   6.753  0.0995 -0.3328  0.2768
  162DOPC   O1119542   1.973   6.300   6.719  0.5386  0.5283  0.3905
  162DOPC    C119543   2.047   6.327   6.596 -0.8171 -0.3582  0.1349
  162DOPC    HA19544   2.112   6.240   6.575  0.4209  0.1928  1.5190
  162DOPC    HB19545   2.124   6.407   6.601  1.4673 -2.3318 -1.3647
  162DOPC    C219546   1.961   6.344   6.463 -0.5803 -0.5154 -0.2544
  162DOPC    HS19547   1.891   6.423   6.498 -0.0155 -0.0104 -0.2419
  162DOPC   O2119548   1.900   6.219   6.445 -0.6737 -0.2744  0.3782
  162DOPC   C2119549   1.778   6.230   6.397 -0.5297  0.5432  0.4174
  162DOPC   O2219550   1.707   6.329   6.401  0.5142  0.0277 -0.0721
  162DOPC   C2219551   1.747   6.110   6.313 -0.2754  0.1583 -0.3269
  162DOPC   H2R19552   1.648   6.076   6.349  0.3274 -0.7876  0.5046
  162DOPC   H2S19553   1.818   6.026   6.332  0.4592  0.2692 -2.3123
  162DOPC    C319554   2.051   6.383   6.348 -0.2531  0.2138  0.0191
  162DOPC    HX19555   2.093   6.288   6.309 -0.1410 -0.4091  1.6146
  162DOPC    HY19556   2.135   6.447   6.382 -1.7951  1.6818  1.3296
  162DOPC   O3119557   1.966   6.441   6.244 -0.1888  0.3770 -0.0408
  162DOPC   C3119558   1.908   6.558   6.276  0.4253 -0.4948  0.6284
  162DOPC   O3219559   1.929   6.622   6.375 -0.0021  0.1285 -0.6473
  162DOPC   C3219560   1.816   6.605   6.161 -0.0751  0.3304 -0.8769
  162DOPC   H2X19561   1.721   6.553   6.183 -0.1546  0.9282  0.2258
  162DOPC   H2Y19562   1.803   6.713   6.184 -1.8933 -0.1933  0.7968
  162DOPC   C2319563   1.716   6.141   6.163  1.0353 -0.6876  0.4189
  162DOPC   H3R19564   1.649   6.228   6.156  1.9501  0.0430  0.5447
  162DOPC   H3S19565   1.665   6.049   6.127 -1.3208  0.1821  1.3471
  162DOPC   C2419566   1.836   6.168   6.068 -0.0632 -0.3703 -0.3468
  162DOPC   H4R19567   1.897   6.075   6.069  0.4349 -0.0405 -0.1077
  162DOPC   H4S19568   1.905   6.249   6.098 -1.7600  1.0492 -0.1086
  162DOPC   C2519569   1.797   6.196   5.920  0.1994 -0.0407  0.6006
  162DOPC   H5R19570   1.733   6.285   5.910 -2.7185 -2.1225 -0.7974
  162DOPC   H5S19571   1.729   6.119   5.877 -0.3467  0.0698  1.2503
  162DOPC   C2619572   1.916   6.193   5.820  0.5447  0.0508 -0.4124
  162DOPC   H6R19573   1.981   6.105   5.837  0.7358 -0.0222 -1.4362
  162DOPC   H6S19574   1.970   6.287   5.842 -0.7441  1.2492 -1.9946
  162DOPC   C2719575   1.862   6.188   5.673 -0.8477 -0.5860 -0.6382
  162DOPC   H7R19576   1.811   6.285   5.654  1.5933  0.9144 -0.0213
  162DOPC   H7S19577   1.795   6.100   5.661 -1.2198  0.0535 -4.3256
  162DOPC   C2819578   1.976   6.187   5.569  0.3138 -0.2685 -0.1295
  162DOPC   H8R19579   1.922   6.156   5.477 -1.2897  0.3122  0.5647
  162DOPC   H8S19580   2.031   6.096   5.601  0.0462 -1.1480 -2.0504
  162DOPC   C2919581   2.073   6.302   5.554  0.1610  0.2911 -0.0859
  162DOPC   H9R19582   2.127   6.328   5.646 -1.4246  0.2296  0.9083
  162DOPC  C21019583   2.088   6.371   5.438 -0.1883 -0.9632  0.6670
  162DOPC  H10R19584   2.163   6.451   5.433 -0.4765 -0.7376 -0.0560
  162DOPC  C21119585   2.023   6.332   5.310 -0.7398 -0.3581  0.0984
  162DOPC  H11R19586   1.998   6.224   5.306 -3.5377  0.2177 -4.1362
  162DOPC  H11S19587   2.097   6.350   5.229 -0.3162  0.4910  0.6594
  162DOPC  C21219588   1.886   6.398   5.281  0.2826  0.3954 -0.5143
  162DOPC  H12R19589   1.905   6.506   5.302 -1.3113  0.4178  1.0557
  162DOPC  H12S19590   1.813   6.367   5.358 -0.1374  1.7047 -0.3632
  162DOPC  C21319591   1.826   6.365   5.138  0.2847 -0.0918  0.1007
  162DOPC  H13R19592   1.738   6.429   5.113  1.5891  1.0228 -1.9085
  162DOPC  H13S19593   1.792   6.259   5.130  1.8630 -0.7563  1.6595
  162DOPC  C21419594   1.915   6.401   5.021 -0.4166  0.1677 -0.3620
  162DOPC  H14R19595   1.995   6.325   5.008 -2.0061 -1.6729  0.0998
  162DOPC  H14S19596   1.958   6.500   5.049  2.7914 -1.1991 -0.0230
  162DOPC  C21519597   1.852   6.421   4.879 -0.4292 -0.0669 -0.2941
  162DOPC  H15R19598   1.938   6.417   4.808 -0.2771 -1.3246 -0.0664
  162DOPC  H15S19599   1.793   6.514   4.866  0.3268  0.2690 -1.4274
  162DOPC  C21619600   1.763   6.304   4.834 -0.1761 -0.2014 -0.0685
  162DOPC  H16R19601   1.720   6.311   4.732 -0.5093  1.3615  0.1601
  162DOPC  H16S19602   1.679   6.301   4.907  0.8906  0.7325  1.2343
  162DOPC  C21719603   1.824   6.166   4.847  0.5661  0.2022  1.3772
  162DOPC  H17R19604   1.746   6.096   4.811  1.8327 -1.7915  2.3001
  162DOPC  H17S19605   1.855   6.145   4.952 -0.3080 -1.4196  1.3435
  162DOPC  C21819606   1.938   6.143   4.747  0.3374  0.0458 -0.1407
  162DOPC  H18R19607   2.033   6.190   4.781  0.4506  0.5919 -1.2036
  162DOPC  H18S19608   1.903   6.191   4.654  0.8309  0.3934 -0.1518
  162DOPC  H18T19609   1.940   6.034   4.726  0.3151  0.0787 -0.3070
  162DOPC   C3319610   1.870   6.574   6.018  0.0527  0.1216 -0.0482
  162DOPC   H3X19611   1.869   6.469   5.981 -0.2043  0.5064 -1.1770
  162DOPC   H3Y19612   1.974   6.611   6.006  0.0692 -0.2784 -1.2737
  162DOPC   C3419613   1.778   6.640   5.909 -0.2393 -0.0700  0.0089
  162DOPC   H4X19614   1.790   6.750   5.914 -0.7825 -0.0127  0.0635
  162DOPC   H4Y19615   1.677   6.602   5.934 -0.7665 -0.5278 -2.5259
  162DOPC   C3519616   1.799   6.576   5.770  0.6106 -0.5918 -0.2021
  162DOPC   H5X19617   1.760   6.473   5.773 -1.6215  0.1244 -2.1167
  162DOPC   H5Y19618   1.906   6.582   5.741  0.6048 -0.4580 -0.1959
  162DOPC   C3619619   1.719   6.656   5.665 -0.2892  0.2281  0.0148
  162DOPC   H6X19620   1.613   6.652   5.695 -0.1533 -1.0339  0.3670
  162DOPC   H6Y19621   1.745   6.764   5.670 -1.6125  0.5091  3.7766
  162DOPC   C3719622   1.739   6.608   5.523 -0.1181  0.8871  0.5853
  162DOPC   H7X19623   1.835   6.641   5.478  1.2557 -3.4083 -0.0934
  162DOPC   H7Y19624   1.750   6.498   5.532  0.6729  0.9230  0.0881
  162DOPC   C3819625   1.631   6.658   5.430 -0.4650  0.2147  0.2330
  162DOPC   H8X19626   1.659   6.647   5.323  0.0806  0.9894  0.2885
  162DOPC   H8Y19627   1.619   6.765   5.457 -2.2533  0.0084  0.3620
  162DOPC   C3919628   1.505   6.572   5.445 -0.0586 -0.4494  0.6257
  162DOPC   H9X19629   1.511   6.462   5.439 -2.2447 -0.5767  0.2103
  162DOPC  C31019630   1.396   6.616   5.512 -0.1038  0.7562 -0.1815
  162DOPC  H10X19631   1.315   6.542   5.523 -0.2193  0.7544 -0.9811
  162DOPC  C31119632   1.373   6.751   5.571 -0.4482  0.1797 -0.5045
  162DOPC  H11X19633   1.351   6.826   5.493 -1.1881 -0.5546 -1.0214
  162DOPC  H11Y19634   1.464   6.792   5.619  2.2327 -2.3638 -2.9949
  162DOPC  C31219635   1.245   6.747   5.661  0.0689  0.0873 -0.2141
  162DOPC  H12X19636   1.266   6.663   5.730  0.7237 -1.6436 -2.3900
  162DOPC  H12Y19637   1.153   6.723   5.603  0.7124  0.2723 -1.3586
  162DOPC  C31319638   1.226   6.872   5.748 -0.1758 -0.2446  0.2631
  162DOPC  H13X19639   1.317   6.901   5.805 -0.1757  0.1083  0.0816
  162DOPC  H13Y19640   1.212   6.957   5.678  1.3762 -1.8310 -2.1301
  162DOPC  C31419641   1.117   6.853   5.842  0.7331 -0.2911 -0.0822
  162DOPC  H14X19642   1.028   6.811   5.791  0.3146  0.4819 -0.0139
  162DOPC  H14Y19643   1.150   6.781   5.920  0.9628 -2.5884 -2.1762
  162DOPC  C31519644   1.062   6.985   5.908  0.8191 -0.2350 -0.0848
  162DOPC  H15X19645   1.022   7.046   5.825 -0.8212  1.2097  1.6791
  162DOPC  H15Y19646   1.144   7.029   5.968  0.0677 -1.5585  2.0612
  162DOPC  C31619647   0.935   6.968   5.996 -0.6340  0.4935 -0.3860
  162DOPC  H16X19648   0.858   7.041   5.965 -0.9133  0.5142  0.3373
  162DOPC  H16Y19649   0.892   6.866   5.980 -0.1730  0.2847 -0.3323
  162DOPC  C31719650   0.969   6.979   6.153 -0.5708  0.0737  0.2622
  162DOPC  H17X19651   1.009   7.081   6.165 -0.4599  0.2106 -1.0504
  162DOPC  H17Y19652   0.868   6.977   6.199 -0.1373 -0.0028  1.2243
  162DOPC  C31819653   1.063   6.878   6.207 -0.3183 -0.3482  0.6668
  162DOPC  H18X19654   1.157   6.884   6.148 -0.9488  0.1237 -0.3246
  162DOPC  H18Y19655   1.083   6.890   6.315 -1.2130  2.7154  0.5889
  162DOPC  H18Z19656   1.012   6.779   6.194 -0.3181 -0.3159  0.4124
  163DOPC     N19657   1.656   3.846   7.030  0.5701 -0.1320 -0.0846
  163DOPC   C1219658   1.733   3.738   7.105  0.1535  0.2915  0.0497
  163DOPC  H12A19659   1.750   3.770   7.207 -0.0449 -1.4775  0.6830
  163DOPC  H12B19660   1.837   3.737   7.076  0.5271  0.0267  1.3170
  163DOPC   C1319661   1.724   3.984   7.029  0.0988  0.1433 -0.5988
  163DOPC  H13A19662   1.665   4.051   6.968 -0.1661  0.0979 -0.3931
  163DOPC  H13B19663   1.733   4.026   7.128  0.8306  1.2363 -1.0985
  163DOPC  H13C19664   1.822   3.967   6.986 -0.8744 -0.6467 -2.6200
  163DOPC   C1419665   1.533   3.873   7.104  0.7892 -0.3546 -0.0332
  163DOPC  H14A19666   1.489   3.967   7.073  0.8189  0.3498  1.8685
  163DOPC  H14B19667   1.464   3.796   7.074 -0.1027  0.2262  0.4624
  163DOPC  H14C19668   1.542   3.872   7.212  0.6291  2.8254  0.1223
  163DOPC   C1519669   1.632   3.803   6.886  0.5977 -0.5226 -0.5226
  163DOPC  H15A19670   1.611   3.698   6.895 -0.8199 -0.1961  0.4668
  163DOPC  H15B19671   1.716   3.813   6.819  2.8666  0.1901  2.2602
  163DOPC  H15C19672   1.547   3.849   6.837  0.0804 -0.5756  0.3136
  163DOPC   C1119673   1.669   3.601   7.123 -0.6595 -0.5431 -0.1676
  163DOPC  H11A19674   1.740   3.538   7.182 -0.7411 -1.3407 -0.9017
  163DOPC  H11B19675   1.572   3.606   7.177 -0.3051  2.0244  0.3424
  163DOPC     P19676   1.704   3.390   6.961  0.1921 -0.0396 -0.0956
  163DOPC   O1319677   1.704   3.304   7.081 -0.0815 -0.1008  0.2456
  163DOPC   O1419678   1.824   3.402   6.882 -0.4218 -0.4777 -0.1415
  163DOPC   O1219679   1.651   3.537   7.000  0.6320  0.2619  0.5526
  163DOPC   O1119680   1.582   3.350   6.870  0.3148 -0.0669  0.3505
  163DOPC    C119681   1.538   3.216   6.857  0.3999  0.1935  0.2837
  163DOPC    HA19682   1.463   3.193   6.935 -1.3619 -0.8821 -1.6079
  163DOPC    HB19683   1.615   3.136   6.860 -0.6867 -0.9738 -1.0828
  163DOPC    C219684   1.470   3.205   6.718 -0.0192  0.1465  0.2373
  163DOPC    HS19685   1.446   3.101   6.685  0.6968  1.1815 -4.0643
  163DOPC   O2119686   1.551   3.264   6.618  0.0569 -0.0052  0.0598
  163DOPC   C2119687   1.664   3.205   6.587 -0.2309 -0.7812  0.0221
  163DOPC   O2219688   1.705   3.102   6.634 -0.1996 -0.4410 -0.0035
  163DOPC   C2219689   1.729   3.292   6.481  0.2109  0.0762  0.1095
  163DOPC   H2R19690   1.755   3.383   6.540 -2.4405  0.2879  1.0454
  163DOPC   H2S19691   1.655   3.321   6.404  0.5628  2.3913  0.5674
  163DOPC    C319692   1.326   3.271   6.723  0.7771 -0.0585 -0.4803
  163DOPC    HX19693   1.334   3.374   6.763 -1.1434  0.4191 -1.2051
  163DOPC    HY19694   1.264   3.214   6.796 -2.5739  2.7170 -0.9164
  163DOPC   O3119695   1.267   3.275   6.591 -0.0831  0.1162 -0.1363
  163DOPC   C3119696   1.275   3.384   6.514 -0.4830  0.5124 -0.0924
  163DOPC   O3219697   1.318   3.491   6.537 -0.2338 -0.7156 -0.4535
  163DOPC   C3219698   1.236   3.331   6.375 -0.9795  0.1732  0.0107
  163DOPC   H2X19699   1.319   3.267   6.339 -1.7774 -0.6201 -0.4761
  163DOPC   H2Y19700   1.149   3.263   6.388 -0.5168 -0.2894  0.8086
  163DOPC   C2319701   1.859   3.243   6.426 -0.4963  0.0872 -0.1771
  163DOPC   H3R19702   1.920   3.186   6.499 -1.6631  2.5316  2.9386
  163DOPC   H3S19703   1.925   3.329   6.401  0.5670 -0.3316  1.0376
  163DOPC   C2419704   1.844   3.147   6.302 -0.3062 -0.1514 -0.6045
  163DOPC   H4R19705   1.777   3.061   6.324 -0.5263 -0.2762 -1.6771
  163DOPC   H4S19706   1.944   3.105   6.276  0.6053  2.0348 -0.8439
  163DOPC   C2519707   1.789   3.215   6.172 -0.0430  0.5452 -0.1918
  163DOPC   H5R19708   1.693   3.271   6.178 -1.1526 -0.8192 -3.2583
  163DOPC   H5S19709   1.772   3.136   6.096 -2.5976  2.5293 -1.9038
  163DOPC   C2619710   1.883   3.309   6.092 -0.6145  0.5317  0.2971
  163DOPC   H6R19711   1.970   3.244   6.066  0.9518  1.2432  3.3297
  163DOPC   H6S19712   1.920   3.383   6.166 -1.2516 -0.0743  1.2504
  163DOPC   C2719713   1.814   3.387   5.984 -0.0935 -0.5626  1.2061
  163DOPC   H7R19714   1.881   3.467   5.946 -0.6140 -1.5972 -2.2031
  163DOPC   H7S19715   1.723   3.432   6.029  0.2317 -0.9245  2.2510
  163DOPC   C2819716   1.773   3.293   5.859 -0.2266  0.3893  0.2498
  163DOPC   H8R19717   1.724   3.353   5.780 -0.6029  3.0949  2.4025
  163DOPC   H8S19718   1.703   3.217   5.899 -0.2668  1.0043  1.3892
  163DOPC   C2919719   1.892   3.246   5.783  0.5525  0.1731  0.1883
  163DOPC   H9R19720   1.961   3.329   5.765  0.6271 -0.2572 -1.6492
  163DOPC  C21019721   1.941   3.121   5.775  0.2076 -0.3750  0.2277
  163DOPC  H10R19722   2.027   3.111   5.707  1.2168 -1.1416  1.5523
  163DOPC  C21119723   1.869   2.998   5.806  0.4203 -0.2719  0.0754
  163DOPC  H11R19724   1.844   2.935   5.718  1.1727 -0.1719 -0.2142
  163DOPC  H11S19725   1.768   3.014   5.851 -0.7863 -1.0337 -2.1772
  163DOPC  C21219726   1.960   2.926   5.910  0.4896 -0.0455  0.9631
  163DOPC  H12R19727   1.971   2.992   5.999 -2.5900  2.2438 -0.1833
  163DOPC  H12S19728   2.057   2.895   5.866  1.0288 -0.5304  2.4557
  163DOPC  C21319729   1.891   2.798   5.948 -0.4233  0.5516  0.2846
  163DOPC  H13R19730   1.892   2.730   5.859  0.3265  1.0379 -0.0890
  163DOPC  H13S19731   1.786   2.805   5.984 -0.7458  0.1123 -0.5289
  163DOPC  C21419732   1.967   2.726   6.063  0.4262 -0.3621  0.7193
  163DOPC  H14R19733   1.977   2.794   6.150  0.2635 -1.0670  1.3034
  163DOPC  H14S19734   2.071   2.701   6.032  0.1445 -0.9382  0.2274
  163DOPC  C21519735   1.899   2.599   6.099 -0.5190  0.0711 -0.1332
  163DOPC  H15R19736   1.878   2.545   6.004  1.3399 -2.5324  0.8136
  163DOPC  H15S19737   1.803   2.619   6.150 -0.5182  0.3572 -0.2438
  163DOPC  C21619738   1.979   2.510   6.192 -1.0403 -0.5208 -0.3936
  163DOPC  H16R19739   2.018   2.578   6.270  0.2065  0.0438 -1.4696
  163DOPC  H16S19740   2.070   2.482   6.134 -0.2895 -0.6480  0.8179
  163DOPC  C21719741   1.917   2.391   6.265 -0.0152 -0.5626  1.1136
  163DOPC  H17R19742   1.855   2.327   6.198  0.4654  2.5426 -2.6209
  163DOPC  H17S19743   1.841   2.441   6.329  0.1052  3.0610 -1.3010
  163DOPC  C21819744   2.029   2.305   6.321 -0.7284  0.1523 -0.3529
  163DOPC  H18R19745   2.083   2.254   6.239  0.5759 -1.9283  1.6662
  163DOPC  H18S19746   1.978   2.225   6.379 -1.7107  1.3068  0.4137
  163DOPC  H18T19747   2.099   2.371   6.377 -1.1771 -0.4420  0.9457
  163DOPC   C3319748   1.216   3.450   6.283  0.0764 -0.2198 -0.3844
  163DOPC   H3X19749   1.291   3.531   6.285 -2.3657  2.2840 -1.9272
  163DOPC   H3Y19750   1.118   3.495   6.309  0.1428  0.4240 -1.2145
  163DOPC   C3419751   1.192   3.399   6.141  0.7886  0.5618  0.4261
  163DOPC   H4X19752   1.159   3.485   6.079  2.2375  1.1180  0.4089
  163DOPC   H4Y19753   1.114   3.320   6.133  0.6683  0.8064 -1.1878
  163DOPC   C3519754   1.328   3.356   6.076  0.5451 -0.5591  0.3499
  163DOPC   H5X19755   1.362   3.268   6.134  1.7041 -0.3766 -0.0287
  163DOPC   H5Y19756   1.401   3.440   6.080  1.1935 -1.1181  0.2481
  163DOPC   C3619757   1.315   3.316   5.928  0.2567  0.4526 -0.4377
  163DOPC   H6X19758   1.238   3.235   5.928 -1.3485  1.8073  2.1652
  163DOPC   H6Y19759   1.268   3.403   5.877 -0.9166  0.4986  0.6468
  163DOPC   C3719760   1.442   3.266   5.867 -0.5203 -0.2682  0.1128
  163DOPC   H7X19761   1.523   3.341   5.855 -0.2859 -0.7393 -1.4762
  163DOPC   H7Y19762   1.479   3.192   5.941  0.4299 -0.0784 -0.1582
  163DOPC   C3819763   1.424   3.202   5.725  0.6091  0.6308  0.0034
  163DOPC   H8X19764   1.405   3.289   5.659  0.0832  0.4034 -0.1466
  163DOPC   H8Y19765   1.332   3.141   5.717  0.8512  0.1988  0.4261
  163DOPC   C3919766   1.539   3.110   5.688 -0.5456 -0.7482  0.5091
  163DOPC   H9X19767   1.536   3.009   5.732 -0.3832 -0.3164  1.5391
  163DOPC  C31019768   1.615   3.124   5.579 -0.1123  0.6453  0.5057
  163DOPC  H10X19769   1.670   3.034   5.548  1.4973  0.7856  2.6934
  163DOPC  C31119770   1.593   3.239   5.485 -0.4704 -0.1915  0.3918
  163DOPC  H11X19771   1.654   3.326   5.517 -2.8312  1.4334  0.7121
  163DOPC  H11Y19772   1.488   3.273   5.472  0.7068  3.8194  0.1261
  163DOPC  C31219773   1.649   3.200   5.340  0.5045 -0.5847 -0.0597
  163DOPC  H12X19774   1.760   3.190   5.339  0.8220  2.0375  0.4042
  163DOPC  H12Y19775   1.622   3.288   5.278 -0.8249 -0.0444  1.2465
  163DOPC  C31319776   1.566   3.092   5.274 -0.7392 -0.0116 -0.2121
  163DOPC  H13X19777   1.601   3.087   5.169  0.6547  3.1407 -0.0003
  163DOPC  H13Y19778   1.582   2.993   5.321 -2.8111  0.0663  0.7600
  163DOPC  C31419779   1.412   3.116   5.260 -0.6827  0.5984 -0.2523
  163DOPC  H14X19780   1.365   3.089   5.356  0.9474 -1.5253  0.0193
  163DOPC  H14Y19781   1.389   3.219   5.224 -1.1913  0.1200 -1.3479
  163DOPC  C31519782   1.358   3.031   5.151 -0.0590 -0.2060  0.7157
  163DOPC  H15X19783   1.375   2.925   5.176  0.5863 -0.0108  1.1158
  163DOPC  H15Y19784   1.398   3.069   5.054  0.2566 -2.0431  0.0942
  163DOPC  C31619785   1.212   3.028   5.121 -0.0313 -0.4993 -0.1581
  163DOPC  H16X19786   1.166   3.129   5.110 -1.6510 -1.3067 -1.1400
  163DOPC  H16Y19787   1.195   2.973   5.027 -0.6433  1.6294 -1.3609
  163DOPC  C31719788   1.127   2.958   5.232  0.1172 -0.8432  0.0910
  163DOPC  H17X19789   1.158   2.851   5.242  2.6846 -0.1057  0.9379
  163DOPC  H17Y19790   1.142   3.003   5.332  0.0472 -0.6372  0.0085
  163DOPC  C31819791   0.987   2.960   5.192 -0.2679  0.0203 -0.4940
  163DOPC  H18X19792   0.920   2.946   5.278 -0.7276 -0.6373 -0.9521
  163DOPC  H18Y19793   0.957   3.059   5.151  1.1226  1.9931  2.8892
  163DOPC  H18Z19794   0.960   2.877   5.124 -3.1345 -0.3564  0.9550
  164DOPC     N19795   1.801   2.271   7.554 -0.4390 -0.1231  0.3813
  164DOPC   C1219796   1.822   2.145   7.475 -0.5348 -0.0413 -0.0845
  164DOPC  H12A19797   1.750   2.066   7.492  1.8484 -2.2387  0.4148
  164DOPC  H12B19798   1.916   2.101   7.503 -0.3766 -0.1225 -0.7404
  164DOPC   C1319799   1.927   2.351   7.572 -0.3550  0.2022  0.3052
  164DOPC  H13A19800   2.011   2.301   7.620  0.6415  1.4833 -0.0536
  164DOPC  H13B19801   1.967   2.364   7.472  0.0122  1.1391  0.5626
  164DOPC  H13C19802   1.922   2.451   7.613 -2.5030 -0.3905  1.6572
  164DOPC   C1419803   1.745   2.241   7.686  0.4329 -0.3737 -0.3200
  164DOPC  H14A19804   1.808   2.179   7.748  1.1731  0.0920 -0.5925
  164DOPC  H14B19805   1.745   2.336   7.736  0.5953  0.0378 -1.0828
  164DOPC  H14C19806   1.642   2.209   7.681 -0.5592  2.0722  2.0660
  164DOPC   C1519807   1.701   2.358   7.477 -0.7816  0.3964 -0.0283
  164DOPC  H15A19808   1.617   2.292   7.460  0.7918 -1.1684 -2.2982
  164DOPC  H15B19809   1.741   2.403   7.387 -1.4313 -0.0477 -0.5482
  164DOPC  H15C19810   1.669   2.445   7.533 -1.7224  1.8595 -2.6016
  164DOPC   C1119811   1.836   2.164   7.322  0.2155  0.4214  0.4179
  164DOPC  H11A19812   1.829   2.064   7.273 -0.3911  0.1813  0.9730
  164DOPC  H11B19813   1.746   2.213   7.279  0.7012  0.2056 -0.8862
  164DOPC     P19814   2.092   2.177   7.284  0.2895  0.1991  0.4205
  164DOPC   O1319815   2.123   2.098   7.410  0.2018 -0.3941  0.5736
  164DOPC   O1419816   2.185   2.288   7.263 -0.2641  0.1225 -0.2091
  164DOPC   O1219817   1.945   2.240   7.286 -0.8595  0.2625 -0.2340
  164DOPC   O1119818   2.104   2.079   7.156  0.4019  0.0026  0.5679
  164DOPC    C119819   2.091   2.143   7.027  0.0643 -0.5368 -0.3090
  164DOPC    HA19820   2.178   2.211   7.020  0.7252 -0.9165  2.6741
  164DOPC    HB19821   1.995   2.198   7.012  0.0120 -0.0577  1.5668
  164DOPC    C219822   2.093   2.044   6.907  0.3386 -0.0800  0.9071
  164DOPC    HS19823   2.007   1.976   6.925  0.0064  0.8558  3.1690
  164DOPC   O2119824   2.213   1.975   6.924  0.2035  0.4268 -0.3785
  164DOPC   C2119825   2.213   1.849   6.871  0.2876 -0.1863 -0.3198
  164DOPC   O2219826   2.114   1.785   6.833 -0.1719 -0.6010  0.0034
  164DOPC   C2219827   2.362   1.811   6.849  0.1027 -0.0028 -1.2270
  164DOPC   H2R19828   2.412   1.803   6.947  1.1422  0.7757 -1.6776
  164DOPC   H2S19829   2.415   1.900   6.807 -0.7660  0.4628 -1.3586
  164DOPC    C319830   2.088   2.116   6.768 -0.7007  0.2915  0.1376
  164DOPC    HX19831   2.161   2.200   6.769  0.9091 -1.0737  0.5856
  164DOPC    HY19832   1.987   2.162   6.759 -1.5742 -1.0230  2.3223
  164DOPC   O3119833   2.118   2.028   6.652  0.5374  0.9605 -1.0989
  164DOPC   C3119834   2.017   1.986   6.572 -0.4255 -0.6185  0.6011
  164DOPC   O3219835   1.901   2.022   6.580  0.2746  0.6271  0.1940
  164DOPC   C3219836   2.080   1.896   6.463  0.4509 -0.4753  0.3487
  164DOPC   H2X19837   2.173   1.939   6.419  0.1610 -0.2368 -0.0309
  164DOPC   H2Y19838   2.090   1.797   6.512 -0.4616 -0.2795  0.9402
  164DOPC   C2319839   2.384   1.685   6.757 -0.4601 -0.2156 -0.2802
  164DOPC   H3R19840   2.331   1.700   6.661 -3.0273 -0.4665  1.0125
  164DOPC   H3S19841   2.336   1.602   6.814 -1.1735 -0.5450 -1.3301
  164DOPC   C2419842   2.536   1.661   6.733 -0.7668 -0.2046 -0.8985
  164DOPC   H4R19843   2.526   1.569   6.671  2.4590  0.0075 -1.9160
  164DOPC   H4S19844   2.578   1.629   6.830 -1.1749  1.4784 -0.1359
  164DOPC   C2519845   2.613   1.767   6.657 -0.0942  0.4971 -0.0393
  164DOPC   H5R19846   2.603   1.855   6.725 -4.0771 -0.0588  0.3438
  164DOPC   H5S19847   2.564   1.795   6.561 -0.3666  0.6908  0.1524
  164DOPC   C2619848   2.761   1.737   6.640  1.2850 -0.0298  0.2850
  164DOPC   H6R19849   2.803   1.701   6.736  0.6368 -3.1867 -0.4981
  164DOPC   H6S19850   2.822   1.826   6.615  1.4305 -0.2437 -0.1270
  164DOPC   C2719851   2.799   1.626   6.530 -0.0431  0.5239 -0.5528
  164DOPC   H7R19852   2.770   1.652   6.426  0.6719  0.7018 -0.7092
  164DOPC   H7S19853   2.740   1.542   6.572 -0.7349  1.8005  1.1599
  164DOPC   C2819854   2.944   1.583   6.540  0.0137 -0.7397 -0.1143
  164DOPC   H8R19855   2.945   1.491   6.478 -1.0360 -1.7524  1.3054
  164DOPC   H8S19856   2.962   1.562   6.647 -2.1956  1.6676  0.8551
  164DOPC   C2919857   3.034   1.696   6.503 -0.6286 -0.4095  0.1804
  164DOPC   H9R19858   3.033   1.788   6.563  2.9541 -1.2031  1.7204
  164DOPC  C21019859   3.102   1.704   6.388 -0.4916 -0.1518 -0.1010
  164DOPC  H10R19860   3.161   1.797   6.387  1.1216 -1.1551 -0.9015
  164DOPC  C21119861   3.128   1.598   6.280 -0.3291  0.1776  0.4448
  164DOPC  H11R19862   3.074   1.507   6.313 -0.0275  0.7312  2.5987
  164DOPC  H11S19863   3.237   1.581   6.268 -0.5960 -1.3178 -0.0406
  164DOPC  C21219864   3.058   1.634   6.145 -0.8241  0.3240  0.5340
  164DOPC  H12R19865   2.949   1.644   6.160 -0.6408  0.7198  1.7701
  164DOPC  H12S19866   3.079   1.562   6.063 -0.4192  0.0752  0.8532
  164DOPC  C21319867   3.102   1.772   6.090 -0.3479 -0.4449  0.3164
  164DOPC  H13R19868   3.207   1.793   6.119 -0.1596 -1.2033  0.2028
  164DOPC  H13S19869   3.037   1.849   6.137 -1.4056 -0.7024 -0.6707
  164DOPC  C21419870   3.101   1.780   5.935 -0.3763 -0.0887 -0.9761
  164DOPC  H14R19871   3.154   1.698   5.881  0.1595  0.1073 -0.7533
  164DOPC  H14S19872   3.155   1.876   5.921 -0.8418  0.5516  1.2428
  164DOPC  C21519873   2.961   1.814   5.871 -0.1015  0.0217  0.0122
  164DOPC  H15R19874   2.934   1.913   5.914  0.9223  0.1998  0.2564
  164DOPC  H15S19875   2.882   1.741   5.903  0.3915 -0.2533  0.6272
  164DOPC  C21619876   2.978   1.802   5.716 -0.7329 -1.0616 -0.7463
  164DOPC  H16R19877   3.060   1.868   5.681  0.6940 -2.0139  0.6488
  164DOPC  H16S19878   2.886   1.848   5.673  0.0888  0.6071 -0.7710
  164DOPC  C21719879   3.017   1.664   5.662  0.9618 -0.5776  0.0409
  164DOPC  H17R19880   2.928   1.600   5.684 -0.7320  0.7953 -2.3250
  164DOPC  H17S19881   3.110   1.624   5.707  1.6841  0.8185 -0.1648
  164DOPC  C21819882   3.042   1.668   5.515  0.0823 -0.9224  0.2181
  164DOPC  H18R19883   3.130   1.716   5.467 -1.8970  0.3726 -2.3351
  164DOPC  H18S19884   2.956   1.717   5.464 -1.4703 -3.2879  0.3928
  164DOPC  H18T19885   3.045   1.561   5.484  1.0307 -0.5021 -1.2053
  164DOPC   C3319886   1.975   1.889   6.342 -0.2034 -0.0312  0.0630
  164DOPC   H3X19887   1.949   1.990   6.304 -0.3971 -0.0635  0.1096
  164DOPC   H3Y19888   1.883   1.835   6.372 -0.7941 -0.4138 -2.2599
  164DOPC   C3419889   2.038   1.814   6.220 -0.4654 -0.1373  0.2691
  164DOPC   H4X19890   1.969   1.822   6.133 -1.1349  1.8933  0.9205
  164DOPC   H4Y19891   2.056   1.707   6.242 -0.5658 -0.0546  0.7700
  164DOPC   C3519892   2.167   1.879   6.154  0.3795 -0.0842  0.1728
  164DOPC   H5X19893   2.251   1.880   6.226 -0.8734  0.2906  1.6681
  164DOPC   H5Y19894   2.144   1.984   6.127  1.9668  0.2666  0.0634
  164DOPC   C3619895   2.200   1.804   6.022 -0.6459 -0.3197 -0.0320
  164DOPC   H6X19896   2.233   1.701   6.050  2.0795 -0.1845 -2.3128
  164DOPC   H6Y19897   2.111   1.811   5.956 -0.9052  0.8047  0.4278
  164DOPC   C3719898   2.308   1.874   5.936  0.0703 -0.1550  1.0731
  164DOPC   H7X19899   2.269   1.969   5.892 -1.3144 -0.5318  1.4352
  164DOPC   H7Y19900   2.406   1.901   5.979  0.4102  0.4009 -0.0109
  164DOPC   C3819901   2.341   1.778   5.821  0.1933 -0.9770 -0.2303
  164DOPC   H8X19902   2.399   1.838   5.747 -1.4858  3.3537  1.6752
  164DOPC   H8Y19903   2.245   1.747   5.775 -0.5224 -1.5278  1.5676
  164DOPC   C3919904   2.423   1.658   5.864 -0.2060 -0.2133  0.2674
  164DOPC   H9X19905   2.420   1.627   5.970 -0.5104 -0.4383  0.1932
  164DOPC  C31019906   2.516   1.596   5.788  0.1801 -0.6787  0.0310
  164DOPC  H10X19907   2.568   1.512   5.837 -0.1458  0.5208  2.5907
  164DOPC  C31119908   2.553   1.619   5.646 -1.0856  0.4124 -0.1236
  164DOPC  H11X19909   2.663   1.630   5.657 -0.9040 -0.8749 -0.4781
  164DOPC  H11Y19910   2.510   1.714   5.608 -0.5903  0.3282 -0.9151
  164DOPC  C31219911   2.518   1.492   5.567 -0.3333  0.5721  0.2249
  164DOPC  H12X19912   2.410   1.475   5.583 -0.9229  1.1955 -2.4892
  164DOPC  H12Y19913   2.571   1.400   5.599 -0.2450  0.1209 -1.1670
  164DOPC  C31319914   2.537   1.519   5.416 -0.2807  0.0947  0.4416
  164DOPC  H13X19915   2.513   1.430   5.353  1.8689  0.0658 -0.4359
  164DOPC  H13Y19916   2.465   1.598   5.388 -1.6492 -0.4305  2.3105
  164DOPC  C31419917   2.681   1.577   5.382  0.7753  0.1017 -0.5719
  164DOPC  H14X19918   2.755   1.513   5.434  1.3187  0.6638 -0.6457
  164DOPC  H14Y19919   2.701   1.676   5.428  1.2458  0.4761 -1.5721
  164DOPC  C31519920   2.711   1.577   5.232 -0.5135 -0.1333 -0.8620
  164DOPC  H15X19921   2.664   1.666   5.186 -1.4229  0.2943  0.8163
  164DOPC  H15Y19922   2.655   1.490   5.191 -1.7814 -0.2302  0.9818
  164DOPC  C31619923   2.860   1.573   5.205  0.1153  0.3144  0.4038
  164DOPC  H16X19924   2.918   1.661   5.242  2.8974 -2.1471  2.3760
  164DOPC  H16Y19925   2.898   1.492   5.271 -0.4487 -2.0329 -1.9893
  164DOPC  C31719926   2.911   1.533   5.059  0.3190 -0.9348 -0.7950
  164DOPC  H17X19927   2.815   1.504   5.011  0.0743  1.5644 -1.9811
  164DOPC  H17Y19928   2.947   1.623   5.004 -1.7915 -0.6631 -1.8446
  164DOPC  C31819929   3.016   1.429   5.043 -1.1326  0.0382  0.2797
  164DOPC  H18X19930   3.040   1.409   4.936  2.9375 -2.5841  1.4359
  164DOPC  H18Y19931   3.113   1.453   5.091 -0.7738 -0.1958 -0.3129
  164DOPC  H18Z19932   2.987   1.334   5.093  1.3885 -0.6902  0.5425
  165DOPC     N19933   5.609   1.162   7.075 -0.2198  0.0962  0.3222
  165DOPC   C1219934   5.687   1.046   7.017  0.5432 -0.4925 -0.3632
  165DOPC  H12A19935   5.642   0.949   7.030  0.2395 -0.0467  2.3053
  165DOPC  H12B19936   5.780   1.050   7.072  0.7546  1.8383 -0.7824
  165DOPC   C1319937   5.577   1.138   7.219 -0.0971  0.2590  0.1541
  165DOPC  H13A19938   5.667   1.124   7.277  0.0012 -1.6578 -0.3843
  165DOPC  H13B19939   5.522   1.221   7.259  2.7197  1.0161  2.8296
  165DOPC  H13C19940   5.524   1.045   7.237  0.1613 -0.0439 -0.5728
  165DOPC   C1419941   5.482   1.187   7.000 -0.5131  0.0078  0.4221
  165DOPC  H14A19942   5.415   1.103   6.989 -0.6838  0.3790 -1.8967
  165DOPC  H14B19943   5.425   1.262   7.052 -0.5266  0.3794 -0.1251
  165DOPC  H14C19944   5.511   1.220   6.902 -0.2955 -2.0619 -0.2614
  165DOPC   C1519945   5.687   1.284   7.082 -0.5407  0.3916  0.2708
  165DOPC  H15A19946   5.617   1.366   7.093 -1.0063  0.1363 -0.7079
  165DOPC  H15B19947   5.739   1.299   6.989  0.3945 -2.3484  0.2714
  165DOPC  H15C19948   5.761   1.276   7.161 -0.3639 -0.2872  0.0434
  165DOPC   C1119949   5.718   1.061   6.869 -0.4235  0.1693  0.7327
  165DOPC  H11A19950   5.753   0.963   6.828 -0.7933  0.2955  0.0949
  165DOPC  H11B19951   5.625   1.093   6.817 -1.7052 -2.0257  1.5121
  165DOPC     P19952   5.968   1.135   6.849  0.5403 -0.2772 -0.0204
  165DOPC   O1319953   5.998   1.055   6.970 -0.0453 -1.0476  0.2726
  165DOPC   O1419954   6.037   1.273   6.837  0.5698  0.5486  1.4371
  165DOPC   O1219955   5.809   1.168   6.844  0.4608  0.3436  0.7951
  165DOPC   O1119956   5.993   1.054   6.718  0.5510  0.4503 -0.0818
  165DOPC    C119957   5.948   1.127   6.599  0.1681 -0.2712 -0.8815
  165DOPC    HA19958   5.892   1.223   6.608 -0.2023 -0.5205 -0.4487
  165DOPC    HB19959   5.875   1.066   6.541 -3.1151  2.9847 -0.5477
  165DOPC    C219960   6.067   1.149   6.499  0.1405  0.2196 -0.2930
  165DOPC    HS19961   6.025   1.214   6.420 -1.3609  0.2162  0.4725
  165DOPC   O2119962   6.111   1.027   6.452 -0.3218  0.5502  0.4654
  165DOPC   C2119963   6.177   1.041   6.333  0.7358 -0.4880  0.1221
  165DOPC   O2219964   6.151   1.123   6.253  0.2364  0.1486  0.2452
  165DOPC   C2219965   6.273   0.923   6.308  0.5474  0.7170  0.8980
  165DOPC   H2R19966   6.222   0.843   6.250 -0.2319  2.0090 -0.2771
  165DOPC   H2S19967   6.302   0.892   6.410  0.6502 -0.2513  0.5872
  165DOPC    C319968   6.188   1.229   6.565 -0.7108  0.0167 -0.2252
  165DOPC    HX19969   6.223   1.158   6.643  0.7480  0.2946 -0.6066
  165DOPC    HY19970   6.153   1.322   6.616 -0.7684  1.6424 -3.0146
  165DOPC   O3119971   6.299   1.260   6.479  0.1064  0.3362  0.0791
  165DOPC   C3119972   6.285   1.363   6.395  0.6289  0.7418  0.1227
  165DOPC   O3219973   6.203   1.453   6.398 -0.3285  0.1784 -0.7921
  165DOPC   C3219974   6.413   1.368   6.318  0.0268 -0.5481 -0.3525
  165DOPC   H2X19975   6.499   1.361   6.388  0.0452  1.8189 -0.0606
  165DOPC   H2Y19976   6.422   1.278   6.253 -2.8293 -0.2591 -1.2709
  165DOPC   C2319977   6.406   0.952   6.224  0.7430 -0.5418  0.8598
  165DOPC   H3R19978   6.487   0.891   6.269  1.0899 -0.3745  0.4648
  165DOPC   H3S19979   6.414   1.062   6.234 -1.5782 -0.2334  0.1292
  165DOPC   C2419980   6.403   0.923   6.074 -0.6674  0.2948  0.5283
  165DOPC   H4R19981   6.389   0.814   6.059 -0.4008  0.3033  0.2227
  165DOPC   H4S19982   6.499   0.945   6.024  0.6458 -0.2831  2.6863
  165DOPC   C2519983   6.288   0.999   6.009  0.2471 -0.4497 -0.4800
  165DOPC   H5R19984   6.305   1.108   6.021 -1.5800 -0.0608 -1.1040
  165DOPC   H5S19985   6.189   0.970   6.050  0.4441  0.2810  0.5575
  165DOPC   C2619986   6.285   0.985   5.852  0.3455 -0.8092  0.3379
  165DOPC   H6R19987   6.247   0.888   5.813 -0.3678 -0.1952 -0.5456
  165DOPC   H6S19988   6.390   0.999   5.819  0.4271  1.3700  1.3585
  165DOPC   C2719989   6.207   1.099   5.787  0.1151  0.1949  0.2037
  165DOPC   H7R19990   6.254   1.195   5.818 -1.6784  0.8456  1.0577
  165DOPC   H7S19991   6.100   1.086   5.814 -0.7652  2.6233 -1.7192
  165DOPC   C2819992   6.199   1.093   5.632 -0.6430 -0.1384  0.3216
  165DOPC   H8R19993   6.150   0.996   5.607 -1.3806  0.6361 -1.4729
  165DOPC   H8S19994   6.307   1.102   5.604 -1.1567  2.0830 -1.2381
  165DOPC   C2919995   6.111   1.196   5.562  0.0686 -0.1260 -0.4520
  165DOPC   H9R19996   6.018   1.224   5.612 -0.8581  0.4765 -2.4142
  165DOPC  C21019997   6.158   1.273   5.462  0.0171  0.1248 -0.1159
  165DOPC  H10R19998   6.097   1.356   5.422  1.4221  1.1000 -0.3149
  165DOPC  C21119999   6.288   1.266   5.393 -0.1464  0.4294 -0.4787
  165DOPC  H11R20000   6.337   1.166   5.388  0.9660  0.8760  0.6704
  165DOPC  H11S20001   6.355   1.345   5.435 -1.5185  1.6995 -0.6162
  165DOPC  C21220002   6.261   1.281   5.244  0.4625 -0.1703 -0.5981
  165DOPC  H12R20003   6.198   1.369   5.219 -0.7123 -1.2775 -1.7055
  165DOPC  H12S20004   6.214   1.190   5.202 -0.8524  0.0214  0.4094
  165DOPC  C21320005   6.384   1.298   5.152  0.9886 -0.1779  0.1551
  165DOPC  H13R20006   6.442   1.389   5.176  0.0766  0.5048 -0.1727
  165DOPC  H13S20007   6.343   1.301   5.049 -0.4321 -2.6097  0.5739
  165DOPC  C21420008   6.485   1.184   5.152 -0.1289 -0.6846 -0.4340
  165DOPC  H14R20009   6.540   1.181   5.055  0.9661  2.0985 -0.0027
  165DOPC  H14S20010   6.443   1.085   5.177  1.2888 -0.9577  0.9805
  165DOPC  C21520011   6.597   1.192   5.257  0.3453  0.0714 -0.3097
  165DOPC  H15R20012   6.555   1.216   5.357 -0.1068 -0.8333 -0.2748
  165DOPC  H15S20013   6.650   1.288   5.243  0.6386 -0.3696 -2.5916
  165DOPC  C21620014   6.699   1.075   5.269 -0.8421 -0.6011  0.2080
  165DOPC  H16R20015   6.651   0.978   5.295 -1.8798 -0.6837 -1.8604
  165DOPC  H16S20016   6.758   1.102   5.360 -0.5806 -0.5764  0.0320
  165DOPC  C21720017   6.802   1.067   5.148 -0.0914 -0.1538 -0.1851
  165DOPC  H17R20018   6.742   1.017   5.069 -0.8693 -0.6269  0.6873
  165DOPC  H17S20019   6.877   0.989   5.170 -0.3055 -0.3634 -0.1869
  165DOPC  C21820020   6.865   1.195   5.102  0.2323  0.4772  0.0479
  165DOPC  H18R20021   6.942   1.161   5.030 -1.1407 -2.6268 -0.1218
  165DOPC  H18S20022   6.925   1.247   5.180  0.1658 -1.2998  1.3426
  165DOPC  H18T20023   6.795   1.267   5.054  0.0025 -0.0138 -0.3602
  165DOPC   C3320024   6.439   1.503   6.246  0.2446 -1.4157  0.1868
  165DOPC   H3X20025   6.546   1.530   6.238 -0.6681  2.9710  0.1713
  165DOPC   H3Y20026   6.399   1.590   6.301  0.3463 -0.3855 -1.3004
  165DOPC   C3420027   6.388   1.513   6.098 -0.6471  0.0413 -0.2681
  165DOPC   H4X20028   6.427   1.605   6.048  3.0825 -2.3957 -2.3323
  165DOPC   H4Y20029   6.277   1.510   6.105 -0.5084 -1.6508  2.9949
  165DOPC   C3520030   6.422   1.395   6.002  0.2879 -0.9356  0.5840
  165DOPC   H5X20031   6.382   1.424   5.902  2.7720 -2.1819 -0.8768
  165DOPC   H5Y20032   6.369   1.303   6.034  0.3857 -1.1346  0.1786
  165DOPC   C3620033   6.571   1.361   5.973 -0.0938  0.1079  0.0406
  165DOPC   H6X20034   6.617   1.460   5.955  1.5000 -0.4993  0.6273
  165DOPC   H6Y20035   6.621   1.313   6.060 -1.4681  1.5039  1.6701
  165DOPC   C3720036   6.584   1.286   5.843  0.2029  0.5734 -0.3086
  165DOPC   H7X20037   6.554   1.338   5.749 -2.0436 -1.9129 -1.1145
  165DOPC   H7Y20038   6.509   1.205   5.854  0.2553  0.4050 -1.1248
  165DOPC   C3820039   6.718   1.211   5.823 -0.5137 -0.3063 -0.0332
  165DOPC   H8X20040   6.740   1.152   5.915  1.8735 -1.1066 -1.0364
  165DOPC   H8Y20041   6.803   1.282   5.815 -0.6182 -0.3262 -1.6500
  165DOPC   C3920042   6.716   1.130   5.699  0.1128  0.0054  0.7621
  165DOPC   H9X20043   6.697   1.181   5.603  0.2590 -0.6176  0.3911
  165DOPC  C31020044   6.735   0.997   5.681 -0.0126 -0.0757  0.5936
  165DOPC  H10X20045   6.712   0.951   5.584  0.0539  0.6409  0.2404
  165DOPC  C31120046   6.776   0.904   5.786 -0.1268 -0.1921 -0.1695
  165DOPC  H11X20047   6.793   0.951   5.886 -0.9359  0.0609 -0.1487
  165DOPC  H11Y20048   6.870   0.847   5.765  0.5517  0.8521 -0.0432
  165DOPC  C31220049   6.665   0.798   5.804 -0.0071 -0.0384 -0.3931
  165DOPC  H12X20050   6.666   0.724   5.722  1.9496 -0.3225 -0.1497
  165DOPC  H12Y20051   6.561   0.838   5.796 -0.5406 -1.0347  1.0827
  165DOPC  C31320052   6.675   0.706   5.933  0.7669  0.6611  0.0793
  165DOPC  H13X20053   6.776   0.661   5.941  1.0816  1.6714  2.5527
  165DOPC  H13Y20054   6.657   0.760   6.028 -2.1371 -1.4546  0.8663
  165DOPC  C31420055   6.570   0.587   5.919 -0.3946  0.0795 -0.1189
  165DOPC  H14X20056   6.473   0.641   5.923 -0.0114  0.7003  0.8089
  165DOPC  H14Y20057   6.586   0.536   5.821 -1.0973  1.6211 -1.0627
  165DOPC  C31520058   6.583   0.478   6.023  0.3087 -0.2740  0.4252
  165DOPC  H15X20059   6.613   0.528   6.118 -0.0578 -0.1251  0.4641
  165DOPC  H15Y20060   6.668   0.409   6.005  1.2752  0.1828  2.8130
  165DOPC  C31620061   6.451   0.394   6.042  0.2844  0.2569 -0.3881
  165DOPC  H16X20062   6.381   0.420   5.959 -1.6773 -0.7027  0.8953
  165DOPC  H16Y20063   6.473   0.285   6.035 -2.7453 -0.3865 -1.7012
  165DOPC  C31720064   6.389   0.413   6.178  0.1973 -0.2277 -0.2118
  165DOPC  H17X20065   6.304   0.342   6.191  0.8535 -1.4384 -2.0393
  165DOPC  H17Y20066   6.461   0.380   6.256 -1.5930  0.6100  1.9092
  165DOPC  C31820067   6.355   0.556   6.216  0.0459  0.3472 -0.2521
  165DOPC  H18X20068   6.337   0.553   6.326 -2.9118 -0.7884 -0.6798
  165DOPC  H18Y20069   6.425   0.632   6.176  0.2198 -0.3585 -1.3159
  165DOPC  H18Z20070   6.256   0.572   6.170 -0.1141  0.0835 -0.0038
  166DOPC     N20071   0.681   3.335   7.572  0.1124 -0.0176  0.1219
  166DOPC   C1220072   0.694   3.303   7.421 -0.1866  0.0089 -0.0757
  166DOPC  H12A20073   0.610   3.337   7.361 -1.5386 -1.5546  0.8383
  166DOPC  H12B20074   0.675   3.198   7.405 -0.3437  0.4411 -3.2879
  166DOPC   C1320075   0.707   3.480   7.602  0.0505 -0.0639  0.2381
  166DOPC  H13A20076   0.719   3.510   7.705  2.0086  2.1368 -0.5398
  166DOPC  H13B20077   0.791   3.506   7.539  0.5543 -1.6670  0.2089
  166DOPC  H13C20078   0.629   3.540   7.557  0.1351 -1.2854 -1.6764
  166DOPC   C1420079   0.792   3.259   7.647 -0.1894 -0.0390  0.5946
  166DOPC  H14A20080   0.889   3.286   7.608 -0.1735 -2.4346 -1.2310
  166DOPC  H14B20081   0.785   3.263   7.754  2.6310 -0.7353  0.8716
  166DOPC  H14C20082   0.781   3.154   7.627 -1.1518  0.5358 -2.5936
  166DOPC   C1520083   0.553   3.294   7.636  0.2230  0.4271 -0.3538
  166DOPC  H15A20084   0.552   3.342   7.732  2.7011  1.4339 -0.7553
  166DOPC  H15B20085   0.546   3.188   7.655 -3.4248  0.4068 -0.9589
  166DOPC  H15C20086   0.469   3.325   7.575 -0.3884  1.6926  1.0608
  166DOPC   C1120087   0.814   3.342   7.337 -0.2107 -0.1894  0.5233
  166DOPC  H11A20088   0.910   3.332   7.392 -1.1463  0.6723  2.3932
  166DOPC  H11B20089   0.822   3.270   7.252 -2.3864 -0.1002  0.1864
  166DOPC     P20090   0.699   3.510   7.177 -0.2627 -0.3814 -0.1420
  166DOPC   O1320091   0.722   3.644   7.127  0.2307  0.0298 -0.6742
  166DOPC   O1420092   0.561   3.466   7.211  0.1270 -0.2865 -0.1618
  166DOPC   O1220093   0.798   3.480   7.296 -0.6946  0.5592  0.4566
  166DOPC   O1120094   0.746   3.398   7.077  0.2765  0.2606  0.6207
  166DOPC    C120095   0.877   3.416   7.009  0.5587  0.0467 -0.3367
  166DOPC    HA20096   0.915   3.316   6.978 -2.7715 -1.3897 -0.1992
  166DOPC    HB20097   0.950   3.466   7.076  0.5590 -0.4154  0.0157
  166DOPC    C220098   0.857   3.486   6.874 -0.4353 -0.1475  0.3505
  166DOPC    HS20099   0.789   3.573   6.880 -0.1669  0.0775  0.1913
  166DOPC   O2120100   0.817   3.386   6.776  0.0838 -0.3143  0.1139
  166DOPC   C2120101   0.687   3.371   6.767 -0.4924 -0.4132 -0.4960
  166DOPC   O2220102   0.606   3.440   6.821 -0.1684 -0.8503 -0.0619
  166DOPC   C2220103   0.649   3.245   6.685  0.3164  0.7437  0.1741
  166DOPC   H2R20104   0.565   3.197   6.741 -0.5043  0.7866 -0.9832
  166DOPC   H2S20105   0.742   3.185   6.675  0.0945  0.5650 -0.8532
  166DOPC    C320106   0.987   3.556   6.824  0.0681 -0.1994  0.4356
  166DOPC    HX20107   1.071   3.485   6.808  2.0647  2.4542 -1.6995
  166DOPC    HY20108   1.018   3.614   6.914  1.2454 -1.8177  1.1304
  166DOPC   O3120109   0.969   3.651   6.714  0.2769  0.4607  0.3381
  166DOPC   C3120110   0.983   3.600   6.600  0.1645  0.3025  0.3322
  166DOPC   O3220111   1.001   3.484   6.574  0.0840  0.1923  0.2063
  166DOPC   C3220112   0.971   3.715   6.504 -1.2218  0.0743 -0.4503
  166DOPC   H2X20113   0.959   3.671   6.403 -1.8808  0.1139 -0.3937
  166DOPC   H2Y20114   0.887   3.785   6.525  0.7654  2.7299 -0.8160
  166DOPC   C2320115   0.587   3.271   6.540 -0.4680  0.3831 -0.3505
  166DOPC   H3R20116   0.489   3.325   6.544 -1.3205 -1.0401 -1.3035
  166DOPC   H3S20117   0.577   3.169   6.498 -0.7568  0.2327  0.0788
  166DOPC   C2420118   0.679   3.345   6.439  0.3225  0.3194 -0.3285
  166DOPC   H4R20119   0.783   3.306   6.432 -0.7170 -2.4613 -1.8118
  166DOPC   H4S20120   0.687   3.447   6.485  0.9839 -0.7912  2.2239
  166DOPC   C2520121   0.614   3.359   6.298  0.1588 -0.0514  0.3867
  166DOPC   H5R20122   0.515   3.410   6.302  1.3883  2.5988 -0.8435
  166DOPC   H5S20123   0.604   3.261   6.247 -2.5791 -0.0022  0.6447
  166DOPC   C2620124   0.695   3.446   6.205  0.2672  0.0406 -0.5166
  166DOPC   H6R20125   0.797   3.402   6.202  0.9188  1.4803 -0.4317
  166DOPC   H6S20126   0.699   3.550   6.245  2.9569  0.0572 -0.6487
  166DOPC   C2720127   0.628   3.455   6.066  0.0079 -0.5074  0.3578
  166DOPC   H7R20128   0.527   3.503   6.069  0.1062 -0.1329 -1.2412
  166DOPC   H7S20129   0.613   3.352   6.029 -1.3173 -0.0886 -0.3604
  166DOPC   C2820130   0.711   3.547   5.969 -0.2020  0.0814  0.0274
  166DOPC   H8R20131   0.735   3.642   6.023 -0.2757 -1.0133  2.0656
  166DOPC   H8S20132   0.658   3.571   5.874  2.2683  0.9462 -1.1960
  166DOPC   C2920133   0.844   3.476   5.945  0.9266 -0.8859 -0.2618
  166DOPC   H9R20134   0.902   3.465   6.038  2.9458  2.4285 -0.9451
  166DOPC  C21020135   0.893   3.425   5.831 -0.5386  0.2140 -0.0483
  166DOPC  H10R20136   0.976   3.353   5.841 -1.8112 -1.0251  2.9527
  166DOPC  C21120137   0.835   3.440   5.697  0.3037  0.0734 -0.3039
  166DOPC  H11R20138   0.916   3.477   5.631 -0.7663  2.7386 -0.2745
  166DOPC  H11S20139   0.750   3.511   5.691 -0.6988 -0.8688  1.6536
  166DOPC  C21220140   0.785   3.308   5.647  0.0234 -0.4549  0.3339
  166DOPC  H12R20141   0.701   3.281   5.714 -0.1642  0.9459  0.6792
  166DOPC  H12S20142   0.869   3.235   5.652  1.2003  0.7945 -0.6002
  166DOPC  C21320143   0.737   3.317   5.500  0.4731  0.0456  0.0954
  166DOPC  H13R20144   0.827   3.351   5.444 -1.5543  2.9722 -1.6626
  166DOPC  H13S20145   0.661   3.396   5.480 -0.0404  0.2241  2.4900
  166DOPC  C21420146   0.684   3.191   5.445 -0.1918  0.2218  0.5327
  166DOPC  H14R20147   0.617   3.152   5.525  1.9719  0.2912  2.4839
  166DOPC  H14S20148   0.771   3.122   5.442 -0.0079  0.4899 -1.1710
  166DOPC  C21520149   0.618   3.203   5.305 -0.3373  0.8610 -0.7599
  166DOPC  H15R20150   0.644   3.103   5.262  0.5724  0.4803  0.5970
  166DOPC  H15S20151   0.661   3.291   5.254  1.4908  1.6861  2.0144
  166DOPC  C21620152   0.469   3.218   5.318  0.1798  0.2265  0.6764
  166DOPC  H16R20153   0.434   3.295   5.390 -0.3574  0.3826  0.2486
  166DOPC  H16S20154   0.440   3.120   5.362  1.8063  0.5735  2.6971
  166DOPC  C21720155   0.393   3.225   5.187 -0.0718 -0.0655  0.1199
  166DOPC  H17R20156   0.407   3.320   5.132  2.3074 -0.3413  0.1031
  166DOPC  H17S20157   0.284   3.220   5.208 -0.0783  0.2818  0.1629
  166DOPC  C21820158   0.417   3.119   5.085 -0.3509  0.5418 -0.5224
  166DOPC  H18R20159   0.516   3.130   5.037  0.4333  0.9672  1.1351
  166DOPC  H18S20160   0.341   3.122   5.004 -1.4408 -1.2488  0.3640
  166DOPC  H18T20161   0.430   3.021   5.137 -0.8678  2.1478  2.9274
  166DOPC   C3320162   1.101   3.791   6.501 -0.6921 -0.1715 -0.6233
  166DOPC   H3X20163   1.175   3.720   6.459 -1.7794 -1.4549 -0.4656
  166DOPC   H3Y20164   1.145   3.815   6.600  1.3910 -1.7527 -1.0982
  166DOPC   C3420165   1.093   3.906   6.398 -0.2343 -0.3000 -0.7550
  166DOPC   H4X20166   1.193   3.953   6.390 -0.0333 -0.7085 -0.6369
  166DOPC   H4Y20167   1.011   3.975   6.427 -0.8073 -1.1509 -0.3047
  166DOPC   C3520168   1.055   3.858   6.247 -0.2553 -0.4969 -0.8026
  166DOPC   H5X20169   0.951   3.818   6.245 -0.2600 -0.7901  1.8412
  166DOPC   H5Y20170   1.128   3.784   6.208 -0.1080 -0.4760 -0.5713
  166DOPC   C3620171   1.072   3.964   6.145  0.3098  0.2287 -0.0675
  166DOPC   H6X20172   0.997   4.043   6.169 -0.9971 -1.5247  2.0322
  166DOPC   H6Y20173   1.174   4.009   6.155  1.2828 -1.8727  0.0747
  166DOPC   C3720174   1.034   3.923   6.003 -0.2545  0.9222 -0.0571
  166DOPC   H7X20175   0.953   3.849   6.018  1.0851 -0.1452  2.8547
  166DOPC   H7Y20176   1.000   4.006   5.938  0.5902  1.7870  0.5640
  166DOPC   C3820177   1.148   3.835   5.925 -0.0272 -0.1876 -0.5028
  166DOPC   H8X20178   1.167   3.740   5.980  1.7173 -0.5486 -1.6607
  166DOPC   H8Y20179   1.239   3.898   5.929  0.1587 -0.3221 -2.0091
  166DOPC   C3920180   1.116   3.806   5.781 -0.6042  0.2528  0.5485
  166DOPC   H9X20181   1.009   3.790   5.760 -0.4366 -1.7108  0.9214
  166DOPC  C31020182   1.197   3.781   5.676  0.5376 -0.1956  0.1753
  166DOPC  H10X20183   1.154   3.756   5.578  0.4653 -0.6460  0.3190
  166DOPC  C31120184   1.347   3.785   5.688 -0.2211  0.1825 -0.1185
  166DOPC  H11X20185   1.380   3.839   5.779 -0.0884  2.0611 -1.2234
  166DOPC  H11Y20186   1.389   3.829   5.595  1.0938  0.5027  0.6081
  166DOPC  C31220187   1.394   3.641   5.690 -0.2229 -0.5136  0.1102
  166DOPC  H12X20188   1.379   3.589   5.593 -1.1162  0.5770 -0.3617
  166DOPC  H12Y20189   1.359   3.583   5.778  1.6114  1.8074  2.5666
  166DOPC  C31320190   1.552   3.623   5.700 -0.6300 -0.3845 -0.8365
  166DOPC  H13X20191   1.572   3.629   5.810 -0.3357 -0.5681 -0.8775
  166DOPC  H13Y20192   1.570   3.516   5.676  0.7914 -0.6332  1.0700
  166DOPC  C31420193   1.626   3.719   5.615  0.2249  0.6330  0.0904
  166DOPC  H14X20194   1.571   3.732   5.519 -2.2965  2.9233  1.6786
  166DOPC  H14Y20195   1.621   3.823   5.656 -0.2067  1.5699 -2.1897
  166DOPC  C31520196   1.768   3.675   5.583 -0.4747 -0.1021  0.5438
  166DOPC  H15X20197   1.759   3.566   5.568 -0.6956  0.2828 -3.0217
  166DOPC  H15Y20198   1.836   3.701   5.666 -0.9111  0.2091  0.8135
  166DOPC  C31620199   1.816   3.736   5.452  0.1088 -0.3197  0.1076
  166DOPC  H16X20200   1.900   3.680   5.405 -1.5229 -0.3636 -2.9874
  166DOPC  H16Y20201   1.731   3.726   5.381 -0.0295  0.8515  0.0806
  166DOPC  C31720202   1.832   3.893   5.460 -0.0507  0.6977 -0.1367
  166DOPC  H17X20203   1.744   3.936   5.511  0.4273  3.0806 -1.1849
  166DOPC  H17Y20204   1.908   3.922   5.536 -0.1284 -0.4647  0.4058
  166DOPC  C31820205   1.856   3.960   5.326  0.3597  0.2717  0.5158
  166DOPC  H18X20206   1.772   3.942   5.255 -0.1288  0.6830  0.9795
  166DOPC  H18Y20207   1.877   4.067   5.344  0.2864  0.2958  0.4585
  166DOPC  H18Z20208   1.941   3.918   5.269  1.3158  1.4774  1.0150
  167DOPC     N20209   1.279   0.197   7.188  0.2857 -0.4199 -0.0750
  167DOPC   C1220210   1.337   0.336   7.162  0.0247 -1.3870 -0.2608
  167DOPC  H12A20211   1.368   0.342   7.059 -1.8763 -2.2440 -0.9241
  167DOPC  H12B20212   1.429   0.348   7.218 -0.2602 -0.6342  0.0596
  167DOPC   C1320213   1.207   0.197   7.324  0.2271  0.1592 -0.3401
  167DOPC  H13A20214   1.150   0.109   7.349  2.4321 -0.6372  2.4992
  167DOPC  H13B20215   1.275   0.208   7.407 -0.2638 -0.1573  0.1136
  167DOPC  H13C20216   1.141   0.283   7.326 -2.0069 -1.4698  0.1623
  167DOPC   C1420217   1.375   0.085   7.177  0.6461  0.5209  0.5153
  167DOPC  H14A20218   1.459   0.090   7.245  0.9663 -1.8063  0.3595
  167DOPC  H14B20219   1.331  -0.014   7.176 -0.1007  0.8351 -1.1703
  167DOPC  H14C20220   1.423   0.093   7.081 -2.5690  1.7673 -1.1221
  167DOPC   C1520221   1.164   0.185   7.091  0.0029  0.3897 -0.3543
  167DOPC  H15A20222   1.116   0.090   7.108 -0.9336  1.1998  1.8923
  167DOPC  H15B20223   1.183   0.193   6.985  0.5566 -3.2727 -0.6444
  167DOPC  H15C20224   1.090   0.259   7.119 -1.0302 -0.4854 -0.6759
  167DOPC   C1120225   1.250   0.460   7.178  0.1165 -0.6667  0.2089
  167DOPC  H11A20226   1.204   0.466   7.279  1.8971  0.3942  1.0065
  167DOPC  H11B20227   1.316   0.549   7.173 -1.3272  0.4235 -0.1125
  167DOPC     P20228   1.070   0.605   7.056 -0.1924 -0.2395  0.3078
  167DOPC   O1320229   1.156   0.712   7.004  0.4883 -0.2356 -0.1607
  167DOPC   O1420230   1.002   0.635   7.180 -0.4568  0.3364 -0.8898
  167DOPC   O1220231   1.167   0.477   7.065  0.2651 -0.3693 -0.0800
  167DOPC   O1120232   0.959   0.565   6.950 -0.4030 -0.0131 -0.6791
  167DOPC    C120233   0.955   0.447   6.873 -0.5473  0.4591 -0.1974
  167DOPC    HA20234   0.903   0.369   6.933  3.2207 -2.3582 -0.3004
  167DOPC    HB20235   1.058   0.412   6.852 -0.7132  1.1545 -2.4802
  167DOPC    C220236   0.878   0.455   6.736 -0.8602 -0.1303  0.4850
  167DOPC    HS20237   0.876   0.353   6.694  3.3862 -0.5119  0.7207
  167DOPC   O2120238   0.948   0.544   6.647 -0.0744 -0.1848  0.0272
  167DOPC   C2120239   1.078   0.537   6.626 -0.5570  0.0709  0.3734
  167DOPC   O2220240   1.151   0.442   6.645  0.0351  0.3737  0.6283
  167DOPC   C2220241   1.126   0.664   6.545  0.4195  0.3489  0.5438
  167DOPC   H2R20242   1.045   0.739   6.545  1.8887  2.0579 -1.5385
  167DOPC   H2S20243   1.155   0.632   6.443 -0.8512 -1.3593  0.6674
  167DOPC    C320244   0.737   0.519   6.757  0.7725  0.9075  0.0463
  167DOPC    HX20245   0.731   0.628   6.777  2.3200  1.0972 -0.4435
  167DOPC    HY20246   0.685   0.476   6.845  1.4400 -0.9112 -0.4043
  167DOPC   O3120247   0.653   0.502   6.639 -0.1152  0.3064  0.2519
  167DOPC   C3120248   0.606   0.378   6.636  0.0375 -0.0129  0.2973
  167DOPC   O3220249   0.624   0.289   6.721  1.2693 -0.1711  0.3439
  167DOPC   C3220250   0.520   0.348   6.516  0.2044  0.2619  0.1512
  167DOPC   H2X20251   0.457   0.258   6.532 -1.5886  1.5544  0.6097
  167DOPC   H2Y20252   0.442   0.425   6.499 -1.1832 -1.2605 -0.5578
  167DOPC   C2320253   1.241   0.741   6.615 -0.4568 -0.5582 -0.6160
  167DOPC   H3R20254   1.309   0.664   6.656 -1.2221 -1.0694 -0.2811
  167DOPC   H3S20255   1.209   0.793   6.708  1.4306  0.5390 -0.5143
  167DOPC   C2420256   1.309   0.835   6.518  0.4486  0.1149  0.5559
  167DOPC   H4R20257   1.240   0.910   6.473 -0.7817 -0.2814  1.7406
  167DOPC   H4S20258   1.343   0.776   6.430 -1.4772  1.5151 -1.2413
  167DOPC   C2520259   1.414   0.923   6.590  0.4147  0.4465  0.1871
  167DOPC   H5R20260   1.466   0.863   6.667  0.4137  0.5723  0.2866
  167DOPC   H5S20261   1.362   1.007   6.641 -0.5904  1.1520 -1.8647
  167DOPC   C2620262   1.515   0.980   6.491  0.1554  0.4621  0.0137
  167DOPC   H6R20263   1.470   1.056   6.423 -0.6450 -0.8662 -0.9926
  167DOPC   H6S20264   1.549   0.896   6.426 -0.6231  0.5361 -0.5015
  167DOPC   C2720265   1.639   1.036   6.561 -0.0706 -0.1749 -0.1933
  167DOPC   H7R20266   1.657   0.967   6.646  1.2995  0.2342 -0.1248
  167DOPC   H7S20267   1.617   1.133   6.611  1.5519 -0.1794  0.5950
  167DOPC   C2820268   1.772   1.037   6.483 -0.7607  0.8085  0.2487
  167DOPC   H8R20269   1.792   0.934   6.447  1.7792  1.0479  0.8183
  167DOPC   H8S20270   1.859   1.046   6.552  0.3554  0.4959 -1.0823
  167DOPC   C2920271   1.809   1.150   6.388  0.2337  0.1438 -0.1473
  167DOPC   H9R20272   1.834   1.249   6.429  0.0039  0.6307 -1.1397
  167DOPC  C21020273   1.778   1.145   6.255 -0.0374 -0.1428  0.2098
  167DOPC  H10R20274   1.801   1.236   6.199 -0.2162 -0.7810 -0.9187
  167DOPC  C21120275   1.709   1.032   6.179  0.1681  0.6846 -0.0116
  167DOPC  H11R20276   1.615   1.001   6.229 -0.7412  0.5064 -1.7513
  167DOPC  H11S20277   1.769   0.939   6.185 -2.2670 -1.3094 -3.0251
  167DOPC  C21220278   1.675   1.062   6.029 -0.8435  0.4969  0.1250
  167DOPC  H12R20279   1.771   1.066   5.973 -1.4182  2.3036 -0.8067
  167DOPC  H12S20280   1.619   0.982   5.977  1.1877  0.3092 -1.9464
  167DOPC  C21320281   1.604   1.190   5.999  0.2047  0.3981 -0.3757
  167DOPC  H13R20282   1.678   1.274   6.002  1.1967 -0.4346  3.3984
  167DOPC  H13S20283   1.520   1.212   6.068 -0.0109  0.4653 -0.6550
  167DOPC  C21420284   1.539   1.191   5.858 -0.4489 -0.1937  0.7582
  167DOPC  H14R20285   1.467   1.110   5.834 -0.7738  0.6833 -1.5193
  167DOPC  H14S20286   1.623   1.183   5.786 -0.7413  0.5491  0.3241
  167DOPC  C21520287   1.471   1.329   5.833  0.1783  0.7659 -0.1160
  167DOPC  H15R20288   1.418   1.352   5.928  1.7210 -2.0814  1.5813
  167DOPC  H15S20289   1.396   1.310   5.753  0.1241 -2.0045  0.5114
  167DOPC  C21620290   1.563   1.433   5.776 -0.0247 -1.2518 -0.4723
  167DOPC  H16R20291   1.606   1.394   5.682 -1.1052  0.3658 -1.6925
  167DOPC  H16S20292   1.649   1.453   5.844 -0.7358 -1.0283  0.3892
  167DOPC  C21720293   1.489   1.562   5.747  0.0947 -0.3714  0.3041
  167DOPC  H17R20294   1.457   1.614   5.840 -1.2835 -0.4160 -0.1220
  167DOPC  H17S20295   1.397   1.552   5.687 -0.0629  0.5752  0.3768
  167DOPC  C21820296   1.584   1.667   5.680  0.8514  0.1629  0.1402
  167DOPC  H18R20297   1.540   1.769   5.672  2.1843  0.5807 -3.4310
  167DOPC  H18S20298   1.622   1.631   5.582  0.6795 -2.5982  0.9878
  167DOPC  H18T20299   1.677   1.684   5.737  0.0110 -0.3659  1.7308
  167DOPC   C3320300   0.594   0.331   6.381 -0.4741 -0.0528 -0.1089
  167DOPC   H3X20301   0.673   0.253   6.389  0.6159  0.9506 -0.6843
  167DOPC   H3Y20302   0.638   0.431   6.362 -0.5434 -0.2487 -1.3791
  167DOPC   C3420303   0.494   0.296   6.266 -0.4410  0.7705 -0.6923
  167DOPC   H4X20304   0.455   0.393   6.231  0.5555  1.4978  0.1499
  167DOPC   H4Y20305   0.415   0.231   6.310  1.9726 -1.5721  0.4694
  167DOPC   C3520306   0.571   0.230   6.151 -0.2135 -0.0797 -0.1625
  167DOPC   H5X20307   0.593   0.122   6.168  1.7445 -0.2097 -2.7684
  167DOPC   H5Y20308   0.667   0.284   6.145 -0.2970 -0.0506 -1.6000
  167DOPC   C3620309   0.497   0.268   6.024  0.3642 -0.0219 -0.4838
  167DOPC   H6X20310   0.393   0.231   6.034  0.9889 -1.5898  0.5317
  167DOPC   H6Y20311   0.505   0.379   6.021 -0.2985  0.0981  1.1569
  167DOPC   C3720312   0.561   0.188   5.909  0.4000 -0.6343 -0.4248
  167DOPC   H7X20313   0.666   0.161   5.933  0.8332  0.5906 -0.8982
  167DOPC   H7Y20314   0.511   0.090   5.895 -1.1255  0.3233 -1.9931
  167DOPC   C3820315   0.566   0.268   5.778  0.8756 -0.7043 -0.2271
  167DOPC   H8X20316   0.625   0.212   5.702  1.7954  0.5852 -0.4953
  167DOPC   H8Y20317   0.617   0.365   5.791  0.9162 -0.9579  1.7117
  167DOPC   C3920318   0.422   0.298   5.736  0.6069 -0.4665 -0.6098
  167DOPC   H9X20319   0.360   0.326   5.822 -0.1032 -2.8038 -0.2718
  167DOPC  C31020320   0.367   0.286   5.614 -0.0315 -0.0328  0.9216
  167DOPC  H10X20321   0.267   0.328   5.594  0.2431 -0.3736 -1.3935
  167DOPC  C31120322   0.436   0.230   5.494  0.1906  0.9077  0.5872
  167DOPC  H11X20323   0.364   0.189   5.420  1.7993  1.1301 -1.1392
  167DOPC  H11Y20324   0.490   0.137   5.523  1.9411  1.2888 -1.2685
  167DOPC  C31220325   0.537   0.319   5.427  0.0850 -0.2240  0.0832
  167DOPC  H12X20326   0.556   0.274   5.327  1.3631  1.0663 -0.2941
  167DOPC  H12Y20327   0.630   0.342   5.482  0.6087  0.2209 -0.9483
  167DOPC  C31320328   0.466   0.453   5.385 -0.7773 -0.7244 -0.0087
  167DOPC  H13X20329   0.360   0.436   5.358 -0.4338 -0.3154 -1.7694
  167DOPC  H13Y20330   0.481   0.524   5.469 -1.7416 -2.1994  1.4847
  167DOPC  C31420331   0.529   0.512   5.259  0.0869  0.0095  0.4425
  167DOPC  H14X20332   0.490   0.457   5.170 -0.7512  3.2602 -1.3772
  167DOPC  H14Y20333   0.492   0.616   5.243  0.6309  0.0374 -0.7004
  167DOPC  C31520334   0.678   0.513   5.261  0.2721 -0.3553 -0.4348
  167DOPC  H15X20335   0.736   0.421   5.238 -0.4134 -0.4286 -2.0452
  167DOPC  H15Y20336   0.717   0.561   5.353  1.5962 -0.1763 -1.0605
  167DOPC  C31620337   0.745   0.605   5.148 -0.1288 -0.4060  0.3358
  167DOPC  H16X20338   0.701   0.580   5.050  1.7695  1.8221 -1.2116
  167DOPC  H16Y20339   0.718   0.710   5.173  2.2483  0.2660  0.3057
  167DOPC  C31720340   0.902   0.602   5.139 -0.4165  0.2195  0.0296
  167DOPC  H17X20341   0.942   0.629   5.239 -0.0346 -2.8221  0.7885
  167DOPC  H17Y20342   0.932   0.497   5.118 -1.4205  0.1113 -0.9269
  167DOPC  C31820343   0.954   0.701   5.031 -0.4014  0.0134  0.3698
  167DOPC  H18X20344   1.064   0.689   5.019 -0.4180 -0.6903  0.8718
  167DOPC  H18Y20345   0.892   0.680   4.941 -2.0240  1.7269  1.0123
  167DOPC  H18Z20346   0.922   0.805   5.055 -1.2199  0.1069 -1.0099
  168DOPC     N20347   2.999   0.509   7.251 -0.5728  0.3738  0.0565
  168DOPC   C1220348   3.085   0.404   7.176  0.5741 -0.1107  0.1890
  168DOPC  H12A20349   3.147   0.365   7.256  1.2773  0.5112 -0.0422
  168DOPC  H12B20350   3.149   0.464   7.114 -0.2205 -1.6206 -2.1944
  168DOPC   C1320351   3.087   0.614   7.317  0.6743 -0.8705 -0.2919
  168DOPC  H13A20352   3.027   0.695   7.357  0.0985 -0.6108 -1.6305
  168DOPC  H13B20353   3.141   0.581   7.405  2.0321  4.1780  1.1086
  168DOPC  H13C20354   3.160   0.656   7.249  0.2722  0.1117 -0.1314
  168DOPC   C1420355   2.916   0.450   7.357  0.0836  0.7871 -0.5633
  168DOPC  H14A20356   2.972   0.416   7.443 -0.4058 -0.5108 -0.7215
  168DOPC  H14B20357   2.846   0.519   7.402  0.6455 -0.9433  3.3932
  168DOPC  H14C20358   2.853   0.371   7.318  0.3155  0.5058 -0.3713
  168DOPC   C1520359   2.908   0.578   7.155  0.6312 -0.4710  0.7701
  168DOPC  H15A20360   2.963   0.653   7.100  0.5698 -0.8621  0.1624
  168DOPC  H15B20361   2.830   0.621   7.216 -2.9041 -2.2599 -2.0743
  168DOPC  H15C20362   2.861   0.511   7.084  2.4103 -0.4956 -0.4295
  168DOPC   C1120363   3.016   0.300   7.089 -0.2371 -0.2296  0.3600
  168DOPC  H11A20364   2.940   0.247   7.150 -1.7331 -1.1990 -2.1717
  168DOPC  H11B20365   2.969   0.334   6.994 -0.7516 -3.2871 -0.5828
  168DOPC     P20366   3.172   0.153   6.935 -0.2992 -0.0698 -0.6794
  168DOPC   O1320367   3.216   0.009   6.954 -0.3581 -0.8321  0.7177
  168DOPC   O1420368   3.274   0.245   6.899  0.2157 -0.0662 -0.0915
  168DOPC   O1220369   3.112   0.193   7.073  0.5044 -0.2897 -0.2621
  168DOPC   O1120370   3.047   0.159   6.840 -0.3469 -0.0541 -0.2556
  168DOPC    C120371   2.931   0.084   6.862  0.2021  0.4492 -0.2420
  168DOPC    HA20372   2.844   0.138   6.820 -1.5212 -1.0243  1.2477
  168DOPC    HB20373   2.903   0.074   6.969 -2.0693  3.1744 -0.4738
  168DOPC    C220374   2.925  -0.059   6.797 -1.2368 -0.1260 -0.1278
  168DOPC    HS20375   2.992  -0.126   6.855 -1.1544  0.2512  0.2124
  168DOPC   O2120376   2.958  -0.050   6.659  0.3048 -0.0665 -0.1078
  168DOPC   C2120377   3.059  -0.116   6.624  0.4256 -0.1999 -0.5839
  168DOPC   O2220378   3.114  -0.204   6.689  0.1289  0.0659 -0.2685
  168DOPC   C2220379   3.087  -0.074   6.472  0.6317 -1.3363  0.0849
  168DOPC   H2R20380   3.106   0.035   6.467 -1.7969 -0.9200 -1.6111
  168DOPC   H2S20381   2.987  -0.095   6.429 -0.2594  2.1792  0.1576
  168DOPC    C320382   2.783  -0.114   6.809 -0.1272 -0.2948  0.0793
  168DOPC    HX20383   2.708  -0.044   6.766  0.1134 -1.0770 -1.6621
  168DOPC    HY20384   2.754  -0.118   6.916 -0.4172  1.6799  0.1219
  168DOPC   O3120385   2.776  -0.249   6.753 -0.9524 -0.6487 -0.4333
  168DOPC   C3120386   2.720  -0.255   6.629  0.5209 -0.2268 -0.1721
  168DOPC   O3220387   2.666  -0.163   6.576 -0.1345 -0.1498  0.4512
  168DOPC   C3220388   2.712  -0.400   6.584 -0.0940  0.2299  0.2357
  168DOPC   H2X20389   2.789  -0.452   6.645 -0.4598  1.1393  1.5215
  168DOPC   H2Y20390   2.610  -0.439   6.601 -0.0964  0.1379  0.0094
  168DOPC   C2320391   3.200  -0.135   6.397  0.2608  0.3628 -0.0835
  168DOPC   H3R20392   3.283  -0.129   6.471 -2.3070  3.1312  2.9302
  168DOPC   H3S20393   3.217  -0.080   6.302  0.3943  0.7738  0.1775
  168DOPC   C2420394   3.174  -0.283   6.358  0.1364  0.6394 -0.1858
  168DOPC   H4R20395   3.075  -0.292   6.308  0.3292  1.0066 -0.6321
  168DOPC   H4S20396   3.177  -0.351   6.447 -1.8226 -1.2509 -1.4586
  168DOPC   C2520397   3.270  -0.333   6.254 -0.1184 -0.4469  0.6308
  168DOPC   H5R20398   3.367  -0.332   6.309 -0.7966  0.7084  1.8761
  168DOPC   H5S20399   3.274  -0.264   6.167 -1.7962  1.0301  1.6421
  168DOPC   C2620400   3.242  -0.477   6.200 -0.1954  0.0276 -0.3406
  168DOPC   H6R20401   3.144  -0.479   6.147  0.8454  0.2247 -2.3837
  168DOPC   H6S20402   3.241  -0.549   6.284  0.3145  0.8460  0.3899
  168DOPC   C2720403   3.346  -0.524   6.094 -0.1482  0.6860 -0.2824
  168DOPC   H7R20404   3.446  -0.506   6.140 -0.1348  0.8542 -0.3761
  168DOPC   H7S20405   3.350  -0.445   6.016  2.7892  1.7665  0.7991
  168DOPC   C2820406   3.339  -0.665   6.048  0.4737 -0.0429  0.1768
  168DOPC   H8R20407   3.372  -0.726   6.135  1.0841 -0.6448 -0.4569
  168DOPC   H8S20408   3.404  -0.685   5.960 -0.7042 -0.1510 -0.6940
  168DOPC   C2920409   3.194  -0.699   6.016  0.0386  0.5793  0.1855
  168DOPC   H9R20410   3.143  -0.751   6.098  2.6477  0.4008  1.8258
  168DOPC  C21020411   3.120  -0.662   5.909 -0.2282 -0.6495 -0.4766
  168DOPC  H10R20412   3.014  -0.693   5.905  0.0715 -1.5913 -2.4565
  168DOPC  C21120413   3.172  -0.592   5.781 -0.7268  0.1525  0.2568
  168DOPC  H11R20414   3.190  -0.670   5.705 -0.9501 -0.6762  1.0366
  168DOPC  H11S20415   3.273  -0.551   5.800 -0.4678 -0.7860  0.9569
  168DOPC  C21220416   3.081  -0.491   5.724  0.5205 -0.4936  0.3183
  168DOPC  H12R20417   2.980  -0.519   5.685  0.7300  1.2476 -1.6084
  168DOPC  H12S20418   3.123  -0.436   5.638 -3.9341  0.5663 -1.4724
  168DOPC  C21320419   3.070  -0.381   5.832  0.7732  0.3126  0.0622
  168DOPC  H13R20420   3.173  -0.368   5.872  1.5981  0.6846 -2.0446
  168DOPC  H13S20421   3.003  -0.422   5.910 -0.6768 -0.8224 -1.7193
  168DOPC  C21420422   3.012  -0.251   5.779  0.3070  0.4248 -0.4177
  168DOPC  H14R20423   2.914  -0.278   5.733 -1.0978  0.4864  2.3180
  168DOPC  H14S20424   3.075  -0.207   5.699 -1.9501 -0.1630 -2.6471
  168DOPC  C21520425   3.003  -0.145   5.889  0.2018  0.6949  0.1398
  168DOPC  H15R20426   2.956  -0.051   5.855 -2.0551  0.4615  2.2882
  168DOPC  H15S20427   3.104  -0.124   5.930  1.0181 -1.0443 -0.8567
  168DOPC  C21620428   2.913  -0.187   6.008  0.2343 -0.3761  0.0366
  168DOPC  H16R20429   2.945  -0.280   6.061 -2.1626 -0.8735  0.7204
  168DOPC  H16S20430   2.808  -0.196   5.975  0.9890  1.6270 -3.3255
  168DOPC  C21720431   2.913  -0.087   6.119 -0.8405 -0.2671 -0.3274
  168DOPC  H17R20432   2.869   0.008   6.082  0.1835 -0.1892 -1.3961
  168DOPC  H17S20433   3.014  -0.055   6.151  0.2542 -1.0322 -2.7703
  168DOPC  C21820434   2.819  -0.130   6.233  1.4145 -0.0800  0.5943
  168DOPC  H18R20435   2.778  -0.038   6.280  2.0675  0.0012  1.0222
  168DOPC  H18S20436   2.872  -0.192   6.309  1.1783 -0.1916  0.6709
  168DOPC  H18T20437   2.735  -0.195   6.201  0.1925  1.4255  0.6167
  168DOPC   C3320438   2.748  -0.419   6.427 -0.2376 -0.4392 -0.1494
  168DOPC   H3X20439   2.853  -0.386   6.413  0.1530 -1.5907 -0.0136
  168DOPC   H3Y20440   2.672  -0.348   6.387 -0.1908 -1.0189 -1.3171
  168DOPC   C3420441   2.725  -0.553   6.372 -0.4355  0.1588 -0.5581
  168DOPC   H4X20442   2.630  -0.607   6.391 -0.7934  0.6194 -1.0361
  168DOPC   H4Y20443   2.794  -0.623   6.424  1.0272  1.1099 -1.1458
  168DOPC   C3520444   2.739  -0.559   6.222  0.2177  0.3969  0.2330
  168DOPC   H5X20445   2.738  -0.665   6.188  0.6701  0.5992 -0.4148
  168DOPC   H5Y20446   2.836  -0.517   6.188  0.0928  1.3355  1.0070
  168DOPC   C3620447   2.621  -0.495   6.141 -1.0360 -0.5073  0.2364
  168DOPC   H6X20448   2.520  -0.536   6.161 -2.2128  1.2300 -1.8147
  168DOPC   H6Y20449   2.630  -0.387   6.169 -0.3584 -0.3037 -0.7321
  168DOPC   C3720450   2.654  -0.498   5.990 -0.7246 -0.2849 -0.3251
  168DOPC   H7X20451   2.744  -0.435   5.972  0.5152 -2.0439 -0.6224
  168DOPC   H7Y20452   2.694  -0.599   5.966  1.4047  0.5124 -0.3962
  168DOPC   C3820453   2.547  -0.447   5.890  0.4953 -0.2955 -0.5208
  168DOPC   H8X20454   2.558  -0.337   5.888 -1.1389 -0.0728  0.7124
  168DOPC   H8Y20455   2.442  -0.458   5.925 -0.0984  3.7865 -0.5515
  168DOPC   C3920456   2.550  -0.518   5.760 -0.1445 -0.1799  0.3925
  168DOPC   H9X20457   2.520  -0.624   5.755 -1.2428  0.1626 -0.6108
  168DOPC  C31020458   2.598  -0.466   5.642  1.0852 -0.6408  0.5344
  168DOPC  H10X20459   2.592  -0.518   5.545  1.1819 -0.8483  0.6393
  168DOPC  C31120460   2.637  -0.318   5.625  0.5603 -0.3616 -0.0034
  168DOPC  H11X20461   2.737  -0.312   5.577  1.3069 -1.0198  1.4168
  168DOPC  H11Y20462   2.648  -0.263   5.721 -0.1879  0.8505 -0.5807
  168DOPC  C31220463   2.524  -0.249   5.549 -0.5390  0.5581 -0.6211
  168DOPC  H12X20464   2.550  -0.147   5.586 -0.2469 -0.0201  0.8492
  168DOPC  H12Y20465   2.423  -0.257   5.596  0.5857  0.1137  1.8902
  168DOPC  C31320466   2.531  -0.236   5.393  0.1914  0.0823  0.2203
  168DOPC  H13X20467   2.637  -0.243   5.361 -0.1605  1.4476 -1.3912
  168DOPC  H13Y20468   2.470  -0.315   5.344  0.1829  0.0902  0.2181
  168DOPC  C31420469   2.498  -0.101   5.339 -0.3241  0.0517 -0.0586
  168DOPC  H14X20470   2.400  -0.068   5.379 -1.4193 -1.0081 -1.7359
  168DOPC  H14Y20471   2.567  -0.018   5.363  1.4031 -1.4540  0.3743
  168DOPC  C31520472   2.490  -0.094   5.184 -0.4114 -0.7766  1.1236
  168DOPC  H15X20473   2.421  -0.171   5.144 -0.2495 -0.3829  0.0403
  168DOPC  H15Y20474   2.596  -0.109   5.154 -0.9868 -1.1441 -0.8312
  168DOPC  C31620475   2.440   0.047   5.129 -0.1437  0.1581  0.7058
  168DOPC  H16X20476   2.330   0.035   5.119 -0.0063 -1.3286  0.6364
  168DOPC  H16Y20477   2.456   0.131   5.199  2.2170 -0.0441  0.4979
  168DOPC  C31720478   2.496   0.082   4.992 -0.0424  0.2677 -0.3991
  168DOPC  H17X20479   2.603   0.112   5.003  0.6450 -1.7827 -1.1432
  168DOPC  H17Y20480   2.498  -0.007   4.927 -1.0001 -0.6307  0.7554
  168DOPC  C31820481   2.430   0.197   4.925  0.9952  0.4692 -0.1562
  168DOPC  H18X20482   2.320   0.197   4.911  1.1926  0.4256 -2.0436
  168DOPC  H18Y20483   2.447   0.284   4.992  1.3268 -1.1984  2.0473
  168DOPC  H18Z20484   2.478   0.231   4.830  0.1549  1.6240 -0.1887
  169DOPC     N20485   0.981   1.520   6.956  0.3004  0.2572  0.4343
  169DOPC   C1220486   1.121   1.536   6.917 -0.2747  0.0041 -0.2474
  169DOPC  H12A20487   1.152   1.472   6.836  1.5609 -1.2198  1.3309
  169DOPC  H12B20488   1.186   1.506   6.998 -2.6016  0.0570  1.7896
  169DOPC   C1320489   0.882   1.554   6.848 -0.1415  0.5142  0.8029
  169DOPC  H13A20490   0.778   1.538   6.875 -0.3021  0.2514  0.0518
  169DOPC  H13B20491   0.898   1.658   6.821 -1.1261  0.2191 -1.1399
  169DOPC  H13C20492   0.904   1.498   6.758  1.5063  0.7621  1.0225
  169DOPC   C1420493   0.948   1.605   7.070 -0.2156 -0.1538 -0.2122
  169DOPC  H14A20494   0.960   1.711   7.051  0.2868  0.1209  1.4993
  169DOPC  H14B20495   0.846   1.589   7.100  0.3599 -0.2196  1.8037
  169DOPC  H14C20496   1.008   1.576   7.155 -1.8517 -1.9254  0.3952
  169DOPC   C1520497   0.950   1.376   6.989  0.1562 -0.9421  0.2659
  169DOPC  H15A20498   0.850   1.373   7.030  0.2889  1.8432  1.0018
  169DOPC  H15B20499   1.015   1.346   7.071 -0.4315 -1.2879  0.6087
  169DOPC  H15C20500   0.970   1.308   6.907  2.7121 -2.6492  2.1320
  169DOPC   C1120501   1.161   1.681   6.887  0.2068 -0.5534 -0.5805
  169DOPC  H11A20502   1.086   1.729   6.820  0.3542  1.3286  0.5221
  169DOPC  H11B20503   1.174   1.743   6.978 -1.2918  0.7295 -1.1863
  169DOPC     P20504   1.288   1.718   6.659 -0.1102 -0.2865  0.5076
  169DOPC   O1320505   1.303   1.867   6.646  0.7096 -0.4727 -0.1841
  169DOPC   O1420506   1.180   1.646   6.589  0.0028  0.1218  0.2645
  169DOPC   O1220507   1.280   1.683   6.817  0.3479 -0.3785 -0.2235
  169DOPC   O1120508   1.422   1.653   6.617 -0.0316  0.3255 -0.5112
  169DOPC    C120509   1.464   1.519   6.649  0.0998  0.0888 -0.5847
  169DOPC    HA20510   1.424   1.483   6.746  3.5170  0.5571  1.1659
  169DOPC    HB20511   1.573   1.527   6.669 -0.3293  1.6105  1.5040
  169DOPC    C220512   1.444   1.411   6.536  0.3244 -0.0339  0.2496
  169DOPC    HS20513   1.512   1.330   6.570  1.5287  0.6314 -0.4865
  169DOPC   O2120514   1.471   1.478   6.414  0.0552 -0.3943  0.7472
  169DOPC   C2120515   1.604   1.502   6.393  0.4750 -0.0478 -0.6151
  169DOPC   O2220516   1.690   1.453   6.463  0.3442  0.1798  0.2410
  169DOPC   C2220517   1.628   1.594   6.282 -0.5232  0.0292 -0.3029
  169DOPC   H2R20518   1.696   1.533   6.218 -3.9764 -3.6125 -0.8867
  169DOPC   H2S20519   1.685   1.682   6.318 -1.5632  2.3051 -3.7594
  169DOPC    C320520   1.300   1.346   6.551 -0.1788 -0.3451  0.0125
  169DOPC    HX20521   1.225   1.426   6.535  1.3874  1.2414  0.3600
  169DOPC    HY20522   1.294   1.320   6.659  1.2116  0.6821  0.3669
  169DOPC   O3120523   1.273   1.236   6.457 -0.4094 -0.1902 -0.0463
  169DOPC   C3120524   1.220   1.280   6.342 -0.2063 -0.4975  0.1082
  169DOPC   O3220525   1.184   1.394   6.322 -0.2851  0.3944 -1.1815
  169DOPC   C3220526   1.198   1.172   6.236 -0.1739 -0.3819 -0.5422
  169DOPC   H2X20527   1.296   1.119   6.227  0.3618  0.0070  2.2226
  169DOPC   H2Y20528   1.123   1.098   6.271  0.0180 -0.0628  0.5829
  169DOPC   C2320529   1.509   1.637   6.208  0.7576  0.3449  0.7692
  169DOPC   H3R20530   1.443   1.691   6.280  2.3981 -0.2601  2.7888
  169DOPC   H3S20531   1.437   1.556   6.183  0.6433  0.1607  1.6801
  169DOPC   C2420532   1.546   1.724   6.085  0.2773  0.0439 -0.2556
  169DOPC   H4R20533   1.447   1.752   6.043  0.6888  1.7492 -0.1594
  169DOPC   H4S20534   1.596   1.651   6.018  0.3216  0.0328 -0.2105
  169DOPC   C2520535   1.633   1.847   6.112  0.2558 -0.0887 -0.7636
  169DOPC   H5R20536   1.731   1.821   6.156 -0.4272 -1.3549  0.0592
  169DOPC   H5S20537   1.565   1.891   6.189  1.8353  1.3166 -0.1012
  169DOPC   C2620538   1.643   1.945   5.995 -0.1513 -0.2161 -0.1513
  169DOPC   H6R20539   1.705   1.910   5.909  0.0943  0.8732 -0.4375
  169DOPC   H6S20540   1.688   2.036   6.041 -3.8186  0.5634  2.3153
  169DOPC   C2720541   1.507   2.000   5.948  0.2087  0.3561  0.3226
  169DOPC   H7R20542   1.445   2.034   6.035  0.4525  1.7152 -0.0136
  169DOPC   H7S20543   1.448   1.929   5.887  2.9976 -0.2182 -1.8572
  169DOPC   C2820544   1.514   2.122   5.857  0.3960 -0.4390  0.4866
  169DOPC   H8R20545   1.414   2.144   5.812 -0.3316  1.6409  2.8300
  169DOPC   H8S20546   1.585   2.091   5.777  2.3545  0.3974  1.8233
  169DOPC   C2920547   1.557   2.251   5.920  1.0960 -0.4009  0.1958
  169DOPC   H9R20548   1.480   2.294   5.986 -1.0374 -2.3806 -0.8613
  169DOPC  C21020549   1.676   2.298   5.932  0.1575  0.9636 -0.4279
  169DOPC  H10R20550   1.695   2.387   5.994  1.0775  0.5208 -0.0508
  169DOPC  C21120551   1.797   2.245   5.868 -0.1109 -0.0384 -0.5080
  169DOPC  H11R20552   1.779   2.161   5.798  1.7151 -0.0044 -1.0700
  169DOPC  H11S20553   1.876   2.206   5.936  0.6376 -0.6328 -1.6726
  169DOPC  C21220554   1.856   2.349   5.774  0.9070 -0.0726  0.2640
  169DOPC  H12R20555   1.892   2.430   5.840  0.8624 -0.4152  0.7122
  169DOPC  H12S20556   1.782   2.390   5.701 -0.2667 -0.7496  1.0441
  169DOPC  C21320557   1.977   2.305   5.690 -0.2382 -0.5291  1.4050
  169DOPC  H13R20558   1.945   2.231   5.612  0.1481  1.9037 -1.2102
  169DOPC  H13S20559   2.056   2.267   5.758  2.0570 -0.4595 -1.0411
  169DOPC  C21420560   2.034   2.425   5.610 -0.1260  0.3005  0.3428
  169DOPC  H14R20561   2.128   2.397   5.558 -0.6181 -0.2733 -0.2674
  169DOPC  H14S20562   2.060   2.503   5.684 -5.3542  1.3977  1.3768
  169DOPC  C21520563   1.931   2.491   5.519 -0.3767  0.0497 -0.3323
  169DOPC  H15R20564   1.856   2.551   5.575  0.7541  1.1420  0.0514
  169DOPC  H15S20565   1.867   2.414   5.471 -3.3190  0.6484  2.2538
  169DOPC  C21620566   1.991   2.597   5.423 -0.3130  0.5071  0.4042
  169DOPC  H16R20567   2.030   2.679   5.486  0.2881  1.4735 -1.1644
  169DOPC  H16S20568   1.913   2.647   5.362 -0.4224  1.5817  1.3937
  169DOPC  C21720569   2.097   2.541   5.323 -0.2277 -0.0308  0.2709
  169DOPC  H17R20570   2.050   2.458   5.265 -2.0226  0.5897  0.7705
  169DOPC  H17S20571   2.184   2.508   5.383 -1.5688 -1.0784  1.7361
  169DOPC  C21820572   2.139   2.645   5.214 -0.0129 -0.9322 -0.2248
  169DOPC  H18R20573   2.137   2.751   5.248  0.7073 -1.3361  1.1735
  169DOPC  H18S20574   2.062   2.633   5.135 -0.6656  0.5809  0.1372
  169DOPC  H18T20575   2.237   2.623   5.168  0.0742  0.9782 -1.0205
  169DOPC   C3320576   1.177   1.242   6.095 -0.3922 -0.5362 -0.7170
  169DOPC   H3X20577   1.258   1.315   6.074 -0.1355 -0.0901  1.5402
  169DOPC   H3Y20578   1.080   1.295   6.101  0.1453  0.6482 -1.8344
  169DOPC   C3420579   1.162   1.136   5.983 -0.4273 -0.0186  0.2869
  169DOPC   H4X20580   1.108   1.046   6.020  1.5269 -1.5156 -0.3291
  169DOPC   H4Y20581   1.262   1.101   5.951 -0.6113 -0.7483  0.4858
  169DOPC   C3520582   1.092   1.199   5.862 -0.1807  0.0826 -0.3652
  169DOPC   H5X20583   1.129   1.302   5.845  1.7240 -0.7975 -2.1321
  169DOPC   H5Y20584   0.983   1.200   5.878 -0.0967  0.6476  0.1878
  169DOPC   C3620585   1.122   1.139   5.724 -0.1442 -0.9363  0.3633
  169DOPC   H6X20586   1.224   1.146   5.682 -0.2754 -2.1692 -0.2097
  169DOPC   H6Y20587   1.090   1.032   5.727 -1.9111 -0.4664 -0.2476
  169DOPC   C3720588   1.027   1.182   5.613 -0.3860  0.3141  0.1642
  169DOPC   H7X20589   1.053   1.120   5.524  1.2692  0.3934  0.5688
  169DOPC   H7Y20590   0.921   1.154   5.632 -0.8694  2.2049  0.5327
  169DOPC   C3820591   1.038   1.332   5.575  0.1160  0.3979  0.5451
  169DOPC   H8X20592   0.988   1.388   5.657 -1.1328 -2.7860  2.1481
  169DOPC   H8Y20593   0.984   1.364   5.484  2.6379 -0.1686 -1.2601
  169DOPC   C3920594   1.184   1.380   5.569  0.4865  0.4245 -0.2399
  169DOPC   H9X20595   1.217   1.417   5.667 -0.8614 -1.3760  0.9466
  169DOPC  C31020596   1.248   1.427   5.465  0.1140 -0.1137  0.4759
  169DOPC  H10X20597   1.357   1.435   5.472  0.1783 -0.6595  0.2264
  169DOPC  C31120598   1.192   1.416   5.330  0.7837 -0.3820 -0.0771
  169DOPC  H11X20599   1.110   1.491   5.320  0.3829 -0.8702 -0.5399
  169DOPC  H11Y20600   1.152   1.314   5.312  3.4254 -1.1896 -2.0885
  169DOPC  C31220601   1.300   1.436   5.224  0.0928 -0.2716 -0.0302
  169DOPC  H12X20602   1.365   1.347   5.235 -2.1485 -1.8141  1.7593
  169DOPC  H12Y20603   1.358   1.531   5.228 -2.2183  1.2752 -1.2265
  169DOPC  C31320604   1.232   1.432   5.084 -0.5646  0.1928 -1.1074
  169DOPC  H13X20605   1.169   1.341   5.076  0.1468 -0.3621 -0.4980
  169DOPC  H13Y20606   1.166   1.520   5.066  1.1923  1.9787  0.6887
  169DOPC  C31420607   1.337   1.421   4.970  0.4575  0.4704  0.5498
  169DOPC  H14X20608   1.388   1.322   4.975  0.9091  0.7177  0.9718
  169DOPC  H14Y20609   1.273   1.414   4.880 -0.2159 -0.9058  1.0923
  169DOPC  C31520610   1.434   1.541   4.954  0.4579 -0.0397  0.2758
  169DOPC  H15X20611   1.422   1.623   5.028 -0.8864  1.1298 -1.1917
  169DOPC  H15Y20612   1.426   1.596   4.859 -0.5151 -1.6043 -0.5951
  169DOPC  C31620613   1.578   1.492   4.955 -0.1858  0.0320 -0.2813
  169DOPC  H16X20614   1.601   1.441   5.052  3.2232  2.2759  0.2811
  169DOPC  H16Y20615   1.583   1.417   4.874 -2.3961  0.2248 -0.6518
  169DOPC  C31720616   1.684   1.599   4.931 -0.3767 -0.7508 -0.0348
  169DOPC  H17X20617   1.786   1.555   4.936  0.1126  0.4649  1.3308
  169DOPC  H17Y20618   1.675   1.648   4.832  1.4578 -2.4469 -1.1261
  169DOPC  C31820619   1.692   1.717   5.031  0.2622 -0.0032  0.6332
  169DOPC  H18X20620   1.594   1.754   5.068  0.7457  1.6859  0.3072
  169DOPC  H18Y20621   1.746   1.673   5.118 -1.8454 -3.3728  0.4230
  169DOPC  H18Z20622   1.765   1.796   5.002 -0.4037  2.0874  4.0358
  170DOPC     N20623   0.313   1.641   7.349 -0.5059  0.1710 -0.2994
  170DOPC   C1220624   0.345   1.511   7.281  0.1077  0.2974 -0.2889
  170DOPC  H12A20625   0.356   1.430   7.352 -0.0307 -0.5893 -1.2602
  170DOPC  H12B20626   0.446   1.527   7.245  0.8583 -1.5844  0.8005
  170DOPC   C1320627   0.306   1.755   7.258 -0.1011  0.0621 -0.4527
  170DOPC  H13A20628   0.259   1.842   7.302 -0.4010 -0.4100  0.1647
  170DOPC  H13B20629   0.403   1.771   7.213  0.0317 -1.1076 -0.6156
  170DOPC  H13C20630   0.236   1.731   7.179  0.2944 -1.3722 -0.3803
  170DOPC   C1420631   0.416   1.664   7.454 -0.1288  0.3078  0.3755
  170DOPC  H14A20632   0.403   1.767   7.482 -1.2517  1.3346 -3.4688
  170DOPC  H14B20633   0.410   1.596   7.538  0.8393 -0.2478  0.0098
  170DOPC  H14C20634   0.513   1.636   7.414  0.1539 -0.3396  1.4681
  170DOPC   C1520635   0.186   1.619   7.414  0.4765  0.1507  0.6430
  170DOPC  H15A20636   0.192   1.544   7.491  0.3911  1.7042  2.2404
  170DOPC  H15B20637   0.114   1.580   7.344 -0.2679  1.3075  0.7328
  170DOPC  H15C20638   0.149   1.710   7.460 -0.5628 -0.4360  0.9942
  170DOPC   C1120639   0.269   1.461   7.158  0.9583  0.1062  0.5731
  170DOPC  H11A20640   0.293   1.543   7.086  0.3872  0.3728  0.6778
  170DOPC  H11B20641   0.305   1.368   7.110  0.6868  0.3453 -0.1205
  170DOPC     P20642   0.022   1.510   7.079  0.0234  0.3275 -0.0391
  170DOPC   O1320643  -0.021   1.633   7.141 -0.3278 -0.4141  0.2147
  170DOPC   O1420644  -0.074   1.404   7.050  0.1848 -0.0268 -0.4323
  170DOPC   O1220645   0.129   1.439   7.173 -0.0189  0.4028 -0.2991
  170DOPC   O1120646   0.107   1.548   6.950  0.6091  0.1502 -0.2334
  170DOPC    C120647   0.120   1.456   6.839  0.5252  0.5303 -0.1771
  170DOPC    HA20648   0.117   1.348   6.863 -1.6527  0.6767  0.3977
  170DOPC    HB20649   0.217   1.478   6.790  1.5734 -2.3004  0.4391
  170DOPC    C220650   0.006   1.468   6.732  0.7248 -0.0414 -0.6080
  170DOPC    HS20651   0.039   1.415   6.641 -2.0440 -2.9141 -0.1081
  170DOPC   O2120652  -0.018   1.609   6.708  0.4195  0.0604  0.0304
  170DOPC   C2120653  -0.054   1.643   6.594  0.0538  0.1243  0.6065
  170DOPC   O2220654  -0.068   1.567   6.496 -0.0928  0.6067 -0.1440
  170DOPC   C2220655  -0.085   1.798   6.596 -0.0350 -0.3606 -0.1825
  170DOPC   H2R20656  -0.038   1.857   6.678 -2.5410  0.4356  0.7837
  170DOPC   H2S20657  -0.193   1.802   6.622 -0.2835 -1.0817 -1.0400
  170DOPC    C320658  -0.139   1.397   6.772 -0.6809 -0.6964 -0.2758
  170DOPC    HX20659  -0.190   1.470   6.837  0.2970  2.5892 -2.9364
  170DOPC    HY20660  -0.111   1.306   6.830  0.7954 -1.5896 -2.2562
  170DOPC   O3120661  -0.224   1.380   6.660 -0.7088  0.2796  0.2209
  170DOPC   C3120662  -0.197   1.290   6.571  0.2362 -0.5708  0.1261
  170DOPC   O3220663  -0.115   1.206   6.583 -0.0279 -0.1458 -0.6414
  170DOPC   C3220664  -0.270   1.326   6.443  0.5157  0.1071  0.3104
  170DOPC   H2X20665  -0.370   1.277   6.450  0.3966  0.5195  1.8517
  170DOPC   H2Y20666  -0.289   1.435   6.431 -2.4663 -0.4553 -0.9951
  170DOPC   C2320667  -0.072   1.870   6.459 -0.5650  0.2842  0.0049
  170DOPC   H3R20668  -0.068   1.802   6.371 -1.2485 -0.0220  0.2048
  170DOPC   H3S20669   0.020   1.932   6.467  0.5649 -1.2339 -0.7441
  170DOPC   C2420670  -0.191   1.969   6.439  0.3730 -0.2827  0.2996
  170DOPC   H4R20671  -0.205   2.046   6.517 -0.1055  0.6960 -0.7308
  170DOPC   H4S20672  -0.287   1.913   6.434  1.8165 -3.0166  1.2773
  170DOPC   C2520673  -0.189   2.038   6.300  0.0807  0.4454  0.7667
  170DOPC   H5R20674  -0.174   1.956   6.225 -0.2533  1.4015 -0.3773
  170DOPC   H5S20675  -0.108   2.112   6.286 -0.6312  1.0102 -0.6315
  170DOPC   C2620676  -0.318   2.111   6.256 -0.2012 -0.0271 -0.0189
  170DOPC   H6R20677  -0.327   2.186   6.338  0.6525 -2.2442  2.2085
  170DOPC   H6S20678  -0.409   2.048   6.265 -0.2079 -0.3300 -1.8449
  170DOPC   C2720679  -0.325   2.170   6.112  0.1286 -0.1605 -0.8184
  170DOPC   H7R20680  -0.260   2.259   6.115  0.2650 -0.2728 -0.4707
  170DOPC   H7S20681  -0.428   2.208   6.095  0.2141  0.5936  0.2645
  170DOPC   C2820682  -0.289   2.075   5.996  0.6587  0.3547 -0.3388
  170DOPC   H8R20683  -0.189   2.028   6.004  0.9855  1.3312  1.8608
  170DOPC   H8S20684  -0.289   2.142   5.907  0.3604  0.7742 -0.0303
  170DOPC   C2920685  -0.397   1.966   5.974 -0.0405 -0.8378 -0.2943
  170DOPC   H9R20686  -0.410   1.891   6.054 -0.1904 -1.5870 -1.0085
  170DOPC  C21020687  -0.475   1.967   5.864  0.3324 -0.2946 -0.1849
  170DOPC  H10R20688  -0.555   1.893   5.851  1.2919 -1.2967 -0.6430
  170DOPC  C21120689  -0.462   2.067   5.750  0.0691 -0.7339  0.1667
  170DOPC  H11R20690  -0.357   2.098   5.729 -0.8424  2.1843 -0.4765
  170DOPC  H11S20691  -0.520   2.161   5.760  0.7613 -0.1233 -1.2390
  170DOPC  C21220692  -0.498   2.017   5.604  0.0665 -0.3460 -0.2165
  170DOPC  H12R20693  -0.460   2.098   5.537 -2.5255  0.9277 -0.2454
  170DOPC  H12S20694  -0.608   2.011   5.590  0.2809 -0.8239 -2.0145
  170DOPC  C21320695  -0.447   1.876   5.571 -0.4846  0.3221  0.1688
  170DOPC  H13R20696  -0.511   1.805   5.628  0.5880  0.9218  2.2113
  170DOPC  H13S20697  -0.347   1.863   5.617 -1.5598 -0.4431  2.4534
  170DOPC  C21420698  -0.452   1.842   5.421  0.3048  0.2544  0.0541
  170DOPC  H14R20699  -0.402   1.744   5.404  0.6742  0.8179 -2.5320
  170DOPC  H14S20700  -0.388   1.915   5.367 -0.3010 -0.2979 -1.4634
  170DOPC  C21520701  -0.591   1.847   5.357 -0.3955  0.0584 -0.7695
  170DOPC  H15R20702  -0.628   1.948   5.329 -1.5764  0.1119  0.8645
  170DOPC  H15S20703  -0.663   1.813   5.435  0.0115 -0.0031 -0.4159
  170DOPC  C21620704  -0.604   1.764   5.225 -0.0203  0.2600 -0.3263
  170DOPC  H16R20705  -0.704   1.783   5.180 -1.4505 -1.5927  1.8693
  170DOPC  H16S20706  -0.586   1.659   5.256  1.7484  0.3551 -0.9392
  170DOPC  C21720707  -0.496   1.793   5.116  0.2582  0.1650 -0.5387
  170DOPC  H17R20708  -0.401   1.762   5.166  0.3744  0.4713 -0.5669
  170DOPC  H17S20709  -0.491   1.903   5.098  1.4011  0.1684 -0.3332
  170DOPC  C21820710  -0.494   1.717   4.983  0.2669 -0.3483 -0.2241
  170DOPC  H18R20711  -0.426   1.769   4.912  1.1103 -0.3919  0.5320
  170DOPC  H18S20712  -0.598   1.714   4.943  0.7292  0.7926 -1.6094
  170DOPC  H18T20713  -0.475   1.609   4.997 -0.3150 -0.4326 -0.0431
  170DOPC   C3320714  -0.196   1.277   6.315 -0.1834 -0.6702 -0.4030
  170DOPC   H3X20715  -0.180   1.167   6.318 -1.5780 -0.8702  0.3028
  170DOPC   H3Y20716  -0.099   1.331   6.315 -0.2621 -0.3597  2.4274
  170DOPC   C3420717  -0.270   1.313   6.188  0.3264  0.1445  0.7712
  170DOPC   H4X20718  -0.319   1.412   6.192  0.9146  0.4050  2.2083
  170DOPC   H4Y20719  -0.361   1.251   6.175  0.4122  0.4360 -1.5097
  170DOPC   C3520720  -0.166   1.297   6.069  0.6874  0.4099  0.1705
  170DOPC   H5X20721  -0.120   1.197   6.088 -0.4188 -0.8135 -2.9789
  170DOPC   H5Y20722  -0.097   1.384   6.078 -1.6077  2.2978  0.3920
  170DOPC   C3620723  -0.221   1.308   5.929 -0.8418  0.5399  0.3258
  170DOPC   H6X20724  -0.318   1.254   5.925  1.0103 -2.9838 -0.8345
  170DOPC   H6Y20725  -0.235   1.413   5.895 -1.9034 -0.0864 -1.2762
  170DOPC   C3720726  -0.141   1.236   5.814  0.1424 -0.0966 -0.1240
  170DOPC   H7X20727  -0.123   1.132   5.849 -0.1915  0.6064  2.2940
  170DOPC   H7Y20728  -0.207   1.239   5.725  0.2677 -0.9649 -0.2576
  170DOPC   C3820729  -0.001   1.309   5.782 -0.0482 -0.4014 -0.3129
  170DOPC   H8X20730   0.055   1.250   5.707 -1.6629 -0.2664 -1.6976
  170DOPC   H8Y20731   0.071   1.315   5.866 -0.2079 -1.4764 -0.0784
  170DOPC   C3920732  -0.033   1.444   5.721  0.0198  0.8557  0.4769
  170DOPC   H9X20733  -0.067   1.530   5.781 -0.0024  1.7931 -0.8296
  170DOPC  C31020734  -0.041   1.465   5.587  0.4864 -0.1009 -0.2921
  170DOPC  H10X20735  -0.037   1.569   5.551  0.1966  0.2488  0.6421
  170DOPC  C31120736  -0.033   1.365   5.474 -0.1270  0.6641  0.7951
  170DOPC  H11X20737  -0.116   1.373   5.401  0.5194 -0.4406 -0.0943
  170DOPC  H11Y20738  -0.031   1.261   5.515  0.0638  0.7365  0.9728
  170DOPC  C31220739   0.083   1.367   5.368 -0.8975 -1.0225 -0.1704
  170DOPC  H12X20740   0.179   1.368   5.425 -1.4152 -3.5531  0.8857
  170DOPC  H12Y20741   0.061   1.457   5.306 -1.6796 -2.4644 -2.0781
  170DOPC  C31320742   0.086   1.244   5.274  0.0885 -0.5844  0.0400
  170DOPC  H13X20743   0.101   1.152   5.335  1.9412 -0.8112 -0.6965
  170DOPC  H13Y20744  -0.008   1.232   5.216  1.3070 -2.1121 -1.7384
  170DOPC  C31420745   0.191   1.265   5.166 -0.3557  0.2225 -0.3822
  170DOPC  H14X20746   0.145   1.346   5.105  0.1310  0.1652 -0.8271
  170DOPC  H14Y20747   0.286   1.297   5.215 -1.3359 -0.5149  2.1767
  170DOPC  C31520748   0.205   1.135   5.087  0.2380  0.6002 -0.4266
  170DOPC  H15X20749   0.204   1.164   4.980 -0.6155 -1.0765 -0.9095
  170DOPC  H15Y20750   0.118   1.066   5.090  0.2292  0.5570 -1.4716
  170DOPC  C31620751   0.330   1.053   5.116 -0.1438  0.1254 -0.6460
  170DOPC  H16X20752   0.318   0.961   5.054 -0.2376  0.4240 -1.0739
  170DOPC  H16Y20753   0.417   1.113   5.084  1.6843 -1.1378  1.5826
  170DOPC  C31720754   0.356   1.021   5.263  0.0255 -0.4684 -0.3931
  170DOPC  H17X20755   0.395   1.112   5.313 -2.3237 -0.6120  1.9367
  170DOPC  H17Y20756   0.256   1.003   5.310  0.2548  1.8415  1.1322
  170DOPC  C31820757   0.450   0.910   5.279 -0.3988  0.4547 -0.4704
  170DOPC  H18X20758   0.426   0.817   5.223 -1.7867  0.6599 -0.2351
  170DOPC  H18Y20759   0.558   0.933   5.265 -0.1067 -0.9302 -0.7325
  170DOPC  H18Z20760   0.453   0.871   5.383  0.1784  0.5994 -0.4292
  171DOPC     N20761   4.862   3.573   2.516 -0.1957 -0.2486  0.0820
  171DOPC   C1220762   4.963   3.458   2.512  0.5229 -0.2587 -0.4520
  171DOPC  H12A20763   5.057   3.511   2.501  0.0654  1.1876  1.8255
  171DOPC  H12B20764   4.945   3.391   2.430 -2.0072 -1.5928  1.1030
  171DOPC   C1320765   4.844   3.630   2.374 -0.9845  0.4675 -0.3347
  171DOPC  H13A20766   4.771   3.710   2.375 -1.4346  0.0743 -0.8516
  171DOPC  H13B20767   4.939   3.677   2.355 -1.1580  0.4141 -1.4189
  171DOPC  H13C20768   4.820   3.557   2.298 -2.2126 -1.0005  1.3618
  171DOPC   C1420769   4.903   3.693   2.599  0.4829  0.1445  0.7681
  171DOPC  H14A20770   4.857   3.788   2.578 -0.4302 -0.1563  1.3558
  171DOPC  H14B20771   4.883   3.664   2.701  0.2945  2.1747  1.3493
  171DOPC  H14C20772   5.009   3.708   2.582  0.6517 -1.6038  0.1452
  171DOPC   C1520773   4.724   3.530   2.561 -0.2929 -0.1987  0.1635
  171DOPC  H15A20774   4.702   3.543   2.666  0.2449  2.6122  0.0040
  171DOPC  H15B20775   4.695   3.430   2.535 -0.8501 -0.2897  1.0753
  171DOPC  H15C20776   4.660   3.607   2.521  1.7700  0.7201 -1.6276
  171DOPC   C1120777   4.970   3.372   2.634 -0.4924  0.3906 -0.3231
  171DOPC  H11A20778   4.976   3.424   2.732  0.6462 -0.9127  0.3214
  171DOPC  H11B20779   4.875   3.315   2.638  0.0048 -0.3825  0.6400
  171DOPC     P20780   5.121   3.181   2.523 -0.4552  0.1220  0.0873
  171DOPC   O1320781   5.263   3.190   2.476 -0.0086 -0.1342  0.6557
  171DOPC   O1420782   5.028   3.188   2.410 -0.5309  0.2031  0.1385
  171DOPC   O1220783   5.099   3.293   2.632 -0.1388  0.2554 -0.1193
  171DOPC   O1120784   5.100   3.045   2.602  0.3300 -0.6411 -0.1823
  171DOPC    C120785   4.980   3.007   2.664  1.1300  0.4797  0.0069
  171DOPC    HA20786   4.978   2.897   2.679 -1.7067  0.5341  0.6507
  171DOPC    HB20787   4.889   3.031   2.605  2.4857  0.9578 -1.9591
  171DOPC    C220788   4.973   3.054   2.814  0.6821 -0.1023 -0.1195
  171DOPC    HS20789   4.951   3.162   2.800 -2.7108 -0.9316 -2.3395
  171DOPC   O2120790   5.105   3.032   2.866 -0.3565  0.5829 -0.1213
  171DOPC   C2120791   5.149   3.124   2.945  0.5019 -0.6865 -0.6567
  171DOPC   O2220792   5.089   3.225   2.982  0.4422  0.3313 -0.8212
  171DOPC   C2220793   5.299   3.100   2.970  0.4799 -0.1872 -0.4575
  171DOPC   H2R20794   5.350   3.138   2.879  0.1460  1.5631  0.0610
  171DOPC   H2S20795   5.304   2.990   2.987 -1.2724 -0.2861 -0.4192
  171DOPC    C320796   4.866   2.977   2.902  0.1596  0.4551  0.4444
  171DOPC    HX20797   4.890   2.871   2.880  0.9908  1.2135 -2.8839
  171DOPC    HY20798   4.770   3.003   2.853 -0.3539 -0.6541  0.8480
  171DOPC   O3120799   4.861   3.010   3.039  0.0340 -0.1353  0.6236
  171DOPC   C3120800   4.917   2.926   3.120 -0.0004 -0.3425 -0.4310
  171DOPC   O3220801   4.993   2.841   3.090 -0.5516 -0.2271  0.5167
  171DOPC   C3220802   4.864   2.950   3.266 -0.9316  0.2255 -0.0732
  171DOPC   H2X20803   4.823   3.053   3.262  0.9027  0.9581 -1.4441
  171DOPC   H2Y20804   4.788   2.872   3.287 -0.6317 -0.0772 -0.1045
  171DOPC   C2320805   5.354   3.187   3.086  0.2654  0.7070 -0.3673
  171DOPC   H3R20806   5.292   3.275   3.114  0.5248  0.2787  1.7795
  171DOPC   H3S20807   5.450   3.230   3.051 -0.6204  3.4274  0.3564
  171DOPC   C2420808   5.374   3.100   3.212 -0.0502  0.0355 -0.1989
  171DOPC   H4R20809   5.323   3.004   3.194  1.6269 -0.6242 -1.6429
  171DOPC   H4S20810   5.319   3.136   3.302  0.5412  0.9984 -0.2010
  171DOPC   C2520811   5.519   3.070   3.242  0.2277  0.5195  0.0061
  171DOPC   H5R20812   5.577   3.163   3.226  1.4120 -0.4588 -1.7708
  171DOPC   H5S20813   5.566   2.999   3.170 -0.7308  0.3104 -0.4339
  171DOPC   C2620814   5.544   3.014   3.383  0.0649  0.3339 -0.0490
  171DOPC   H6R20815   5.507   2.909   3.387  1.8725 -0.3063  1.3927
  171DOPC   H6S20816   5.502   3.090   3.453  0.1416  1.1281 -0.8588
  171DOPC   C2720817   5.694   2.998   3.418 -0.1533  0.0144  0.0270
  171DOPC   H7R20818   5.730   3.103   3.421 -1.0991  0.3565 -0.1224
  171DOPC   H7S20819   5.755   2.948   3.340  0.6707 -1.1809  1.3939
  171DOPC   C2820820   5.706   2.922   3.548 -0.4355  0.0889  0.2049
  171DOPC   H8R20821   5.638   2.953   3.630  0.7625  2.1206  0.5103
  171DOPC   H8S20822   5.804   2.953   3.589 -0.3284  0.9246 -0.6381
  171DOPC   C2920823   5.703   2.777   3.524  0.3348  0.1435  0.0686
  171DOPC   H9R20824   5.724   2.746   3.421 -0.5937  2.1901 -0.7762
  171DOPC  C21020825   5.668   2.686   3.616  0.3595 -0.4888 -0.4614
  171DOPC  H10R20826   5.689   2.578   3.605  0.8715 -0.4761  0.2859
  171DOPC  C21120827   5.618   2.696   3.758 -0.1950 -0.1591 -0.2986
  171DOPC  H11R20828   5.634   2.800   3.795  2.2643 -1.0279  1.3232
  171DOPC  H11S20829   5.688   2.633   3.817  1.7261  0.2880 -1.9965
  171DOPC  C21220830   5.478   2.647   3.787 -0.2205  0.3964 -0.3808
  171DOPC  H12R20831   5.467   2.537   3.769 -1.3279  0.6438 -1.3012
  171DOPC  H12S20832   5.394   2.682   3.724 -2.2474 -2.1216  0.7165
  171DOPC  C21320833   5.440   2.682   3.933  0.8339  0.4716  0.0005
  171DOPC  H13R20834   5.343   2.636   3.961  1.1070  1.2019  2.3393
  171DOPC  H13S20835   5.429   2.791   3.950 -2.9308  0.1422  0.6263
  171DOPC  C21420836   5.534   2.624   4.046 -0.1334  0.5502  0.3476
  171DOPC  H14R20837   5.638   2.663   4.039  0.6751 -1.4766  0.1892
  171DOPC  H14S20838   5.554   2.515   4.031  1.0441  0.8679 -0.5840
  171DOPC  C21520839   5.481   2.652   4.191  0.4936 -0.3329  0.5417
  171DOPC  H15R20840   5.399   2.581   4.215 -0.6269  1.1643  1.3276
  171DOPC  H15S20841   5.439   2.754   4.194 -1.4907 -1.0710 -0.4573
  171DOPC  C21620842   5.592   2.651   4.296 -0.2639  0.0325  0.4764
  171DOPC  H16R20843   5.664   2.733   4.276  3.0752 -2.4732  1.2548
  171DOPC  H16S20844   5.653   2.559   4.279 -1.2891 -0.1265 -3.4115
  171DOPC  C21720845   5.543   2.654   4.443 -0.5626  0.6241  0.1346
  171DOPC  H17R20846   5.460   2.728   4.449 -0.1871  1.0302  0.3637
  171DOPC  H17S20847   5.618   2.696   4.514 -0.9854  0.1062  0.9043
  171DOPC  C21820848   5.504   2.513   4.500  0.1667 -0.7358  0.2996
  171DOPC  H18R20849   5.428   2.469   4.432  0.6672 -0.1185 -0.6926
  171DOPC  H18S20850   5.459   2.515   4.601 -1.5168 -1.8795 -0.3975
  171DOPC  H18T20851   5.597   2.451   4.503  2.2775  2.2296  2.5970
  171DOPC   C3320852   4.972   2.939   3.375  0.1478  0.0944 -0.8644
  171DOPC   H3X20853   5.054   3.014   3.368  0.8730 -0.6593 -0.7368
  171DOPC   H3Y20854   5.025   2.842   3.361  1.7433  0.5903  1.2499
  171DOPC   C3420855   4.912   2.935   3.516 -1.0064 -0.3197  0.1093
  171DOPC   H4X20856   4.869   2.836   3.541  0.1575 -0.7063  0.6580
  171DOPC   H4Y20857   4.839   3.015   3.543 -0.9141 -0.6223  1.2754
  171DOPC   C3520858   5.031   2.957   3.618  0.1003  0.3562  0.4328
  171DOPC   H5X20859   5.092   3.044   3.586  2.3859 -1.5359 -0.7162
  171DOPC   H5Y20860   5.098   2.872   3.591  0.7937  0.4018  1.9251
  171DOPC   C3620861   5.013   2.944   3.774 -0.6349  0.1715 -0.1529
  171DOPC   H6X20862   4.978   3.040   3.818 -0.5917  0.4506 -0.7185
  171DOPC   H6Y20863   4.924   2.878   3.788 -1.2427  0.7272 -1.2356
  171DOPC   C3720864   5.138   2.907   3.855  0.5252  0.3185 -0.9732
  171DOPC   H7X20865   5.193   2.818   3.818  0.2422  0.1478 -0.9855
  171DOPC   H7Y20866   5.211   2.991   3.846 -0.5146  1.0901 -2.7487
  171DOPC   C3820867   5.105   2.872   4.002  0.0431  0.0414  0.0106
  171DOPC   H8X20868   5.190   2.817   4.047 -0.3902 -1.4841 -0.9440
  171DOPC   H8Y20869   5.023   2.798   4.013  1.8875 -1.7211  3.5482
  171DOPC   C3920870   5.059   2.997   4.076  0.0470  0.8033  0.0088
  171DOPC   H9X20871   4.965   3.035   4.034  0.5971 -0.0724 -2.1241
  171DOPC  C31020872   5.116   3.056   4.181 -0.3220 -0.0465  0.1923
  171DOPC  H10X20873   5.095   3.159   4.213  0.1763  0.3164 -0.6081
  171DOPC  C31120874   5.243   3.008   4.251 -0.0499  0.1477  0.3139
  171DOPC  H11X20875   5.308   3.094   4.278  1.1899 -0.8408  0.5823
  171DOPC  H11Y20876   5.297   2.931   4.192  0.5414  0.1534  0.8392
  171DOPC  C31220877   5.206   2.928   4.374 -0.2478  0.0998  0.0403
  171DOPC  H12X20878   5.299   2.906   4.431  0.6411  0.3620 -1.2744
  171DOPC  H12Y20879   5.172   2.826   4.345  3.3628 -1.5990  1.1097
  171DOPC  C31320880   5.114   2.998   4.467  0.2738  0.8865  0.0175
  171DOPC  H13X20881   5.168   3.093   4.484  0.4582  0.8761 -0.4901
  171DOPC  H13Y20882   5.020   3.026   4.414  0.5401  0.7734 -0.5263
  171DOPC  C31420883   5.089   2.916   4.596  0.4856 -0.0208  0.1692
  171DOPC  H14X20884   4.997   2.961   4.639  0.7676 -0.0785  0.8448
  171DOPC  H14Y20885   5.069   2.810   4.571 -2.0039 -0.4417  3.2680
  171DOPC  C31520886   5.212   2.925   4.693 -0.0074 -0.5066  0.4149
  171DOPC  H15X20887   5.260   3.025   4.689 -1.4996  0.4022  3.0718
  171DOPC  H15Y20888   5.286   2.860   4.642 -1.8891 -0.5092 -2.6071
  171DOPC  C31620889   5.182   2.883   4.833 -0.0459  0.7675 -0.7572
  171DOPC  H16X20890   5.139   2.973   4.881 -1.5539  0.0176 -0.6127
  171DOPC  H16Y20891   5.111   2.797   4.833  0.4844  0.3037  0.8462
  171DOPC  C31720892   5.312   2.846   4.907  0.1492  0.1534  0.1635
  171DOPC  H17X20893   5.284   2.786   4.996  0.0917  0.5650  0.4292
  171DOPC  H17Y20894   5.382   2.780   4.852  0.4226  0.8038 -0.2878
  171DOPC  C31820895   5.395   2.972   4.943  0.3346  0.0267  0.2469
  171DOPC  H18X20896   5.502   2.950   4.962  0.4119 -0.3156 -0.5587
  171DOPC  H18Y20897   5.401   3.035   4.852 -0.9889 -1.2963 -0.8034
  171DOPC  H18Z20898   5.357   3.037   5.025 -0.7768  0.1161 -0.3117
  172DOPC     N20899   2.863   4.484   2.804 -0.1987 -0.2630  0.0117
  172DOPC   C1220900   2.821   4.413   2.931 -0.6782 -0.6094 -0.6648
  172DOPC  H12A20901   2.738   4.470   2.971  0.7786  0.4657  0.9368
  172DOPC  H12B20902   2.895   4.419   3.009 -0.5919  2.5025 -0.8893
  172DOPC   C1320903   2.858   4.631   2.832  0.2414  0.3138  0.3345
  172DOPC  H13A20904   2.757   4.665   2.854  0.3870 -1.0046  3.5875
  172DOPC  H13B20905   2.925   4.651   2.915  1.2826 -2.6914  0.3127
  172DOPC  H13C20906   2.901   4.694   2.756 -2.2382  2.6584  0.6767
  172DOPC   C1420907   2.780   4.459   2.682 -0.4403 -0.7221 -0.8291
  172DOPC  H14A20908   2.771   4.352   2.667 -0.3566 -1.4188  3.1017
  172DOPC  H14B20909   2.679   4.493   2.700  0.4436  1.0882  1.1414
  172DOPC  H14C20910   2.814   4.507   2.592  1.3550 -0.8558 -0.2529
  172DOPC   C1520911   3.003   4.429   2.777 -0.0667  0.3874 -0.2967
  172DOPC  H15A20912   2.982   4.324   2.764 -0.8975  0.5573 -0.3930
  172DOPC  H15B20913   3.064   4.468   2.857 -0.2570 -0.3887  0.2303
  172DOPC  H15C20914   3.056   4.467   2.691 -0.3168  0.7265 -0.3036
  172DOPC   C1120915   2.777   4.262   2.926 -0.0078 -0.2056 -0.0495
  172DOPC  H11A20916   2.749   4.239   3.031 -2.1044 -2.2951 -0.9740
  172DOPC  H11B20917   2.692   4.252   2.855 -0.1987  1.9848 -0.2112
  172DOPC     P20918   2.948   4.068   2.976  0.0872  0.0811 -0.0246
  172DOPC   O1320919   3.073   4.020   2.918 -0.3942 -0.2552 -0.2680
  172DOPC   O1420920   2.843   3.970   3.006  0.4801  0.2426 -0.2464
  172DOPC   O1220921   2.885   4.179   2.882 -0.5637  0.0645 -0.0151
  172DOPC   O1120922   2.978   4.146   3.105 -0.1092  0.0231 -0.4900
  172DOPC    C120923   3.092   4.110   3.187  0.0669 -0.1165  0.1353
  172DOPC    HA20924   3.113   4.191   3.261  2.0630 -0.6140  0.1781
  172DOPC    HB20925   3.183   4.105   3.123  1.2200  1.1277  1.5948
  172DOPC    C220926   3.075   3.976   3.264 -0.0949  0.0168 -0.0766
  172DOPC    HS20927   3.006   3.909   3.207 -0.7714 -1.3388  2.2212
  172DOPC   O2120928   3.012   4.026   3.383 -0.4813  0.3060 -0.4056
  172DOPC   C2120929   2.970   3.936   3.461  0.3223  0.5116 -0.5822
  172DOPC   O2220930   2.964   3.815   3.449 -0.3184 -0.1340  0.6330
  172DOPC   C2220931   2.935   3.996   3.602  0.5935  0.9360  0.1963
  172DOPC   H2R20932   2.934   4.107   3.590 -1.1095  0.9788  0.3900
  172DOPC   H2S20933   3.016   3.967   3.672  2.1833 -0.0613 -1.9665
  172DOPC    C320934   3.212   3.905   3.290 -0.7930 -0.5546  0.4375
  172DOPC    HX20935   3.230   3.872   3.185 -1.6628  2.7172 -0.8626
  172DOPC    HY20936   3.207   3.810   3.347 -0.9476 -1.4936 -1.0893
  172DOPC   O3120937   3.315   3.998   3.333 -0.5621 -0.2313  0.2650
  172DOPC   C3120938   3.339   4.005   3.460 -0.3298  0.2585 -0.4385
  172DOPC   O3220939   3.272   3.951   3.546 -0.7715  0.0147 -0.1235
  172DOPC   C3220940   3.457   4.100   3.486  0.3959  0.1767 -0.2532
  172DOPC   H2X20941   3.474   4.160   3.394  0.7091 -0.0195 -0.3305
  172DOPC   H2Y20942   3.405   4.174   3.549 -2.6715 -2.3230  0.3469
  172DOPC   C2320943   2.806   3.943   3.660  1.1655  0.0028 -0.6966
  172DOPC   H3R20944   2.824   3.837   3.690 -1.4503 -0.0914  0.9432
  172DOPC   H3S20945   2.720   3.965   3.593  1.6344  0.8780 -1.0323
  172DOPC   C2420946   2.767   4.026   3.794  0.0143  0.7244  0.5113
  172DOPC   H4R20947   2.769   4.136   3.777 -1.5521  1.3060  3.3731
  172DOPC   H4S20948   2.844   4.009   3.872  2.9464  0.1562 -2.2824
  172DOPC   C2520949   2.626   3.989   3.841 -0.0351  0.2521  0.4759
  172DOPC   H5R20950   2.629   3.878   3.855  1.0386  0.3697  1.3082
  172DOPC   H5S20951   2.557   3.998   3.755  1.5673 -1.3231 -1.0682
  172DOPC   C2620952   2.573   4.076   3.955  0.2345 -0.1065 -0.1366
  172DOPC   H6R20953   2.463   4.064   3.968  0.3597 -0.9654  0.1882
  172DOPC   H6S20954   2.597   4.183   3.937  2.6962 -0.6249 -0.2742
  172DOPC   C2720955   2.643   4.045   4.087  0.3211  1.1938 -0.0981
  172DOPC   H7R20956   2.752   4.031   4.073  0.2788 -1.4375  1.4661
  172DOPC   H7S20957   2.615   3.947   4.131  3.9780  0.2542  0.4624
  172DOPC   C2820958   2.603   4.153   4.198 -0.5094  0.0250 -0.3631
  172DOPC   H8R20959   2.496   4.131   4.216 -0.1463  0.3707  2.7076
  172DOPC   H8S20960   2.603   4.257   4.161 -0.8118  1.2032  2.6676
  172DOPC   C2920961   2.687   4.150   4.326 -0.2225  0.1710 -0.3790
  172DOPC   H9R20962   2.650   4.073   4.395 -3.0602  3.4074  1.9990
  172DOPC  C21020963   2.786   4.224   4.372  0.2981  0.3769  0.9874
  172DOPC  H10R20964   2.831   4.194   4.468 -0.0260  2.6378  1.9100
  172DOPC  C21120965   2.853   4.338   4.307 -0.5458  0.4891  0.8370
  172DOPC  H11R20966   2.826   4.428   4.366 -1.2107  0.1985  0.9830
  172DOPC  H11S20967   2.811   4.352   4.205  0.7171 -0.0091  0.2374
  172DOPC  C21220968   3.007   4.325   4.296  0.3632 -0.2810 -0.2747
  172DOPC  H12R20969   3.031   4.239   4.230  0.7191 -0.4498  0.0706
  172DOPC  H12S20970   3.057   4.314   4.394  4.0543  2.5044 -1.6291
  172DOPC  C21320971   3.065   4.456   4.235 -0.0898 -0.4602 -0.0439
  172DOPC  H13R20972   3.032   4.537   4.304  1.8362 -0.9165  1.5163
  172DOPC  H13S20973   3.026   4.462   4.131  1.2178  2.3031 -0.4772
  172DOPC  C21420974   3.220   4.456   4.222 -0.8194 -0.1724 -0.7410
  172DOPC  H14R20975   3.268   4.457   4.322 -0.1322 -0.2559 -1.0674
  172DOPC  H14S20976   3.260   4.547   4.174 -0.1711  0.3162  0.6642
  172DOPC  C21520977   3.272   4.335   4.135  0.1825  0.2795 -0.6099
  172DOPC  H15R20978   3.247   4.233   4.172  2.2180 -0.6914 -1.7011
  172DOPC  H15S20979   3.383   4.347   4.143  0.0553  0.4208  1.5265
  172DOPC  C21620980   3.236   4.342   3.991 -0.5578 -0.3132  0.0402
  172DOPC  H16R20981   3.246   4.448   3.957 -3.5490 -0.6538 -2.3043
  172DOPC  H16S20982   3.129   4.320   3.969  0.0747 -1.1653 -2.6344
  172DOPC  C21720983   3.318   4.260   3.897 -0.4651  0.3081  0.3296
  172DOPC  H17R20984   3.419   4.257   3.943 -0.2602  2.9683  0.1749
  172DOPC  H17S20985   3.322   4.324   3.807 -0.5503  0.2998  0.3199
  172DOPC  C21820986   3.253   4.128   3.861 -0.3776 -0.3021 -0.0658
  172DOPC  H18R20987   3.295   4.061   3.783  0.3179 -1.0951  0.9604
  172DOPC  H18S20988   3.146   4.156   3.849  0.0091  1.7464  0.8144
  172DOPC  H18T20989   3.250   4.074   3.958  0.0938 -1.0061 -0.4381
  172DOPC   C3320990   3.576   4.060   3.568  0.1305  0.9276 -0.3116
  172DOPC   H3X20991   3.664   4.120   3.536  0.1912  0.6067 -0.7510
  172DOPC   H3Y20992   3.607   3.956   3.547 -0.6666  0.8181 -0.9982
  172DOPC   C3420993   3.561   4.074   3.720 -0.4936 -0.2448  0.1853
  172DOPC   H4X20994   3.487   4.000   3.757 -1.8865  0.9455 -0.1194
  172DOPC   H4Y20995   3.522   4.177   3.736  0.7348  0.8966 -3.3294
  172DOPC   C3520996   3.695   4.050   3.797  0.2913 -0.1852 -0.1762
  172DOPC   H5X20997   3.775   4.102   3.740  0.1451 -2.7165 -2.9088
  172DOPC   H5Y20998   3.726   3.944   3.797  2.6712  0.4487  1.1594
  172DOPC   C3620999   3.678   4.088   3.949  1.1123  0.3778 -0.2001
  172DOPC   H6X21000   3.777   4.087   3.998  2.4335 -0.2161 -2.7078
  172DOPC   H6Y21001   3.636   4.191   3.958  1.1573  0.4293 -0.5592
  172DOPC   C3721002   3.590   3.992   4.029 -0.0220 -0.3455 -0.0656
  172DOPC   H7X21003   3.497   3.971   3.973 -0.8845  0.7878  0.8839
  172DOPC   H7Y21004   3.640   3.895   4.048 -1.6130 -1.2100 -0.1411
  172DOPC   C3821005   3.537   4.044   4.169 -0.0355 -0.2453 -1.2556
  172DOPC   H8X21006   3.474   3.967   4.218 -0.1757 -0.4708 -1.7858
  172DOPC   H8Y21007   3.463   4.125   4.153 -0.1804 -0.4287 -1.5150
  172DOPC   C3921008   3.638   4.100   4.267  0.5322  0.4043 -0.3520
  172DOPC   H9X21009   3.740   4.070   4.240 -0.0141 -0.0631 -2.0223
  172DOPC  C31021010   3.624   4.178   4.374  0.5217 -0.8435 -0.4076
  172DOPC  H10X21011   3.716   4.195   4.432  0.8961  0.3561 -1.3210
  172DOPC  C31121012   3.492   4.226   4.430  0.4993  0.6448 -0.1526
  172DOPC  H11X21013   3.460   4.152   4.507  0.6082 -0.3670 -1.0643
  172DOPC  H11Y21014   3.412   4.222   4.353  0.7913  0.2454 -0.4308
  172DOPC  C31221015   3.466   4.363   4.502  0.2514  0.1109 -0.0184
  172DOPC  H12X21016   3.357   4.365   4.522  0.5120 -1.1034  1.6483
  172DOPC  H12Y21017   3.501   4.446   4.437  0.6923  0.3698  0.5481
  172DOPC  C31321018   3.543   4.370   4.643  0.0076  0.8211  0.1886
  172DOPC  H13X21019   3.504   4.279   4.694 -1.6520  1.9836  1.0940
  172DOPC  H13Y21020   3.651   4.351   4.626  0.1697  0.0158  1.9531
  172DOPC  C31421021   3.514   4.486   4.739  0.7194  0.1445 -0.2161
  172DOPC  H14X21022   3.572   4.570   4.695 -0.8339  1.8814  0.8924
  172DOPC  H14Y21023   3.407   4.517   4.730  0.5881 -0.7215 -2.1722
  172DOPC  C31521024   3.544   4.472   4.888  0.1360  0.5835  0.4839
  172DOPC  H15X21025   3.652   4.449   4.900 -0.0188 -2.6815 -2.7452
  172DOPC  H15Y21026   3.485   4.388   4.930  0.4269  1.0407  1.8463
  172DOPC  C31621027   3.526   4.604   4.955  0.2470  0.1659 -0.2164
  172DOPC  H16X21028   3.575   4.683   4.894  1.4664  0.4974  1.1390
  172DOPC  H16Y21029   3.419   4.636   4.961  0.6799  2.1799 -1.7960
  172DOPC  C31721030   3.580   4.613   5.098 -0.1147  0.4870 -0.4183
  172DOPC  H17X21031   3.544   4.539   5.174  0.3467  0.3379 -0.3426
  172DOPC  H17Y21032   3.688   4.588   5.092 -0.5262 -1.7795  0.5538
  172DOPC  C31821033   3.565   4.754   5.154 -0.2954  0.0408  0.3362
  172DOPC  H18X21034   3.631   4.823   5.097  1.0746  0.8860  2.7775
  172DOPC  H18Y21035   3.458   4.781   5.144 -0.1706  1.2168  1.7962
  172DOPC  H18Z21036   3.599   4.762   5.260  1.6737 -1.7240 -0.0806
  173DOPC     N21037   2.547   2.472   3.612  0.3847  0.0274  0.1024
  173DOPC   C1221038   2.690   2.480   3.547 -0.3501 -0.3826  0.7095
  173DOPC  H12A21039   2.719   2.581   3.522 -1.8775 -0.2160 -0.5078
  173DOPC  H12B21040   2.683   2.429   3.453  0.0264 -0.3554  0.6653
  173DOPC   C1321041   2.504   2.324   3.612  0.4563 -0.2138  0.2521
  173DOPC  H13A21042   2.490   2.294   3.509  0.5197 -2.7141  0.9199
  173DOPC  H13B21043   2.586   2.265   3.651 -0.9481 -2.6742 -0.2952
  173DOPC  H13C21044   2.414   2.299   3.666  0.2159 -0.9320 -0.4623
  173DOPC   C1421045   2.442   2.539   3.524  0.1951  0.1837 -1.4708
  173DOPC  H14A21046   2.458   2.520   3.419 -1.0863 -0.8490 -1.5176
  173DOPC  H14B21047   2.343   2.503   3.547 -1.2867  2.8080 -3.3047
  173DOPC  H14C21048   2.443   2.646   3.534  3.1299  0.1826 -0.9845
  173DOPC   C1521049   2.534   2.533   3.749 -0.5201 -0.0823 -0.3956
  173DOPC  H15A21050   2.442   2.507   3.799  0.9072 -1.4026  1.7523
  173DOPC  H15B21051   2.546   2.640   3.746  1.5975 -0.2319  0.6167
  173DOPC  H15C21052   2.613   2.487   3.808  0.9972 -0.0934 -2.3292
  173DOPC   C1121053   2.816   2.428   3.622  0.1594 -0.1895  0.7083
  173DOPC  H11A21054   2.900   2.439   3.550  0.2297 -2.8932  0.2834
  173DOPC  H11B21055   2.816   2.493   3.713  0.4938 -1.3056  1.5319
  173DOPC     P21056   2.817   2.176   3.555  0.1770  0.3427  0.4108
  173DOPC   O1321057   2.828   2.226   3.415 -0.2631 -0.4466 -0.0983
  173DOPC   O1421058   2.721   2.066   3.579 -0.2340 -0.2020  0.0770
  173DOPC   O1221059   2.794   2.293   3.660 -0.3221  0.1859 -0.1404
  173DOPC   O1121060   2.957   2.119   3.596 -0.1955 -0.0586 -0.4755
  173DOPC    C121061   2.973   2.060   3.734 -0.0294 -0.5713  0.0441
  173DOPC    HA21062   2.957   1.950   3.736 -3.2246 -0.2034 -0.0915
  173DOPC    HB21063   2.891   2.099   3.798 -0.3085  0.5058 -0.9269
  173DOPC    C221064   3.106   2.106   3.801 -0.6045 -0.1978 -0.3288
  173DOPC    HS21065   3.193   2.096   3.734 -1.1512 -0.3462 -1.0209
  173DOPC   O2121066   3.116   2.019   3.918  1.0412  0.5273  0.2476
  173DOPC   C2121067   3.219   1.937   3.916 -0.5339  0.0283  0.6457
  173DOPC   O2221068   3.292   1.923   3.818  0.1483 -0.0570 -0.0249
  173DOPC   C2221069   3.239   1.871   4.056  0.3022 -0.2184  0.6992
  173DOPC   H2R21070   3.152   1.804   4.069 -0.2997  0.4553  0.2063
  173DOPC   H2S21071   3.235   1.936   4.146  0.8839 -2.0134  2.0757
  173DOPC    C321072   3.091   2.249   3.871 -0.1175  0.7116  0.0803
  173DOPC    HX21073   2.993   2.230   3.919 -0.5749 -0.4384 -1.2531
  173DOPC    HY21074   3.089   2.324   3.788  0.0938  0.9101  0.2535
  173DOPC   O3121075   3.197   2.275   3.967 -0.4633  0.5547  0.1898
  173DOPC   C3121076   3.308   2.323   3.925  0.5585 -0.8170 -0.3473
  173DOPC   O3221077   3.335   2.348   3.807 -0.3807 -0.4802 -0.2452
  173DOPC   C3221078   3.397   2.353   4.046 -0.2816 -0.3320 -0.1903
  173DOPC   H2X21079   3.484   2.411   4.010 -0.4536  0.2197  0.2782
  173DOPC   H2Y21080   3.330   2.412   4.112 -0.4806 -0.9604  0.1796
  173DOPC   C2321081   3.382   1.798   4.071 -0.7269  0.5136 -0.3948
  173DOPC   H3R21082   3.471   1.859   4.044 -2.0753  2.5325 -0.5396
  173DOPC   H3S21083   3.396   1.711   4.004  0.7762  1.8876 -1.9564
  173DOPC   C2421084   3.425   1.753   4.210 -0.3459 -0.2472  0.2204
  173DOPC   H4R21085   3.525   1.705   4.207 -0.2857 -0.1990  1.2434
  173DOPC   H4S21086   3.355   1.674   4.246 -0.7588  0.4126  0.8797
  173DOPC   C2521087   3.430   1.863   4.313  0.4197  0.0804 -0.3676
  173DOPC   H5R21088   3.325   1.889   4.335  0.7178 -0.0416  1.4098
  173DOPC   H5S21089   3.490   1.953   4.290  0.6035 -0.3206 -1.5072
  173DOPC   C2621090   3.505   1.821   4.449 -0.4974  0.6024 -0.2435
  173DOPC   H6R21091   3.527   1.906   4.517  1.4649  1.3730 -1.7469
  173DOPC   H6S21092   3.602   1.781   4.411 -0.9233 -1.4796  0.7733
  173DOPC   C2721093   3.431   1.711   4.520 -0.2138 -0.3048 -0.7512
  173DOPC   H7R21094   3.424   1.622   4.454 -0.2933 -0.2215 -0.8551
  173DOPC   H7S21095   3.332   1.756   4.539  0.3947  1.0124 -0.5651
  173DOPC   C2821096   3.497   1.685   4.654  0.2669 -0.2164 -0.5732
  173DOPC   H8R21097   3.524   1.774   4.715 -0.3580 -0.9561  0.8105
  173DOPC   H8S21098   3.591   1.630   4.633  0.3606  0.2831 -1.5418
  173DOPC   C2921099   3.402   1.594   4.733  0.3358  0.4647  0.1268
  173DOPC   H9R21100   3.373   1.510   4.667 -0.3833  0.0933  0.8976
  173DOPC  C21021101   3.379   1.592   4.866 -0.0780  0.3488 -0.3247
  173DOPC  H10R21102   3.311   1.522   4.917  0.7493  0.9411  1.7045
  173DOPC  C21121103   3.431   1.696   4.967 -0.1864  0.8723  0.0883
  173DOPC  H11R21104   3.489   1.783   4.929  0.1998  1.4752  1.9294
  173DOPC  H11S21105   3.513   1.642   5.020  0.6799  0.2143 -1.8373
  173DOPC  C21221106   3.319   1.738   5.067 -0.0004  0.1005 -0.5686
  173DOPC  H12R21107   3.278   1.656   5.128  2.0301 -0.3618  0.2620
  173DOPC  H12S21108   3.244   1.775   4.994 -2.8983  3.4248  3.6519
  173DOPC  C21321109   3.369   1.849   5.152  0.5186  0.7374 -0.4667
  173DOPC  H13R21110   3.289   1.902   5.209  0.8132 -0.5790  1.2774
  173DOPC  H13S21111   3.423   1.922   5.088  0.2897  2.7743  1.5200
  173DOPC  C21421112   3.464   1.809   5.264 -0.5418 -0.1556 -0.4032
  173DOPC  H14R21113   3.560   1.768   5.226 -0.4808  0.8401 -1.3622
  173DOPC  H14S21114   3.428   1.729   5.333 -1.1897  0.5499  0.0941
  173DOPC  C21521115   3.505   1.933   5.356  0.5167 -0.7450 -0.4066
  173DOPC  H15R21116   3.548   2.014   5.293 -2.1815  0.0923 -1.2889
  173DOPC  H15S21117   3.575   1.920   5.441 -0.0648  3.1259  0.8708
  173DOPC  C21621118   3.385   2.003   5.423 -0.5941  0.1856  0.3189
  173DOPC  H16R21119   3.299   1.933   5.435 -0.4104 -0.2936 -1.0744
  173DOPC  H16S21120   3.358   2.086   5.354 -0.7721 -0.7727 -0.7761
  173DOPC  C21721121   3.411   2.057   5.566 -0.3397 -0.1120  0.1770
  173DOPC  H17R21122   3.442   1.968   5.625 -1.5720 -0.3317  0.5089
  173DOPC  H17S21123   3.315   2.094   5.608  0.2137  0.0107  1.3962
  173DOPC  C21821124   3.517   2.165   5.569  0.1894 -0.0572  0.7787
  173DOPC  H18R21125   3.546   2.189   5.673  0.5777  0.3559  0.5804
  173DOPC  H18S21126   3.476   2.256   5.519  0.4483 -0.3362  0.0479
  173DOPC  H18T21127   3.602   2.139   5.503 -0.2094  0.9804 -0.1766
  173DOPC   C3321128   3.447   2.222   4.113 -0.6261 -0.1445 -0.9121
  173DOPC   H3X21129   3.538   2.179   4.064  0.1168 -1.7556  1.6670
  173DOPC   H3Y21130   3.375   2.138   4.106  1.7441 -2.4173 -0.1601
  173DOPC   C3421131   3.462   2.242   4.266 -0.4138 -0.1959 -0.3053
  173DOPC   H4X21132   3.547   2.312   4.278  0.6073 -1.1184 -1.7425
  173DOPC   H4Y21133   3.501   2.151   4.316 -0.4956 -0.9755 -1.6049
  173DOPC   C3521134   3.339   2.290   4.345 -0.5557  0.5482  0.1551
  173DOPC   H5X21135   3.259   2.213   4.339 -0.1188 -0.0507  1.6206
  173DOPC   H5Y21136   3.305   2.391   4.315  0.1119  0.6568 -0.2550
  173DOPC   C3621137   3.381   2.297   4.494  0.0603 -0.2531  0.0754
  173DOPC   H6X21138   3.374   2.195   4.537  0.0722  0.5393  2.0640
  173DOPC   H6Y21139   3.490   2.316   4.506  0.7902 -3.5932 -0.3811
  173DOPC   C3721140   3.300   2.401   4.574 -0.5688  0.0016  0.4231
  173DOPC   H7X21141   3.277   2.494   4.518  2.0026  0.7165  0.4402
  173DOPC   H7Y21142   3.207   2.347   4.602 -0.4586 -0.4058  0.0307
  173DOPC   C3821143   3.374   2.446   4.701  0.6844 -0.7245 -0.0381
  173DOPC   H8X21144   3.432   2.538   4.680  0.1854 -0.4192 -0.0920
  173DOPC   H8Y21145   3.460   2.380   4.725  1.4724 -1.2820 -3.7538
  173DOPC   C3921146   3.294   2.456   4.825  0.7306 -0.6362  0.6250
  173DOPC   H9X21147   3.193   2.413   4.818  1.2287 -1.7681  0.2796
  173DOPC  C31021148   3.326   2.524   4.936 -0.3570  0.0302 -0.0122
  173DOPC  H10X21149   3.259   2.512   5.022  0.0953 -0.8425  0.2236
  173DOPC  C31121150   3.455   2.601   4.956  0.4768  0.3816 -0.2830
  173DOPC  H11X21151   3.424   2.705   4.983 -0.6499  0.6406 -2.3533
  173DOPC  H11Y21152   3.511   2.617   4.861  0.4976 -1.2852 -0.5654
  173DOPC  C31221153   3.551   2.557   5.070  0.0732  0.1224 -0.0729
  173DOPC  H12X21154   3.619   2.477   5.034  0.5769  0.4490  0.1384
  173DOPC  H12Y21155   3.502   2.515   5.161 -0.1868  0.4440 -0.0626
  173DOPC  C31321156   3.633   2.675   5.123 -0.9607  0.1328 -1.3193
  173DOPC  H13X21157   3.702   2.696   5.037 -0.2826 -1.0016 -1.0736
  173DOPC  H13Y21158   3.588   2.769   5.160 -1.7267 -1.1902  1.3313
  173DOPC  C31421159   3.713   2.631   5.247  0.3491  0.2028 -0.3663
  173DOPC  H14X21160   3.640   2.633   5.331  2.2271 -1.4873  1.4130
  173DOPC  H14Y21161   3.745   2.527   5.226  1.8170  0.7065 -0.7485
  173DOPC  C31521162   3.831   2.723   5.273  0.0694  0.3549 -0.4569
  173DOPC  H15X21163   3.798   2.825   5.303 -1.3313 -0.0308 -0.5689
  173DOPC  H15Y21164   3.902   2.736   5.189  0.9445  0.7596  0.3216
  173DOPC  C31621165   3.924   2.678   5.392 -0.0959 -0.3261  0.2357
  173DOPC  H16X21166   3.868   2.657   5.486 -0.3563 -0.3800  0.0693
  173DOPC  H16Y21167   3.987   2.598   5.349 -0.4341 -0.7656  0.5526
  173DOPC  C31721168   4.033   2.781   5.432  0.4368  0.0172  0.4232
  173DOPC  H17X21169   4.086   2.788   5.334 -0.7398 -0.2194 -0.2511
  173DOPC  H17Y21170   3.989   2.882   5.448 -1.3809 -0.4136 -1.3491
  173DOPC  C31821171   4.116   2.740   5.551 -0.1125  0.3514  0.0144
  173DOPC  H18X21172   4.064   2.709   5.644  0.6438 -0.6567  0.1257
  173DOPC  H18Y21173   4.184   2.654   5.531 -3.8849 -2.2744 -3.0791
  173DOPC  H18Z21174   4.182   2.825   5.579  0.0567  0.4466 -0.6565
  174DOPC     N21175   5.414   1.796   2.481  0.0049  0.9285 -0.0956
  174DOPC   C1221176   5.448   1.901   2.375 -0.3646  0.4618  0.3306
  174DOPC  H12A21177   5.373   1.892   2.298 -2.2750  0.0019  2.1591
  174DOPC  H12B21178   5.541   1.885   2.322 -1.0609  1.2152 -1.1784
  174DOPC   C1321179   5.498   1.826   2.602  0.2120 -0.2461  0.8331
  174DOPC  H13A21180   5.604   1.810   2.589  0.5031  0.3957  2.1920
  174DOPC  H13B21181   5.477   1.928   2.631 -1.5285 -0.0010 -1.0679
  174DOPC  H13C21182   5.472   1.756   2.681  0.3559 -0.8192  0.3764
  174DOPC   C1421183   5.442   1.656   2.436  1.2579 -0.1553 -0.2324
  174DOPC  H14A21184   5.381   1.624   2.354  0.4632  0.4777  0.1005
  174DOPC  H14B21185   5.547   1.652   2.410  2.3872  0.4109  3.6552
  174DOPC  H14C21186   5.420   1.587   2.516  2.9476 -0.1197  0.3070
  174DOPC   C1521187   5.274   1.798   2.529 -0.1896  0.5767 -0.1951
  174DOPC  H15A21188   5.201   1.789   2.450 -0.5761  1.2164  0.0785
  174DOPC  H15B21189   5.258   1.882   2.595 -2.3790 -0.4362  0.6547
  174DOPC  H15C21190   5.253   1.715   2.594  2.1520 -1.3563 -1.7238
  174DOPC   C1121191   5.466   2.055   2.415 -0.1742 -0.1612  0.0939
  174DOPC  H11A21192   5.436   2.118   2.329  1.0890 -1.0043 -1.0025
  174DOPC  H11B21193   5.399   2.084   2.500  2.4945  2.4331  1.4763
  174DOPC     P21194   5.721   2.092   2.361  0.0331 -0.0930  0.2820
  174DOPC   O1321195   5.716   2.221   2.285  0.0129 -0.0351 -0.4903
  174DOPC   O1421196   5.726   1.972   2.285  0.0392 -0.0867  0.6322
  174DOPC   O1221197   5.601   2.086   2.459  0.8764 -0.1476  0.2377
  174DOPC   O1121198   5.846   2.090   2.452  0.0672  0.0298 -0.1561
  174DOPC    C121199   5.868   2.002   2.573 -0.1515 -0.3509  0.1740
  174DOPC    HA21200   5.977   2.008   2.595  0.2693  0.7826 -1.9516
  174DOPC    HB21201   5.855   1.895   2.546 -0.3125 -0.1244 -0.6620
  174DOPC    C221202   5.804   2.045   2.710  0.2402  0.0220  0.3192
  174DOPC    HS21203   5.695   2.053   2.689  0.2238 -0.6386  0.1262
  174DOPC   O2121204   5.862   2.171   2.749  0.2573  0.3804 -0.3794
  174DOPC   C2121205   5.787   2.263   2.805  0.5066 -0.9388 -0.5481
  174DOPC   O2221206   5.668   2.264   2.817 -0.0941  0.4184  0.3323
  174DOPC   C2221207   5.863   2.389   2.841 -0.6877  0.3716  0.2524
  174DOPC   H2R21208   5.828   2.483   2.792 -1.2366  0.0364  0.0004
  174DOPC   H2S21209   5.962   2.378   2.792 -0.1395 -0.0288  1.4164
  174DOPC    C321210   5.822   1.942   2.821 -0.1661  0.5331 -0.3935
  174DOPC    HX21211   5.932   1.943   2.839 -0.2882  2.5522  0.4643
  174DOPC    HY21212   5.782   1.843   2.789 -0.0666  0.2986  0.2043
  174DOPC   O3121213   5.760   1.987   2.951  0.5098 -0.3217  0.3058
  174DOPC   C3121214   5.625   1.979   2.963  0.1964 -0.3021  0.8739
  174DOPC   O3221215   5.549   1.942   2.875  0.3929  0.6104 -0.2341
  174DOPC   C3221216   5.593   2.029   3.102  0.0367  0.1497  0.2159
  174DOPC   H2X21217   5.605   2.138   3.084  0.9806 -0.2803 -2.2015
  174DOPC   H2Y21218   5.485   2.011   3.118 -0.4352  1.0734 -1.6367
  174DOPC   C2321219   5.867   2.402   2.992 -0.0279 -0.0854 -0.3660
  174DOPC   H3R21220   5.767   2.388   3.039 -0.7571 -0.8740 -2.0733
  174DOPC   H3S21221   5.906   2.499   3.031 -1.0264 -0.1153  0.7558
  174DOPC   C2421222   5.941   2.286   3.055  0.1046  0.1947 -0.2386
  174DOPC   H4R21223   6.045   2.295   3.017 -0.0074 -1.7859 -1.1018
  174DOPC   H4S21224   5.907   2.181   3.043  0.8259 -0.3053  1.6625
  174DOPC   C2521225   5.941   2.299   3.209 -0.1944 -0.4102  0.1560
  174DOPC   H5R21226   5.994   2.211   3.252  1.2056  0.2274 -0.2366
  174DOPC   H5S21227   5.833   2.313   3.234 -0.4333 -0.2049 -0.9204
  174DOPC   C2621228   6.013   2.433   3.256 -0.1585  0.1537 -0.2925
  174DOPC   H6R21229   5.946   2.520   3.241 -0.2111  0.0705 -0.5360
  174DOPC   H6S21230   6.095   2.443   3.182 -0.7611  1.0588 -0.8568
  174DOPC   C2721231   6.052   2.443   3.406  0.0868 -0.6433 -0.4290
  174DOPC   H7R21232   6.105   2.348   3.431 -0.5271 -1.2483 -1.3548
  174DOPC   H7S21233   5.954   2.435   3.459 -1.3121 -0.9414 -2.9134
  174DOPC   C2821234   6.138   2.557   3.448  0.1733  0.3739  0.1721
  174DOPC   H8R21235   6.238   2.557   3.400  0.0451  2.2045 -0.1699
  174DOPC   H8S21236   6.174   2.551   3.553  0.5367 -0.8654 -0.0126
  174DOPC   C2921237   6.084   2.691   3.427  0.3087 -0.6267  0.4404
  174DOPC   H9R21238   6.023   2.696   3.335  1.2007 -0.7996 -0.1855
  174DOPC  C21021239   6.091   2.798   3.505  0.0071 -0.1214  0.0592
  174DOPC  H10R21240   6.036   2.888   3.472  1.1110  0.4302 -0.3245
  174DOPC  C21121241   6.147   2.809   3.650  0.1333  0.6111  0.0343
  174DOPC  H11R21242   6.234   2.877   3.659  0.3030  0.1827  2.0939
  174DOPC  H11S21243   6.198   2.711   3.664  2.6378  1.5668 -1.5850
  174DOPC  C21221244   6.051   2.853   3.762  0.5741  0.9314  0.3359
  174DOPC  H12R21245   5.961   2.789   3.758  0.8510  0.4497  1.3743
  174DOPC  H12S21246   6.024   2.961   3.765  0.3118  0.9098  4.1868
  174DOPC  C21321247   6.103   2.817   3.899  0.5496  0.7189 -0.1561
  174DOPC  H13R21248   6.174   2.892   3.940  0.0998  0.7670  0.5535
  174DOPC  H13S21249   6.157   2.722   3.883  1.5803  1.3943 -0.8565
  174DOPC  C21421250   5.981   2.796   3.996  0.6986  0.3664 -0.0965
  174DOPC  H14R21251   5.900   2.751   3.935 -0.7140  0.2952  1.7483
  174DOPC  H14S21252   5.943   2.897   4.020  0.1152 -0.1911  1.4327
  174DOPC  C21521253   6.010   2.703   4.117  0.4924 -0.1674  0.1820
  174DOPC  H15R21254   5.919   2.711   4.180  1.0288  0.2985  0.9066
  174DOPC  H15S21255   6.097   2.732   4.179 -0.4021 -2.0629  2.4590
  174DOPC  C21621256   6.025   2.556   4.075 -0.5436 -0.1856 -0.4570
  174DOPC  H16R21257   6.108   2.537   4.004  0.5342 -0.3088  0.7926
  174DOPC  H16S21258   5.935   2.518   4.021 -0.3013 -0.2351 -0.8288
  174DOPC  C21721259   6.044   2.465   4.195 -0.1927 -0.0726  0.1386
  174DOPC  H17R21260   5.950   2.470   4.254  0.7940  0.5574  1.7236
  174DOPC  H17S21261   6.132   2.506   4.249 -0.7064  0.4230  0.6026
  174DOPC  C21821262   6.092   2.317   4.164 -0.5265 -0.3864  0.1868
  174DOPC  H18R21263   6.195   2.309   4.122 -1.1302  0.0618 -1.4424
  174DOPC  H18S21264   6.021   2.270   4.093 -0.6696 -0.8344  0.6234
  174DOPC  H18T21265   6.107   2.263   4.259 -1.0989  1.9293  1.6780
  174DOPC   C3321266   5.689   1.994   3.213  0.0813 -0.5567 -0.0840
  174DOPC   H3X21267   5.790   2.026   3.177 -1.2261  1.7840 -1.9949
  174DOPC   H3Y21268   5.682   1.886   3.235  1.0404 -0.3812  1.2549
  174DOPC   C3421269   5.672   2.079   3.344 -0.7454  0.4830  0.0079
  174DOPC   H4X21270   5.563   2.090   3.356 -1.1224  0.5939 -2.7533
  174DOPC   H4Y21271   5.726   2.176   3.349 -0.5108  0.2993  1.8920
  174DOPC   C3521272   5.720   1.991   3.456 -0.8369  0.1500 -0.6798
  174DOPC   H5X21273   5.822   1.949   3.441 -0.4782  0.9191 -0.4519
  174DOPC   H5Y21274   5.647   1.909   3.475  0.1951 -0.8036 -0.7596
  174DOPC   C3621275   5.729   2.074   3.587 -0.7983 -0.5090 -0.6807
  174DOPC   H6X21276   5.632   2.121   3.616 -1.4567 -1.7966 -0.7567
  174DOPC   H6Y21277   5.761   2.013   3.674  0.5746  0.9089 -0.1429
  174DOPC   C3721278   5.833   2.189   3.575 -0.0396 -0.0996 -0.2300
  174DOPC   H7X21279   5.930   2.154   3.533  0.6285  0.9513  0.3844
  174DOPC   H7Y21280   5.789   2.265   3.506 -0.5409 -1.9151 -1.9882
  174DOPC   C3821281   5.857   2.271   3.706  0.0989 -0.4115  0.2604
  174DOPC   H8X21282   5.933   2.346   3.676  0.5019 -1.0807 -0.4479
  174DOPC   H8Y21283   5.909   2.196   3.770  0.9501 -0.2859 -0.2673
  174DOPC   C3921284   5.730   2.326   3.758  0.4582  0.5626 -0.4563
  174DOPC   H9X21285   5.674   2.376   3.678  0.7485  0.5603 -0.6643
  174DOPC  C31021286   5.667   2.288   3.869  1.2181  0.2512 -0.3822
  174DOPC  H10X21287   5.582   2.349   3.903  0.9569 -1.3732  2.1951
  174DOPC  C31121288   5.721   2.198   3.980 -0.6485  0.1839 -0.0854
  174DOPC  H11X21289   5.828   2.172   3.970 -0.8379 -0.5060 -0.3796
  174DOPC  H11Y21290   5.671   2.099   3.993  0.2656 -0.3109 -0.2464
  174DOPC  C31221291   5.696   2.266   4.116  0.0492 -0.0252  0.1485
  174DOPC  H12X21292   5.590   2.298   4.124 -0.1532 -0.9556  1.3726
  174DOPC  H12Y21293   5.764   2.353   4.133  0.4249  0.2168 -2.2672
  174DOPC  C31321294   5.716   2.162   4.236 -0.6018 -0.4686 -0.4446
  174DOPC  H13X21295   5.636   2.085   4.242 -0.0487 -0.9467  1.8599
  174DOPC  H13Y21296   5.815   2.111   4.235 -0.2055  0.1969  1.1948
  174DOPC  C31421297   5.710   2.227   4.381  0.5153  0.3649 -0.2799
  174DOPC  H14X21298   5.785   2.308   4.384 -1.4684  2.2725  0.6226
  174DOPC  H14Y21299   5.607   2.268   4.376  0.0704 -0.8369 -2.4144
  174DOPC  C31521300   5.706   2.117   4.488 -0.1324  0.2629 -0.3076
  174DOPC  H15X21301   5.805   2.067   4.478 -0.1684 -0.1208  1.0439
  174DOPC  H15Y21302   5.643   2.027   4.472  1.8813 -1.1161 -0.8707
  174DOPC  C31621303   5.703   2.162   4.629 -0.1010  0.1973  0.2591
  174DOPC  H16X21304   5.767   2.252   4.636  1.0357 -0.6169  0.5615
  174DOPC  H16Y21305   5.599   2.185   4.662  0.1852  3.0933 -0.6435
  174DOPC  C31721306   5.761   2.043   4.711 -0.0377 -0.0546 -0.7980
  174DOPC  H17X21307   5.708   1.949   4.688  1.3250 -1.2062  0.5291
  174DOPC  H17Y21308   5.863   2.016   4.676 -0.6275 -0.3038 -2.3990
  174DOPC  C31821309   5.761   2.067   4.858  0.7418 -0.0003  0.8672
  174DOPC  H18X21310   5.657   2.068   4.898  0.9159 -1.1316  1.4037
  174DOPC  H18Y21311   5.812   1.988   4.917  0.9549  0.4030  1.2251
  174DOPC  H18Z21312   5.814   2.162   4.880 -1.2720  2.0153 -2.0973
  175DOPC     N21313   3.900   4.979   2.938 -0.4297  0.2457  0.3836
  175DOPC   C1221314   3.808   5.035   3.044 -0.0556  0.7711 -0.2058
  175DOPC  H12A21315   3.781   4.954   3.109  3.9767  0.2812  1.1784
  175DOPC  H12B21316   3.722   5.087   3.005 -1.0868 -0.4579  0.3785
  175DOPC   C1321317   4.007   4.889   2.999  0.3524  0.6650  0.1721
  175DOPC  H13A21318   4.094   4.946   3.028  0.9548  0.9292 -2.0474
  175DOPC  H13B21319   3.977   4.827   3.083  1.0086  1.0214  0.6757
  175DOPC  H13C21320   4.054   4.818   2.932 -1.3767 -1.5479  1.1545
  175DOPC   C1421321   3.967   5.084   2.860 -0.1315  0.5871  0.1079
  175DOPC  H14A21322   4.017   5.150   2.929  2.6471 -0.9826 -0.2713
  175DOPC  H14B21323   4.044   5.041   2.798 -1.5277 -0.1362 -1.1780
  175DOPC  H14C21324   3.892   5.135   2.801 -2.3418  0.7182  2.8431
  175DOPC   C1521325   3.823   4.890   2.848  0.7315 -1.0009  0.7367
  175DOPC  H15A21326   3.730   4.933   2.815  0.5179 -2.8010 -1.1765
  175DOPC  H15B21327   3.778   4.808   2.901 -1.2024 -1.0697 -0.8879
  175DOPC  H15C21328   3.872   4.849   2.760 -1.4529  0.5433 -1.3116
  175DOPC   C1121329   3.888   5.125   3.139 -0.8712  0.4924 -0.3627
  175DOPC  H11A21330   3.829   5.151   3.229  0.8840  0.7784  0.7597
  175DOPC  H11B21331   3.969   5.068   3.190 -1.5833  2.4137  3.1848
  175DOPC     P21332   3.841   5.372   3.056 -0.0462  0.5370  0.3740
  175DOPC   O1321333   3.716   5.318   2.991 -0.2169  0.2754  0.0072
  175DOPC   O1421334   3.932   5.473   2.995  0.7636  0.4712 -0.6872
  175DOPC   O1221335   3.939   5.254   3.092  0.9010  0.4990 -0.3557
  175DOPC   O1121336   3.793   5.420   3.201  0.0038 -0.2606 -0.0829
  175DOPC    C121337   3.870   5.488   3.300 -0.5249  0.4982  0.8478
  175DOPC    HA21338   3.811   5.543   3.376  3.7612  4.5647  1.6765
  175DOPC    HB21339   3.955   5.549   3.263 -0.4710  0.0713  0.2539
  175DOPC    C221340   3.948   5.385   3.389  0.2746 -0.4120 -0.5807
  175DOPC    HS21341   4.015   5.326   3.322  0.7930  1.0198 -1.3568
  175DOPC   O2121342   3.869   5.289   3.458  0.4248 -0.0748  0.4107
  175DOPC   C2121343   3.933   5.186   3.510 -0.8306  0.3413  0.2238
  175DOPC   O2221344   4.054   5.166   3.496  0.2354 -0.3295 -0.1298
  175DOPC   C2221345   3.838   5.098   3.584  0.0048  0.3011  0.2483
  175DOPC   H2R21346   3.747   5.083   3.523  0.3126 -0.0164 -0.1389
  175DOPC   H2S21347   3.814   5.150   3.679 -1.9669  1.9513 -1.0920
  175DOPC    C321348   4.043   5.455   3.497 -0.5958 -0.2996  0.4441
  175DOPC    HX21349   4.095   5.531   3.435  0.6599 -2.9085 -1.9451
  175DOPC    HY21350   4.124   5.389   3.535  0.7843  1.2049  0.2257
  175DOPC   O3121351   3.965   5.518   3.606 -0.0542  0.0043  0.1066
  175DOPC   C3121352   3.955   5.452   3.722 -0.1873  0.2667  0.5404
  175DOPC   O3221353   3.999   5.344   3.742 -0.0269 -0.3197  0.3129
  175DOPC   C3221354   3.878   5.533   3.825 -0.1762 -0.3133 -0.5029
  175DOPC   H2X21355   3.888   5.640   3.798 -1.8096  0.8713  3.0371
  175DOPC   H2Y21356   3.770   5.510   3.816 -0.0835 -0.9974  0.0947
  175DOPC   C2321357   3.893   4.955   3.612 -0.3021  1.1805  0.2002
  175DOPC   H3R21358   3.979   4.963   3.682  0.3261 -1.3491 -0.2103
  175DOPC   H3S21359   3.929   4.912   3.516  1.5246  2.4853  0.2380
  175DOPC   C2421360   3.789   4.859   3.680  0.3335 -0.2005  0.3962
  175DOPC   H4R21361   3.823   4.753   3.686 -0.0323 -0.2947  0.8714
  175DOPC   H4S21362   3.694   4.867   3.623  0.5847  2.0382  0.1924
  175DOPC   C2521363   3.758   4.901   3.823 -1.0591 -0.0949  0.0374
  175DOPC   H5R21364   3.659   4.861   3.853 -1.3569  0.3142 -0.3808
  175DOPC   H5S21365   3.744   5.011   3.819 -2.0663 -0.2508 -2.1342
  175DOPC   C2621366   3.869   4.852   3.921  0.5693  0.5974  0.1153
  175DOPC   H6R21367   3.966   4.889   3.882  0.3084  1.4565  0.2480
  175DOPC   H6S21368   3.874   4.741   3.921  1.7827  0.6007  2.0939
  175DOPC   C2721369   3.862   4.901   4.070 -0.1299  0.1026  0.1287
  175DOPC   H7R21370   3.954   4.852   4.108  0.6246  1.3592 -0.0096
  175DOPC   H7S21371   3.779   4.860   4.132  0.5385  2.7058  2.9824
  175DOPC   C2821372   3.869   5.055   4.075 -0.4222  0.0612 -0.7101
  175DOPC   H8R21373   3.844   5.081   4.180 -0.3090 -0.2284 -0.6093
  175DOPC   H8S21374   3.791   5.090   4.005  0.0146  1.8869 -0.3287
  175DOPC   C2921375   4.002   5.115   4.042 -0.3252 -0.0034 -0.5501
  175DOPC   H9R21376   4.014   5.157   3.941 -2.5110 -0.6390 -1.1186
  175DOPC  C21021377   4.100   5.135   4.130  0.2017 -0.6285 -0.6642
  175DOPC  H10R21378   4.189   5.188   4.092 -0.0099  0.2037 -0.0282
  175DOPC  C21121379   4.112   5.114   4.279 -0.1537  0.2199  0.0981
  175DOPC  H11R21380   4.208   5.061   4.301  0.8042  1.3983 -1.0754
  175DOPC  H11S21381   4.037   5.045   4.321  1.6785 -1.0594  1.4261
  175DOPC  C21221382   4.105   5.250   4.354  0.5395 -0.3110  0.0100
  175DOPC  H12R21383   4.020   5.313   4.320  0.8499 -0.2846 -0.7224
  175DOPC  H12S21384   4.196   5.309   4.334  0.1306  0.7969  1.2130
  175DOPC  C21321385   4.099   5.231   4.505  0.0719  0.1420  0.1677
  175DOPC  H13R21386   4.018   5.168   4.548  0.5031 -0.2541  0.4072
  175DOPC  H13S21387   4.092   5.330   4.556  1.6738  0.3562  0.0025
  175DOPC  C21421388   4.231   5.172   4.559  0.1857 -0.8013 -0.0250
  175DOPC  H14R21389   4.234   5.072   4.511 -1.2398 -0.9105  0.0807
  175DOPC  H14S21390   4.225   5.161   4.669  1.1461 -0.9091  0.0265
  175DOPC  C21521391   4.360   5.250   4.531 -0.1197  0.2449 -0.2111
  175DOPC  H15R21392   4.338   5.353   4.564  0.9900  0.3906  0.0998
  175DOPC  H15S21393   4.365   5.248   4.420 -2.3278  1.2403 -0.3763
  175DOPC  C21621394   4.495   5.192   4.591  0.2631 -0.7212  0.0208
  175DOPC  H16R21395   4.498   5.085   4.562  0.4042 -0.7495  0.1371
  175DOPC  H16S21396   4.474   5.183   4.700  0.6253 -3.2485 -0.0443
  175DOPC  C21721397   4.622   5.263   4.556 -0.1576  0.2159 -0.2570
  175DOPC  H17R21398   4.639   5.231   4.450  0.7030 -1.9924  0.4889
  175DOPC  H17S21399   4.711   5.228   4.613 -0.6436  2.8421  2.3487
  175DOPC  C21821400   4.617   5.415   4.577 -0.5494 -0.1857 -0.1740
  175DOPC  H18R21401   4.606   5.441   4.684  1.0904 -0.4489  0.0780
  175DOPC  H18S21402   4.543   5.467   4.512  0.6081  0.2922 -1.1599
  175DOPC  H18T21403   4.713   5.457   4.540  0.0516 -1.5403 -0.2262
  175DOPC   C3321404   3.925   5.523   3.972 -0.8169 -0.0834 -0.0253
  175DOPC   H3X21405   4.027   5.481   3.963 -1.2483 -1.1330 -0.2011
  175DOPC   H3Y21406   3.863   5.454   4.033 -0.3008 -0.6442 -0.1306
  175DOPC   C3421407   3.909   5.661   4.032  0.5257  0.2944 -0.0416
  175DOPC   H4X21408   3.993   5.727   4.000  1.5340  0.9068  3.4015
  175DOPC   H4Y21409   3.908   5.662   4.143 -0.0326 -1.3980 -0.0058
  175DOPC   C3521410   3.769   5.724   4.020 -0.0558  0.1915  0.5683
  175DOPC   H5X21411   3.696   5.640   4.020  1.0389 -0.7839  0.5261
  175DOPC   H5Y21412   3.760   5.773   3.921 -1.8101  0.0794  0.6408
  175DOPC   C3621413   3.745   5.840   4.111  0.0252  0.0394  0.2326
  175DOPC   H6X21414   3.837   5.901   4.122 -0.8638  1.5972 -0.6020
  175DOPC   H6Y21415   3.662   5.900   4.068 -0.6996 -0.7590  0.4903
  175DOPC   C3721416   3.701   5.787   4.247  0.4464  0.7305  0.3174
  175DOPC   H7X21417   3.607   5.731   4.229  0.5114  1.2034 -1.7269
  175DOPC   H7Y21418   3.779   5.718   4.286 -1.3065 -1.5394 -0.0178
  175DOPC   C3821419   3.650   5.889   4.356  0.6090  0.0022  0.7102
  175DOPC   H8X21420   3.572   5.839   4.417  0.8531  0.8789  1.7700
  175DOPC   H8Y21421   3.585   5.965   4.306 -0.0247 -0.7922  0.2932
  175DOPC   C3921422   3.751   5.953   4.439 -0.4639 -0.3701  0.2042
  175DOPC   H9X21423   3.847   5.968   4.388  0.0857 -2.0020  0.6918
  175DOPC  C31021424   3.737   5.975   4.571 -0.2189  0.2931 -0.5648
  175DOPC  H10X21425   3.826   5.991   4.633  0.0894 -3.4988  0.1978
  175DOPC  C31121426   3.604   5.962   4.639 -0.2280 -0.2638  0.3350
  175DOPC  H11X21427   3.606   5.862   4.687  0.0197  0.5323  2.0526
  175DOPC  H11Y21428   3.514   5.970   4.574 -0.6611  0.0119  0.9565
  175DOPC  C31221429   3.569   6.059   4.756  0.3173  0.7575  0.0526
  175DOPC  H12X21430   3.589   6.160   4.713 -1.1092  0.5297 -1.2335
  175DOPC  H12Y21431   3.642   6.038   4.837 -2.2390 -2.5073  1.7076
  175DOPC  C31321432   3.432   6.033   4.821  0.4107 -0.2453 -0.6295
  175DOPC  H13X21433   3.351   6.049   4.747 -1.4870 -2.1374  0.9274
  175DOPC  H13Y21434   3.416   5.931   4.861 -1.2624  0.2477  0.0558
  175DOPC  C31421435   3.408   6.123   4.944  0.4868  0.2798  0.6694
  175DOPC  H14X21436   3.441   6.225   4.916  1.9366  0.5461  3.0147
  175DOPC  H14Y21437   3.298   6.137   4.953  0.1894 -2.0220  1.3400
  175DOPC  C31521438   3.478   6.078   5.068 -0.3688 -0.1549 -0.5189
  175DOPC  H15X21439   3.587   6.077   5.049 -0.6517  2.4741 -2.9639
  175DOPC  H15Y21440   3.448   5.979   5.109  0.1397 -0.5671 -1.1386
  175DOPC  C31621441   3.456   6.196   5.168  0.2505  0.4537  0.1929
  175DOPC  H16X21442   3.507   6.279   5.115 -0.9576 -0.3972 -2.4670
  175DOPC  H16Y21443   3.347   6.219   5.166  0.1193 -0.1331  0.2252
  175DOPC  C31721444   3.511   6.178   5.303  0.4679 -0.3488 -0.5339
  175DOPC  H17X21445   3.479   6.258   5.374  2.0747  0.9655 -1.2146
  175DOPC  H17Y21446   3.480   6.079   5.343  2.9061 -0.4549  1.3428
  175DOPC  C31821447   3.667   6.184   5.307  0.3353 -0.5719 -0.3835
  175DOPC  H18X21448   3.713   6.091   5.267  1.8692 -0.8247  1.7756
  175DOPC  H18Y21449   3.712   6.266   5.247  1.2478 -1.5988 -1.1382
  175DOPC  H18Z21450   3.697   6.191   5.414 -2.9195 -1.5226  0.7137
  176DOPC     N21451   3.611   1.085   3.009  0.2829 -0.0208 -0.2087
  176DOPC   C1221452   3.557   0.986   2.909  0.0074 -0.4196  0.1654
  176DOPC  H12A21453   3.639   0.934   2.862  0.7935  0.8669  0.0543
  176DOPC  H12B21454   3.507   1.039   2.829  1.7798  0.7919 -0.1776
  176DOPC   C1321455   3.689   1.191   2.941  0.2432  0.3083 -0.1349
  176DOPC  H13A21456   3.723   1.267   3.009 -0.8027  0.6515  0.0119
  176DOPC  H13B21457   3.767   1.153   2.876  0.5242 -0.3143  0.5514
  176DOPC  H13C21458   3.631   1.242   2.865 -1.5438 -1.7108 -0.2266
  176DOPC   C1421459   3.691   1.025   3.124 -0.6604 -0.1479 -0.1154
  176DOPC  H14A21460   3.631   0.953   3.178  0.2005 -0.2388  0.7485
  176DOPC  H14B21461   3.787   0.994   3.087  1.7321  3.7095  2.1393
  176DOPC  H14C21462   3.708   1.106   3.193 -2.0379 -0.4903  0.6650
  176DOPC   C1521463   3.502   1.161   3.076 -1.2005  0.6251 -0.5802
  176DOPC  H15A21464   3.433   1.194   3.000 -0.4349  0.4137 -1.3800
  176DOPC  H15B21465   3.539   1.251   3.122 -1.5743 -0.1529  1.3320
  176DOPC  H15C21466   3.452   1.103   3.152  0.6336 -1.3556 -0.7905
  176DOPC   C1121467   3.451   0.885   2.957 -0.1474 -1.1454 -0.3660
  176DOPC  H11A21468   3.351   0.929   2.974 -1.0841 -2.5156 -1.9500
  176DOPC  H11B21469   3.432   0.816   2.871  1.1826 -0.6119 -1.1282
  176DOPC     P21470   3.585   0.677   3.042 -0.4875 -0.1148  0.3714
  176DOPC   O1321471   3.657   0.692   2.914 -0.3365  0.0499 -0.1905
  176DOPC   O1421472   3.497   0.554   3.064 -0.3688 -0.2224  0.8548
  176DOPC   O1221473   3.492   0.806   3.066 -0.5491 -0.5707  0.0119
  176DOPC   O1121474   3.692   0.671   3.154 -0.2555 -0.2975  0.0895
  176DOPC    C121475   3.658   0.697   3.293 -0.0879 -0.1480 -0.2008
  176DOPC    HA21476   3.597   0.609   3.323 -1.2235  1.0490  1.1581
  176DOPC    HB21477   3.594   0.787   3.307 -0.5645 -0.4950 -0.1348
  176DOPC    C221478   3.782   0.685   3.380 -0.0967 -0.5872 -0.2121
  176DOPC    HS21479   3.822   0.581   3.375  0.0046 -0.6305  1.0397
  176DOPC   O2121480   3.773   0.729   3.517  1.0826 -0.8565 -0.6228
  176DOPC   C2121481   3.696   0.646   3.591  0.8349  0.4645  0.2797
  176DOPC   O2221482   3.642   0.547   3.550  0.3873 -0.4898  0.8391
  176DOPC   C2221483   3.673   0.706   3.725  0.7573  0.4295  0.6654
  176DOPC   H2R21484   3.607   0.794   3.715 -0.1592 -0.3830 -0.9250
  176DOPC   H2S21485   3.773   0.733   3.764  2.6742 -2.5604 -1.7330
  176DOPC    C321486   3.896   0.771   3.317  0.5926  0.7518 -0.3501
  176DOPC    HX21487   3.841   0.859   3.278  1.7396  1.6942  0.0869
  176DOPC    HY21488   3.943   0.720   3.229  1.7937 -2.7245  2.0519
  176DOPC   O3121489   3.986   0.832   3.409  0.2378 -0.6016 -0.1796
  176DOPC   C3121490   4.081   0.747   3.456  0.1608 -0.4578 -0.0570
  176DOPC   O3221491   4.093   0.632   3.415  0.1406  0.1526  0.2988
  176DOPC   C3221492   4.162   0.817   3.562 -0.0982 -0.5775 -0.0565
  176DOPC   H2X21493   4.236   0.881   3.509  2.4879 -1.6740  1.9481
  176DOPC   H2Y21494   4.087   0.876   3.619  0.2229  0.5484 -0.7722
  176DOPC   C2321495   3.598   0.608   3.829 -0.1395 -0.1486 -0.0528
  176DOPC   H3R21496   3.634   0.503   3.822 -2.3473 -1.1297  2.1204
  176DOPC   H3S21497   3.490   0.615   3.804 -0.2966 -1.1857  0.3103
  176DOPC   C2421498   3.617   0.659   3.969 -0.0838  0.1106 -0.0513
  176DOPC   H4R21499   3.722   0.675   4.000 -0.6394 -0.8384  2.5431
  176DOPC   H4S21500   3.577   0.586   4.042 -1.4427  0.8114 -0.0485
  176DOPC   C2521501   3.551   0.798   3.997 -0.8490  0.3843  0.6021
  176DOPC   H5R21502   3.585   0.868   3.917  2.0680  0.8208  2.0849
  176DOPC   H5S21503   3.584   0.839   4.095  0.1185 -0.6286  0.7131
  176DOPC   C2621504   3.401   0.797   3.997  0.3816 -0.2555  0.9644
  176DOPC   H6R21505   3.352   0.746   4.083  0.6027 -0.7541  0.8004
  176DOPC   H6S21506   3.349   0.750   3.911 -1.5979  0.7144  1.5655
  176DOPC   C2721507   3.340   0.941   4.013  0.2090  0.1645  0.4999
  176DOPC   H7R21508   3.378   0.998   3.926 -0.3764 -0.0789  0.0775
  176DOPC   H7S21509   3.388   0.984   4.103  1.2595  1.4928 -0.6496
  176DOPC   C2821510   3.187   0.947   4.016  0.4686  0.9387  0.4113
  176DOPC   H8R21511   3.142   0.874   4.087  3.4323  0.2524  1.7293
  176DOPC   H8S21512   3.144   0.919   3.917 -1.6418  5.4715 -0.1872
  176DOPC   C2921513   3.117   1.082   4.036 -0.5537 -0.4211  0.2107
  176DOPC   H9R21514   3.133   1.155   3.955  2.7637  0.6902  1.6978
  176DOPC  C21021515   3.024   1.117   4.133 -0.1811 -0.1922  0.1430
  176DOPC  H10R21516   2.983   1.220   4.134  0.7548  0.2546 -2.0503
  176DOPC  C21121517   2.972   1.026   4.247  0.0497  0.2397  0.4221
  176DOPC  H11R21518   3.047   0.951   4.280 -0.1509 -1.4322 -2.5618
  176DOPC  H11S21519   2.891   0.958   4.212  1.6196 -3.0448  2.6524
  176DOPC  C21221520   2.928   1.112   4.362  0.8268  0.1867  0.3054
  176DOPC  H12R21521   2.875   1.203   4.329  0.2481  0.1994  1.2350
  176DOPC  H12S21522   3.008   1.162   4.421  0.5911  1.4769 -0.4335
  176DOPC  C21321523   2.819   1.042   4.441  0.1806  0.2234 -0.6590
  176DOPC  H13R21524   2.855   0.942   4.474 -0.8663  0.7016  2.2895
  176DOPC  H13S21525   2.723   1.022   4.388 -1.9166 -0.2513  2.9175
  176DOPC  C21421526   2.770   1.113   4.565 -0.1273  0.1595  0.1335
  176DOPC  H14R21527   2.749   1.218   4.537  0.8252 -0.0429 -1.4704
  176DOPC  H14S21528   2.857   1.109   4.634 -0.2514 -2.0457  0.2345
  176DOPC  C21521529   2.658   1.053   4.646 -0.9228 -0.9424  0.4778
  176DOPC  H15R21530   2.695   0.955   4.683  0.2832  0.1983  2.4783
  176DOPC  H15S21531   2.569   1.050   4.580 -0.9176  2.3588  0.1571
  176DOPC  C21621532   2.622   1.137   4.777 -0.1118  0.1293  0.7406
  176DOPC  H16R21533   2.711   1.140   4.844  1.5559 -2.4579 -1.1398
  176DOPC  H16S21534   2.541   1.078   4.826 -0.7982  2.0169  1.9535
  176DOPC  C21721535   2.578   1.280   4.746  0.4273  0.1786  0.0993
  176DOPC  H17R21536   2.506   1.281   4.662  0.0244  0.5211  0.4506
  176DOPC  H17S21537   2.671   1.334   4.718  1.4771 -1.1350  0.9107
  176DOPC  C21821538   2.521   1.343   4.876 -0.2036 -1.0199  0.5899
  176DOPC  H18R21539   2.596   1.346   4.958 -1.2674 -0.3334  1.5472
  176DOPC  H18S21540   2.430   1.287   4.905 -0.6444 -0.1798  0.8384
  176DOPC  H18T21541   2.490   1.448   4.862 -0.1029 -0.9975  0.5329
  176DOPC   C3321542   4.233   0.713   3.657  0.0524 -0.4187 -0.3024
  176DOPC   H3X21543   4.318   0.655   3.615  3.3033  4.0129 -0.5746
  176DOPC   H3Y21544   4.169   0.634   3.702  0.2725 -0.3848  0.0796
  176DOPC   C3421545   4.301   0.791   3.780  0.2993 -0.5393  0.2194
  176DOPC   H4X21546   4.212   0.842   3.824 -1.3296 -2.7860 -0.2626
  176DOPC   H4Y21547   4.374   0.867   3.748 -1.5453  2.1370  1.9653
  176DOPC   C3521548   4.343   0.710   3.901 -0.8551  0.3079 -0.2218
  176DOPC   H5X21549   4.402   0.623   3.866 -0.7213  1.3538 -2.8181
  176DOPC   H5Y21550   4.250   0.673   3.950  0.2245 -0.3546  1.4274
  176DOPC   C3621551   4.428   0.782   4.012  0.3987  0.9383  0.2173
  176DOPC   H6X21552   4.375   0.873   4.046 -2.1382 -0.8578  1.4172
  176DOPC   H6Y21553   4.442   0.711   4.096  0.8328  1.2971  0.4510
  176DOPC   C3721554   4.567   0.815   3.973 -0.7636  0.4369 -0.5832
  176DOPC   H7X21555   4.602   0.719   3.931 -1.9926 -0.3024  0.0129
  176DOPC   H7Y21556   4.559   0.903   3.906 -0.1461  0.8380 -0.1411
  176DOPC   C3821557   4.647   0.880   4.088  0.0375  0.1272  0.1249
  176DOPC   H8X21558   4.753   0.906   4.065 -0.7331  2.3070 -1.2071
  176DOPC   H8Y21559   4.661   0.795   4.159  0.0179  0.3425  0.3867
  176DOPC   C3921560   4.580   1.003   4.151  0.2623  0.0871 -0.5064
  176DOPC   H9X21561   4.568   1.087   4.080  2.0498  0.9149  0.0967
  176DOPC  C31021562   4.528   1.021   4.273 -0.0297  0.4332  0.6019
  176DOPC  H10X21563   4.489   1.121   4.298 -0.7087  0.0586  1.0773
  176DOPC  C31121564   4.513   0.919   4.390 -0.6405  0.2795  0.1225
  176DOPC  H11X21565   4.571   0.941   4.481  0.1068 -0.5244 -0.1422
  176DOPC  H11Y21566   4.539   0.815   4.361  2.4517  1.4665 -1.9251
  176DOPC  C31221567   4.370   0.918   4.434 -0.2168 -0.1612  0.0168
  176DOPC  H12X21568   4.354   1.015   4.485  5.0904  0.3803  1.2027
  176DOPC  H12Y21569   4.360   0.842   4.514  1.8338 -0.5147 -0.0040
  176DOPC  C31321570   4.265   0.878   4.329 -0.4280  0.0124 -0.4037
  176DOPC  H13X21571   4.279   0.960   4.255  0.2984 -1.3704 -1.8726
  176DOPC  H13Y21572   4.302   0.784   4.282  0.7520  0.1694  0.1607
  176DOPC  C31421573   4.116   0.864   4.375  0.2960  0.0649 -0.6416
  176DOPC  H14X21574   4.102   0.784   4.450 -1.5827  0.4148 -0.5791
  176DOPC  H14Y21575   4.081   0.958   4.423  4.2549  1.7927 -0.7741
  176DOPC  C31521576   4.020   0.831   4.258 -0.8347  0.1129  0.1572
  176DOPC  H15X21577   3.917   0.832   4.300 -1.8693 -2.9534 -1.9671
  176DOPC  H15Y21578   4.041   0.724   4.239 -2.1376 -0.2332  0.5802
  176DOPC  C31621579   4.021   0.912   4.131 -0.1371  0.7184  0.2831
  176DOPC  H16X21580   4.028   1.019   4.157  1.2216  0.4651  1.0671
  176DOPC  H16Y21581   4.123   0.884   4.097 -0.8081 -1.9862  0.2139
  176DOPC  C31721582   3.915   0.878   4.027  0.2848 -0.3141 -0.0641
  176DOPC  H17X21583   3.943   0.780   3.982 -2.3941 -2.6247  2.8552
  176DOPC  H17Y21584   3.810   0.869   4.060 -0.1172 -0.6546 -1.3728
  176DOPC  C31821585   3.918   0.988   3.918  0.5609 -0.2207  0.3914
  176DOPC  H18X21586   3.847   0.957   3.838 -1.3320  1.7912  1.1983
  176DOPC  H18Y21587   3.886   1.089   3.952 -2.0853 -0.8873  0.0874
  176DOPC  H18Z21588   4.023   0.990   3.881  1.1107  0.5313  1.9246
  177DOPC     N21589   5.741   4.779   2.705  0.3446 -0.8430 -0.9139
  177DOPC   C1221590   5.837   4.693   2.777 -0.0056 -0.0447 -0.6798
  177DOPC  H12A21591   5.913   4.754   2.822  1.4198 -0.9609 -1.7741
  177DOPC  H12B21592   5.878   4.633   2.697  0.8363 -1.8205  1.0246
  177DOPC   C1321593   5.677   4.877   2.808 -0.2898 -0.2948  0.1468
  177DOPC  H13A21594   5.640   4.827   2.896 -0.7142 -0.5737 -0.1846
  177DOPC  H13B21595   5.755   4.945   2.838  2.0015 -2.7503  0.0695
  177DOPC  H13C21596   5.594   4.932   2.765  0.5406  0.4390 -0.5482
  177DOPC   C1421597   5.635   4.707   2.638  0.3226 -0.0942  0.0974
  177DOPC  H14A21598   5.669   4.653   2.551  0.4129  0.3169 -0.1215
  177DOPC  H14B21599   5.589   4.636   2.706 -2.5618  1.3909 -0.1489
  177DOPC  H14C21600   5.553   4.774   2.618  0.3752 -0.1653 -0.3792
  177DOPC   C1521601   5.805   4.873   2.598  0.1328 -0.3228 -0.0425
  177DOPC  H15A21602   5.724   4.920   2.544 -0.1641  0.0939  0.7481
  177DOPC  H15B21603   5.865   4.813   2.531 -1.8845 -0.7623 -1.5471
  177DOPC  H15C21604   5.863   4.956   2.638 -1.7454  1.2514 -0.4515
  177DOPC   C1121605   5.778   4.598   2.888 -0.4193  0.3852  0.3461
  177DOPC  H11A21606   5.867   4.556   2.939  0.6755  0.9004 -1.0696
  177DOPC  H11B21607   5.712   4.654   2.957 -2.6765 -1.5804 -0.0584
  177DOPC     P21608   5.763   4.362   2.773  0.1353  0.3486 -0.6522
  177DOPC   O1321609   5.794   4.386   2.629  0.2278 -0.2486  0.3431
  177DOPC   O1421610   5.668   4.251   2.808  0.1790  0.0866 -0.0003
  177DOPC   O1221611   5.698   4.496   2.821  0.2581 -0.7897  0.1160
  177DOPC   O1121612   5.898   4.341   2.853  0.4101  0.6748 -0.5271
  177DOPC    C121613   5.943   4.222   2.914 -0.3098  0.1394  0.0443
  177DOPC    HA21614   6.052   4.235   2.927 -0.4916 -0.1247  2.1544
  177DOPC    HB21615   5.938   4.134   2.845  0.5549  0.9730 -1.1136
  177DOPC    C221616   5.878   4.197   3.044 -0.4367 -0.0052 -0.6315
  177DOPC    HS21617   5.786   4.137   3.025 -1.0358  0.4745  0.6133
  177DOPC   O2121618   5.874   4.330   3.111  0.2360 -0.0659 -0.2893
  177DOPC   C2121619   5.762   4.339   3.188 -1.4113  0.8048  0.3279
  177DOPC   O2221620   5.687   4.246   3.209  0.0024  0.2693  0.2409
  177DOPC   C2221621   5.762   4.469   3.263 -0.3249  0.9363 -0.1286
  177DOPC   H2R21622   5.735   4.550   3.191  1.7545  0.6706 -1.2842
  177DOPC   H2S21623   5.861   4.490   3.308  0.3809  1.8595 -1.9842
  177DOPC    C321624   5.962   4.090   3.130 -0.2174  0.4526 -0.3282
  177DOPC    HX21625   6.066   4.128   3.136 -0.0976  0.2211 -0.8541
  177DOPC    HY21626   5.959   3.992   3.078 -2.1464  0.3616 -0.1134
  177DOPC   O3121627   5.905   4.070   3.263  0.4523  0.0462  0.0346
  177DOPC   C3121628   5.794   3.995   3.278  0.4905  0.0767  0.0825
  177DOPC   O3221629   5.753   3.923   3.189  0.3505  0.6196 -0.1065
  177DOPC   C3221630   5.759   3.982   3.429  0.0477 -0.1880  0.2725
  177DOPC   H2X21631   5.655   3.944   3.423 -0.7466  1.9975 -1.6652
  177DOPC   H2Y21632   5.815   3.901   3.480 -1.2015 -0.8853  0.5534
  177DOPC   C2321633   5.670   4.474   3.381  0.0434 -0.1437  0.3888
  177DOPC   H3R21634   5.714   4.434   3.475 -0.9183  0.6411  1.1948
  177DOPC   H3S21635   5.585   4.405   3.362  0.9122 -0.7075 -1.8424
  177DOPC   C2421636   5.602   4.614   3.424 -0.6153 -0.0162 -0.0997
  177DOPC   H4R21637   5.516   4.585   3.488  0.2036 -0.5381  0.8003
  177DOPC   H4S21638   5.567   4.666   3.332 -0.7787  1.2096  0.6302
  177DOPC   C2521639   5.703   4.700   3.500  0.7810  0.2223 -0.1544
  177DOPC   H5R21640   5.786   4.730   3.434 -1.5510  0.4791 -3.2064
  177DOPC   H5S21641   5.745   4.651   3.591  0.8469 -1.1143 -0.8781
  177DOPC   C2621642   5.643   4.826   3.552 -0.2202  0.5044  0.1806
  177DOPC   H6R21643   5.551   4.791   3.604  0.9506 -0.3425  1.7777
  177DOPC   H6S21644   5.615   4.889   3.466  3.2725 -0.0087 -1.4964
  177DOPC   C2721645   5.719   4.915   3.658 -0.1938  0.5028  0.1483
  177DOPC   H7R21646   5.744   4.851   3.745  2.1903  1.4589  0.2245
  177DOPC   H7S21647   5.651   5.000   3.682  0.6413  0.9348  1.0192
  177DOPC   C2821648   5.850   4.984   3.604  0.8087  0.4146 -0.5346
  177DOPC   H8R21649   5.863   5.073   3.668 -0.6006 -1.1155  2.0248
  177DOPC   H8S21650   5.837   5.011   3.497 -1.6367  0.5384 -0.2615
  177DOPC   C2921651   5.971   4.895   3.611 -0.5415  0.2572  0.6891
  177DOPC   H9R21652   5.965   4.794   3.569 -1.2244  0.1991  0.9099
  177DOPC  C21021653   6.087   4.924   3.675  0.0682  0.1670  0.2245
  177DOPC  H10R21654   6.167   4.848   3.672  0.3478  0.4568  0.2347
  177DOPC  C21121655   6.129   5.041   3.760  0.3511  0.4283 -0.6418
  177DOPC  H11R21656   6.043   5.111   3.773 -1.9070 -1.9348 -1.9573
  177DOPC  H11S21657   6.209   5.093   3.702  0.5640  1.7024  0.7101
  177DOPC  C21221658   6.187   5.009   3.900 -0.3121 -0.4733 -0.2556
  177DOPC  H12R21659   6.273   4.940   3.883 -0.4285 -0.5484 -0.5429
  177DOPC  H12S21660   6.116   4.954   3.964 -0.7840 -1.6926 -1.7630
  177DOPC  C21321661   6.241   5.137   3.965  0.3370  0.4932 -0.3994
  177DOPC  H13R21662   6.153   5.193   4.002  0.2526  0.2249 -0.1907
  177DOPC  H13S21663   6.289   5.212   3.898  1.7362 -0.6407 -0.7216
  177DOPC  C21421664   6.326   5.103   4.085 -0.3805 -0.2099 -0.8283
  177DOPC  H14R21665   6.422   5.066   4.045 -0.0096 -0.5279  0.3208
  177DOPC  H14S21666   6.286   5.025   4.153 -0.3711  0.8294  0.4108
  177DOPC  C21521667   6.348   5.231   4.168 -0.0084 -0.1708 -0.1016
  177DOPC  H15R21668   6.247   5.270   4.193 -0.4286 -1.3091  0.0500
  177DOPC  H15S21669   6.388   5.305   4.096 -0.6426 -1.7490 -2.1669
  177DOPC  C21621670   6.430   5.222   4.295  0.6432  0.3402 -0.5200
  177DOPC  H16R21671   6.403   5.130   4.352  0.7398  0.1445 -0.7859
  177DOPC  H16S21672   6.400   5.313   4.352 -0.2428  0.0519 -0.5035
  177DOPC  C21721673   6.579   5.225   4.271 -0.1515 -0.0351  0.0057
  177DOPC  H17R21674   6.604   5.308   4.202  0.6706  1.8804  2.4408
  177DOPC  H17S21675   6.618   5.140   4.212  1.7511 -1.2682  2.7862
  177DOPC  C21821676   6.666   5.237   4.399 -0.0221 -0.1764 -0.5178
  177DOPC  H18R21677   6.662   5.152   4.471 -0.5505  0.1903 -0.1062
  177DOPC  H18S21678   6.622   5.316   4.463  0.0991 -1.3392  1.0969
  177DOPC  H18T21679   6.772   5.258   4.373  0.6177  0.1485  2.0546
  177DOPC   C3321680   5.754   4.115   3.502  0.7646  0.1762  0.1757
  177DOPC   H3X21681   5.708   4.190   3.434  0.8471  0.9564  0.9632
  177DOPC   H3Y21682   5.860   4.141   3.524  1.0026 -2.1704  2.3155
  177DOPC   C3421683   5.677   4.095   3.629  0.3154 -0.6356 -0.8023
  177DOPC   H4X21684   5.567   4.095   3.608  0.0372 -0.5434  0.5438
  177DOPC   H4Y21685   5.697   4.177   3.702 -0.2672 -0.3470 -0.9536
  177DOPC   C3521686   5.716   3.972   3.709 -0.2982 -0.4221  0.1797
  177DOPC   H5X21687   5.825   3.952   3.705 -0.3167 -0.4571 -0.0933
  177DOPC   H5Y21688   5.661   3.889   3.660  0.3026 -1.4107  1.1195
  177DOPC   C3621689   5.672   3.977   3.847 -0.2501 -1.2122 -0.1170
  177DOPC   H6X21690   5.566   4.011   3.852  0.0788  0.1905 -1.7641
  177DOPC   H6Y21691   5.669   3.875   3.892  2.0159 -0.5025  1.7924
  177DOPC   C3721692   5.753   4.077   3.937 -0.8755  0.0327  0.7024
  177DOPC   H7X21693   5.859   4.085   3.905 -2.2360  3.2437 -4.0282
  177DOPC   H7Y21694   5.720   4.181   3.914 -2.6747 -0.7821 -0.7054
  177DOPC   C3821695   5.736   4.043   4.087 -0.4272 -0.2750 -0.1536
  177DOPC   H8X21696   5.757   3.936   4.104 -0.6749 -0.2063  0.6042
  177DOPC   H8Y21697   5.630   4.051   4.120 -0.8141 -0.7942 -1.2142
  177DOPC   C3921698   5.827   4.136   4.164 -0.0774  0.6089 -0.4520
  177DOPC   H9X21699   5.850   4.232   4.114 -2.5254  1.1600 -0.6237
  177DOPC  C31021700   5.912   4.093   4.255 -0.5996  0.3307  0.3084
  177DOPC  H10X21701   5.978   4.165   4.305 -0.2951 -1.2422  2.3170
  177DOPC  C31121702   5.926   3.953   4.319  0.2841  0.0875 -0.1653
  177DOPC  H11X21703   6.028   3.911   4.308 -0.4355 -2.1805  1.1005
  177DOPC  H11Y21704   5.853   3.878   4.281  2.6796 -1.0207 -2.9502
  177DOPC  C31221705   5.892   3.955   4.470  0.2535  0.1735  0.3438
  177DOPC  H12X21706   5.926   3.856   4.507  3.6311  1.6456  1.6082
  177DOPC  H12Y21707   5.784   3.977   4.482  0.5199  3.3259 -1.8437
  177DOPC  C31321708   5.980   4.055   4.553 -0.6649  0.7487  0.5211
  177DOPC  H13X21709   6.086   4.043   4.521 -1.4352 -1.0760 -1.5680
  177DOPC  H13Y21710   5.949   4.160   4.536 -0.6369  0.5074 -1.1737
  177DOPC  C31421711   5.950   4.036   4.699 -0.2332  0.0569  0.1393
  177DOPC  H14X21712   5.842   4.051   4.722 -0.1094  2.3450 -0.5624
  177DOPC  H14Y21713   5.987   3.935   4.726 -2.5643 -0.5955  1.1420
  177DOPC  C31521714   6.038   4.126   4.791  0.3973  0.1043  0.1566
  177DOPC  H15X21715   6.012   4.228   4.756  0.4437  0.8041  2.0719
  177DOPC  H15Y21716   6.147   4.111   4.775  0.5964  2.6057 -1.4262
  177DOPC  C31621717   6.000   4.128   4.941 -0.2198 -0.3284  0.2648
  177DOPC  H16X21718   5.902   4.179   4.953 -0.0782 -0.3070  1.5368
  177DOPC  H16Y21719   5.986   4.022   4.973  0.2799 -0.7802 -0.9518
  177DOPC  C31721720   6.101   4.209   5.014 -0.4486  0.0722  0.6385
  177DOPC  H17X21721   6.198   4.158   4.998 -1.3299 -1.5403  0.3005
  177DOPC  H17Y21722   6.103   4.313   4.973 -5.8934  0.4552  0.5798
  177DOPC  C31821723   6.070   4.210   5.165 -0.2425 -0.1541  0.3161
  177DOPC  H18X21724   6.036   4.115   5.212 -0.4732  0.2713  1.0196
  177DOPC  H18Y21725   6.154   4.252   5.226 -0.0524 -0.0749  0.0040
  177DOPC  H18Z21726   5.994   4.288   5.186 -0.4578 -0.8167  2.2278
  178DOPC     N21727   3.462   6.877   2.920  0.1445  0.0356  0.3520
  178DOPC   C1221728   3.450   6.808   3.053  0.1142 -0.1864  0.4457
  178DOPC  H12A21729   3.378   6.864   3.110  0.2220  0.6571 -0.2237
  178DOPC  H12B21730   3.547   6.815   3.100  0.7718 -1.0711 -0.7171
  178DOPC   C1321731   3.338   6.862   2.844 -1.0917 -0.4727 -0.3455
  178DOPC  H13A21732   3.297   6.762   2.852 -1.2625 -0.5168 -1.6239
  178DOPC  H13B21733   3.255   6.922   2.880  0.8035  1.1919  1.4817
  178DOPC  H13C21734   3.350   6.873   2.737  0.2262  0.8138 -0.1004
  178DOPC   C1421735   3.568   6.808   2.835  0.4763  0.3047  0.3119
  178DOPC  H14A21736   3.577   6.852   2.737 -0.6272 -1.3821 -0.5917
  178DOPC  H14B21737   3.665   6.814   2.883  1.0338  1.1263 -0.8679
  178DOPC  H14C21738   3.552   6.701   2.833 -0.3195  0.3839  1.6046
  178DOPC   C1521739   3.500   7.023   2.931  0.4046  0.1712 -0.6502
  178DOPC  H15A21740   3.581   7.037   3.001 -0.4854  0.5040  0.3424
  178DOPC  H15B21741   3.423   7.094   2.956  2.2784  2.3931 -0.7463
  178DOPC  H15C21742   3.525   7.066   2.835  0.3333 -0.4139 -0.9359
  178DOPC   C1121743   3.434   6.652   3.063 -0.3527  1.0044  0.0740
  178DOPC  H11A21744   3.422   6.621   3.169 -0.9188  1.9341  0.2922
  178DOPC  H11B21745   3.348   6.624   2.999  1.6657 -0.2279 -2.3095
  178DOPC     P21746   3.553   6.431   2.999  0.1184  0.0773  0.0776
  178DOPC   O1321747   3.675   6.386   2.931  0.2465  0.0104  0.2490
  178DOPC   O1421748   3.424   6.390   2.936 -0.0945 -0.2318 -0.2910
  178DOPC   O1221749   3.555   6.587   3.014  0.7114  0.7646 -0.1512
  178DOPC   O1121750   3.567   6.387   3.158 -0.0002 -0.0176  0.6659
  178DOPC    C121751   3.660   6.457   3.239 -0.4215  0.2270  0.3206
  178DOPC    HA21752   3.602   6.501   3.323 -1.0815 -0.4611  0.2318
  178DOPC    HB21753   3.714   6.538   3.184  1.4650  0.1927  2.0090
  178DOPC    C221754   3.756   6.350   3.310 -0.1359  0.1086 -0.6633
  178DOPC    HS21755   3.781   6.291   3.220 -1.1289 -1.7138  0.1924
  178DOPC   O2121756   3.674   6.282   3.407 -0.1631  0.0653 -0.3276
  178DOPC   C2121757   3.711   6.156   3.422  0.3916  0.7607  1.1318
  178DOPC   O2221758   3.803   6.101   3.362 -0.8785 -0.0038 -0.3722
  178DOPC   C2221759   3.626   6.104   3.538  0.5660  0.5006 -0.3040
  178DOPC   H2R21760   3.526   6.152   3.541  0.5979  0.5482  0.0631
  178DOPC   H2S21761   3.676   6.137   3.632  3.1971 -1.4975 -0.9045
  178DOPC    C321762   3.876   6.416   3.382  0.2544 -1.0317 -0.1572
  178DOPC    HX21763   3.961   6.445   3.317  2.9143  0.9342  3.7741
  178DOPC    HY21764   3.919   6.342   3.453  1.4496 -1.0192 -0.8413
  178DOPC   O3121765   3.839   6.540   3.456  0.1365  0.6591  0.5756
  178DOPC   C3121766   3.806   6.518   3.584 -0.0686  0.3658 -0.2091
  178DOPC   O3221767   3.784   6.409   3.640  0.2848 -0.2455  0.3442
  178DOPC   C3221768   3.796   6.653   3.653 -0.8081  0.0705  0.4989
  178DOPC   H2X21769   3.891   6.699   3.619  0.0456 -3.1660 -1.9535
  178DOPC   H2Y21770   3.719   6.703   3.590  0.0627  2.0205  0.9019
  178DOPC   C2321771   3.593   5.955   3.547  0.5987 -0.0314  1.0167
  178DOPC   H3R21772   3.687   5.897   3.543 -0.5907 -1.9933 -1.6851
  178DOPC   H3S21773   3.534   5.922   3.459 -0.7862  1.5728  1.2930
  178DOPC   C2421774   3.502   5.916   3.667 -0.0669 -0.7199  0.0837
  178DOPC   H4R21775   3.398   5.955   3.664  0.1876  0.1036  1.1234
  178DOPC   H4S21776   3.544   5.935   3.768 -1.2216 -1.5845  0.7519
  178DOPC   C2521777   3.473   5.764   3.665 -0.5100 -0.0898  0.1746
  178DOPC   H5R21778   3.577   5.726   3.678  0.1633  0.6887 -2.4690
  178DOPC   H5S21779   3.438   5.728   3.566  1.0665 -0.9090 -0.1248
  178DOPC   C2621780   3.377   5.716   3.775  0.6962  0.7362  0.3445
  178DOPC   H6R21781   3.386   5.606   3.759 -1.4297  0.6058 -0.2577
  178DOPC   H6S21782   3.273   5.729   3.739 -0.2560 -1.4833  2.0596
  178DOPC   C2721783   3.408   5.768   3.918  0.0673  0.0143  0.8005
  178DOPC   H7R21784   3.427   5.877   3.914  0.3384 -0.0686 -1.8780
  178DOPC   H7S21785   3.501   5.734   3.968  1.6322  0.7327 -1.4778
  178DOPC   C2821786   3.290   5.764   4.011  0.2007  0.3196 -0.1745
  178DOPC   H8R21787   3.321   5.769   4.118  1.9794 -2.1604 -0.4994
  178DOPC   H8S21788   3.253   5.659   4.014 -2.5592  1.2085  1.1021
  178DOPC   C2921789   3.177   5.855   3.987  0.2310 -0.0168 -0.3048
  178DOPC   H9R21790   3.118   5.823   3.900 -1.2355  1.5387  0.0487
  178DOPC  C21021791   3.132   5.961   4.058 -0.7068  0.2368  0.9672
  178DOPC  H10R21792   3.035   6.009   4.039 -1.1475 -1.3436 -1.0654
  178DOPC  C21121793   3.195   6.009   4.187 -0.0668  0.3876  0.4358
  178DOPC  H11R21794   3.266   6.085   4.149  0.9163 -0.2872  0.8879
  178DOPC  H11S21795   3.257   5.926   4.228 -2.4790 -1.4023  0.6981
  178DOPC  C21221796   3.113   6.074   4.303 -0.0054 -0.4836 -0.6693
  178DOPC  H12R21797   3.067   5.988   4.356  1.2303  0.1643  1.5917
  178DOPC  H12S21798   3.027   6.137   4.273  0.6384  1.7036  1.7203
  178DOPC  C21321799   3.204   6.155   4.396  0.2391 -0.0389 -0.1914
  178DOPC  H13R21800   3.251   6.239   4.342  2.0340 -0.3836  0.7570
  178DOPC  H13S21801   3.281   6.080   4.424 -1.7105 -1.9540  0.3650
  178DOPC  C21421802   3.139   6.207   4.525  0.5751  0.0804 -0.1727
  178DOPC  H14R21803   3.213   6.257   4.591 -2.0503  3.5530  0.4406
  178DOPC  H14S21804   3.092   6.119   4.572  3.4028 -1.0982  0.6962
  178DOPC  C21521805   3.041   6.328   4.519  0.4812 -0.0643 -0.8058
  178DOPC  H15R21806   2.981   6.331   4.612  0.7591  0.2325 -0.6331
  178DOPC  H15S21807   2.965   6.298   4.444 -0.8209  1.3707 -0.1061
  178DOPC  C21621808   3.097   6.461   4.473 -0.0258 -0.2100 -0.1279
  178DOPC  H16R21809   3.140   6.449   4.371  0.4710  1.0126 -0.0872
  178DOPC  H16S21810   3.173   6.496   4.546  0.0791 -0.1958 -0.2429
  178DOPC  C21721811   2.997   6.581   4.452 -0.3050 -0.1460  0.1659
  178DOPC  H17R21812   2.944   6.598   4.547 -1.9838 -3.4969 -0.0135
  178DOPC  H17S21813   2.915   6.546   4.386 -0.4820 -0.4331  0.5370
  178DOPC  C21821814   3.065   6.711   4.402  0.5172 -0.5114 -0.3149
  178DOPC  H18R21815   3.141   6.733   4.479  0.2377 -0.7373  0.0279
  178DOPC  H18S21816   2.988   6.792   4.401  0.7895 -0.2158 -2.4409
  178DOPC  H18T21817   3.107   6.719   4.299  0.1648 -1.1134 -0.5088
  178DOPC   C3321818   3.779   6.652   3.809  0.1219 -0.0722 -0.1113
  178DOPC   H3X21819   3.867   6.602   3.856  1.9043  1.7219 -1.3565
  178DOPC   H3Y21820   3.681   6.606   3.833 -0.0316  0.9616  1.3946
  178DOPC   C3421821   3.770   6.792   3.867 -0.3255  0.2263 -0.1937
  178DOPC   H4X21822   3.693   6.849   3.810 -0.5923  1.1298  1.0198
  178DOPC   H4Y21823   3.868   6.845   3.863 -0.2461  0.0001 -1.2293
  178DOPC   C3521824   3.710   6.771   4.006 -0.4705 -0.3428 -0.6457
  178DOPC   H5X21825   3.773   6.696   4.059  3.0292  2.8261  0.1469
  178DOPC   H5Y21826   3.605   6.738   3.996 -0.6682 -0.3570  1.0770
  178DOPC   C3621827   3.701   6.897   4.095 -0.0749 -0.1629  0.4692
  178DOPC   H6X21828   3.803   6.940   4.110  0.3097  0.6381 -3.4380
  178DOPC   H6Y21829   3.636   6.972   4.047 -1.3016  0.5499  3.0744
  178DOPC   C3721830   3.646   6.863   4.235  0.6595  0.0579 -0.1467
  178DOPC   H7X21831   3.560   6.793   4.237 -0.0248  0.8793  1.5584
  178DOPC   H7Y21832   3.735   6.826   4.290 -1.2526 -1.8057  1.8477
  178DOPC   C3821833   3.605   7.000   4.306 -0.4753 -0.1242 -0.9182
  178DOPC   H8X21834   3.704   7.050   4.312 -0.3817 -0.3139 -0.8819
  178DOPC   H8Y21835   3.569   6.958   4.402 -1.1333  0.4027 -0.9291
  178DOPC   C3921836   3.494   7.079   4.235  0.5558  0.0589 -0.2558
  178DOPC   H9X21837   3.516   7.146   4.150  0.1259 -0.7487 -1.0223
  178DOPC  C31021838   3.363   7.081   4.272  0.4552  0.3379  0.0853
  178DOPC  H10X21839   3.290   7.142   4.216 -1.2296 -0.6532  1.1237
  178DOPC  C31121840   3.297   6.985   4.371 -0.3686 -0.0940 -0.0786
  178DOPC  H11X21841   3.362   6.895   4.378  1.0720  0.9965  1.6518
  178DOPC  H11Y21842   3.197   6.954   4.334  0.2638 -2.3002 -0.0533
  178DOPC  C31221843   3.294   7.030   4.524  0.1560  0.3120  0.3850
  178DOPC  H12X21844   3.397   7.064   4.550  1.1902 -1.7757 -0.7915
  178DOPC  H12Y21845   3.269   6.941   4.586  0.3531  0.5507  0.8093
  178DOPC  C31321846   3.197   7.146   4.551 -0.6174 -0.6144 -0.1381
  178DOPC  H13X21847   3.225   7.227   4.481  2.4655  1.7729  3.4182
  178DOPC  H13Y21848   3.089   7.122   4.537 -0.8147  0.6748 -0.9055
  178DOPC  C31421849   3.196   7.194   4.693 -0.3980  0.7876  0.5784
  178DOPC  H14X21850   3.121   7.273   4.715  1.2677  2.0636  1.9540
  178DOPC  H14Y21851   3.168   7.110   4.760 -1.7510  1.2492  0.6182
  178DOPC  C31521852   3.338   7.238   4.737 -0.0949 -0.7193 -0.0654
  178DOPC  H15X21853   3.366   7.331   4.683 -2.8107  0.3323  0.1806
  178DOPC  H15Y21854   3.415   7.159   4.727  2.0049  1.2582 -0.2174
  178DOPC  C31621855   3.331   7.286   4.882  0.8475  0.8311 -0.6961
  178DOPC  H16X21856   3.263   7.373   4.894  0.5767  0.7282 -1.4435
  178DOPC  H16Y21857   3.295   7.200   4.943  2.2085 -1.6612 -3.1680
  178DOPC  C31721858   3.472   7.314   4.936 -0.0300 -0.0855  0.8033
  178DOPC  H17X21859   3.554   7.262   4.881 -0.3741 -0.3579  0.5472
  178DOPC  H17Y21860   3.483   7.425   4.927 -0.3737 -0.1823 -1.3206
  178DOPC  C31821861   3.485   7.277   5.085 -0.5387  0.2989  0.1162
  178DOPC  H18X21862   3.425   7.352   5.142  0.3996  1.2595 -0.1289
  178DOPC  H18Y21863   3.453   7.172   5.102  1.1083 -0.2117  0.2280
  178DOPC  H18Z21864   3.590   7.303   5.107  0.1959 -0.0378 -2.6007
  179DOPC     N21865   5.746   4.036   2.497  0.0260  0.0577 -0.1940
  179DOPC   C1221866   5.775   3.971   2.637 -0.1837  0.4341  0.0526
  179DOPC  H12A21867   5.705   3.889   2.648  1.7308 -1.1075  1.4102
  179DOPC  H12B21868   5.750   4.050   2.706  2.5700  0.1159  1.5284
  179DOPC   C1321869   5.616   4.110   2.495 -0.4163  0.7636  0.0553
  179DOPC  H13A21870   5.613   4.201   2.552 -2.5963  1.0129 -0.3665
  179DOPC  H13B21871   5.592   4.140   2.394  1.3169  0.2376 -0.5546
  179DOPC  H13C21872   5.545   4.032   2.518  1.9688 -0.8656  2.5043
  179DOPC   C1421873   5.742   3.930   2.397 -0.2246  0.0730  0.6566
  179DOPC  H14A21874   5.683   3.847   2.434 -0.5715 -1.1857 -2.4140
  179DOPC  H14B21875   5.716   3.966   2.298 -0.6390  0.1596  0.7967
  179DOPC  H14C21876   5.839   3.884   2.386 -1.0518 -2.3030  2.5000
  179DOPC   C1521877   5.863   4.134   2.464  0.2501 -0.2030 -0.0988
  179DOPC  H15A21878   5.866   4.160   2.360  3.2691 -1.4734 -0.4222
  179DOPC  H15B21879   5.955   4.087   2.495  0.9412  0.6003 -0.9059
  179DOPC  H15C21880   5.861   4.228   2.519 -2.3208 -0.0946 -0.2286
  179DOPC   C1121881   5.912   3.918   2.680 -0.3178 -0.8272  0.3769
  179DOPC  H11A21882   5.977   4.008   2.676 -0.8970 -0.4340 -2.3775
  179DOPC  H11B21883   5.892   3.884   2.784 -1.0059  1.4727  1.0497
  179DOPC     P21884   6.102   3.794   2.549  0.2457 -0.2407 -0.0264
  179DOPC   O1321885   6.137   3.924   2.482  0.0993  0.2316 -0.0284
  179DOPC   O1421886   6.117   3.669   2.479  0.0706  0.3160  0.6743
  179DOPC   O1221887   5.955   3.807   2.595  0.5234  0.2020 -0.4628
  179DOPC   O1121888   6.179   3.789   2.689 -0.3799 -0.6025 -0.3905
  179DOPC    C121889   6.181   3.688   2.786 -0.3698  0.0866 -0.1005
  179DOPC    HA21890   6.266   3.620   2.763  1.1452  0.6785  3.0989
  179DOPC    HB21891   6.095   3.617   2.788  1.7879 -2.6986  0.4729
  179DOPC    C221892   6.215   3.741   2.925 -0.7784 -0.1566  0.7351
  179DOPC    HS21893   6.134   3.811   2.954  0.9929  1.1524  2.8013
  179DOPC   O2121894   6.342   3.818   2.912 -0.2287 -0.3954 -0.2026
  179DOPC   C2121895   6.335   3.944   2.947 -0.0268  0.7404 -0.2361
  179DOPC   O2221896   6.238   4.013   2.975 -0.1998 -0.1621 -0.3487
  179DOPC   C2221897   6.476   4.009   2.945  0.0927  0.2575 -0.5466
  179DOPC   H2R21898   6.461   4.104   2.890 -0.8031  0.4825  0.0590
  179DOPC   H2S21899   6.543   3.940   2.889 -0.5059 -0.5648 -0.2833
  179DOPC    C321900   6.226   3.638   3.032 -1.0883  0.1539 -0.0177
  179DOPC    HX21901   6.320   3.581   3.011 -0.9147  0.6321 -0.5618
  179DOPC    HY21902   6.140   3.569   3.017 -1.0346  0.4216 -1.8904
  179DOPC   O3121903   6.245   3.696   3.168 -0.5677  0.3375 -0.1337
  179DOPC   C3121904   6.131   3.713   3.232 -0.6628  0.4674 -0.1465
  179DOPC   O3221905   6.027   3.681   3.186  0.0072  0.0596  0.2354
  179DOPC   C3221906   6.151   3.789   3.361  0.1900  0.4179 -0.0730
  179DOPC   H2X21907   6.259   3.788   3.384  0.0640 -1.9690  0.7148
  179DOPC   H2Y21908   6.102   3.886   3.338  2.2165  1.5025 -0.0338
  179DOPC   C2321909   6.525   4.041   3.087 -0.1432 -0.9562  0.0595
  179DOPC   H3R21910   6.437   4.091   3.133  0.7598  1.4614 -0.6681
  179DOPC   H3S21911   6.608   4.113   3.073 -0.0494 -1.2621 -1.0659
  179DOPC   C2421912   6.563   3.923   3.190  0.2190 -1.0159 -0.2105
  179DOPC   H4R21913   6.526   3.821   3.168  0.1003 -1.3903  1.5477
  179DOPC   H4S21914   6.532   3.952   3.293  0.5041 -1.6791  0.0662
  179DOPC   C2521915   6.716   3.933   3.192  0.5151 -0.2572 -0.2638
  179DOPC   H5R21916   6.747   4.028   3.241 -1.8302  0.3524  0.1228
  179DOPC   H5S21917   6.750   3.930   3.086 -2.0462  1.4520 -1.1985
  179DOPC   C2621918   6.782   3.807   3.262  0.5100 -0.8162  0.0152
  179DOPC   H6R21919   6.754   3.716   3.205 -2.4584  0.6270 -1.0059
  179DOPC   H6S21920   6.731   3.806   3.361  1.3230  0.9468  0.4793
  179DOPC   C2721921   6.929   3.823   3.284 -0.3619 -1.0640  0.2875
  179DOPC   H7R21922   6.941   3.908   3.355 -1.8583 -0.9197  0.4161
  179DOPC   H7S21923   6.974   3.839   3.184  2.2382  1.8973  1.7785
  179DOPC   C2821924   6.993   3.688   3.330  0.0248  1.0312 -0.8671
  179DOPC   H8R21925   7.103   3.688   3.342 -0.1969  1.4577  2.0579
  179DOPC   H8S21926   6.969   3.608   3.258 -0.3688 -0.8079  1.1863
  179DOPC   C2921927   6.930   3.649   3.461  0.6829 -0.7923  0.4594
  179DOPC   H9R21928   6.832   3.599   3.461 -0.2304  0.8972  0.7553
  179DOPC  C21021929   6.981   3.661   3.582  0.0336 -0.6623  0.2216
  179DOPC  H10R21930   6.923   3.632   3.671 -0.1604  0.8796  0.6182
  179DOPC  C21121931   7.116   3.707   3.619 -0.2515 -0.0388  0.0440
  179DOPC  H11R21932   7.163   3.762   3.535  0.9446 -0.2009  0.5816
  179DOPC  H11S21933   7.173   3.612   3.631  0.1707  0.0491 -1.1330
  179DOPC  C21221934   7.107   3.797   3.750 -0.3538  0.2157 -0.2955
  179DOPC  H12R21935   7.012   3.854   3.759 -1.3878 -1.4413 -0.2995
  179DOPC  H12S21936   7.184   3.873   3.725  2.3652 -2.7995 -1.8394
  179DOPC  C21321937   7.144   3.738   3.888 -0.0101  0.2089  0.5923
  179DOPC  H13R21938   7.254   3.733   3.901  0.3651  0.6277 -1.8630
  179DOPC  H13S21939   7.103   3.635   3.895 -0.7240  0.5855  2.5301
  179DOPC  C21421940   7.096   3.841   3.994 -0.4766  0.0595 -0.4346
  179DOPC  H14R21941   6.986   3.850   3.986 -0.9541 -2.0030  2.2894
  179DOPC  H14S21942   7.149   3.933   3.963  1.2356 -0.9539 -0.6564
  179DOPC  C21521943   7.117   3.798   4.135  0.8784  0.3661  0.1028
  179DOPC  H15R21944   7.225   3.792   4.163  0.4604 -3.0834  1.5388
  179DOPC  H15S21945   7.073   3.696   4.139 -0.0784  0.7984  1.2118
  179DOPC  C21621946   7.035   3.895   4.230 -0.3157  0.7989 -0.5889
  179DOPC  H16R21947   6.937   3.856   4.267  1.0624 -0.5072  1.9687
  179DOPC  H16S21948   7.021   3.996   4.187  1.3916  1.2413 -0.1718
  179DOPC  C21721949   7.121   3.908   4.362  0.8850 -0.4947 -0.0225
  179DOPC  H17R21950   7.196   3.979   4.322 -1.9900  0.6682 -4.0195
  179DOPC  H17S21951   7.159   3.806   4.385  0.6667 -0.7106 -0.5844
  179DOPC  C21821952   7.048   3.962   4.482 -0.5155 -0.0996 -0.2033
  179DOPC  H18R21953   7.121   3.970   4.565  0.0707 -1.9751 -0.4814
  179DOPC  H18S21954   6.977   3.884   4.516  0.1758  0.2406  2.1967
  179DOPC  H18T21955   7.009   4.065   4.475  0.1194  0.1057 -0.9349
  179DOPC   C3321956   6.077   3.704   3.465  0.7800 -0.4409 -0.0009
  179DOPC   H3X21957   6.110   3.598   3.463 -0.0959 -0.7230 -2.4288
  179DOPC   H3Y21958   5.967   3.708   3.450  0.5613 -1.9881  0.9365
  179DOPC   C3421959   6.107   3.753   3.604  0.1666  0.6620  0.3134
  179DOPC   H4X21960   6.072   3.859   3.609  1.6023  1.2856 -1.6112
  179DOPC   H4Y21961   6.217   3.746   3.618  0.4963  1.6311 -1.4033
  179DOPC   C3521962   6.033   3.672   3.710 -0.3947 -0.5155  0.3148
  179DOPC   H5X21963   6.070   3.568   3.697 -0.1283 -0.1564 -2.3797
  179DOPC   H5Y21964   5.925   3.664   3.683 -0.1904 -1.0086 -0.3869
  179DOPC   C3621965   6.044   3.723   3.855  0.1417  0.1069 -0.0043
  179DOPC   H6X21966   6.149   3.740   3.885  0.2989  0.5207 -0.7572
  179DOPC   H6Y21967   6.000   3.825   3.847 -0.8451 -0.4572 -3.0508
  179DOPC   C3721968   5.964   3.633   3.954  0.2800  0.1308  0.1483
  179DOPC   H7X21969   5.858   3.611   3.930 -0.0644 -2.6349  3.4836
  179DOPC   H7Y21970   6.017   3.535   3.953  0.5664  0.2764  0.7225
  179DOPC   C3821971   5.965   3.684   4.105  0.4744 -0.2301  0.3669
  179DOPC   H8X21972   5.891   3.767   4.105  1.6716  0.8779  1.4676
  179DOPC   H8Y21973   6.067   3.723   4.126 -0.0221  0.9294  0.6772
  179DOPC   C3921974   5.914   3.584   4.209 -1.1336 -0.0445  0.6055
  179DOPC   H9X21975   5.805   3.572   4.211 -1.3698  1.5509 -0.4719
  179DOPC  C31021976   5.995   3.519   4.295  0.1613  0.5616  0.5603
  179DOPC  H10X21977   5.960   3.440   4.362  2.0876 -0.6128  0.2474
  179DOPC  C31121978   6.148   3.517   4.292 -0.2294  0.6046  0.1078
  179DOPC  H11X21979   6.189   3.615   4.261  3.2802 -0.7926 -0.1244
  179DOPC  H11Y21980   6.191   3.441   4.223 -1.0102 -0.3087  0.5896
  179DOPC  C31221981   6.219   3.501   4.436  0.3755  0.1925  0.6235
  179DOPC  H12X21982   6.327   3.482   4.421  0.1788 -0.1505 -0.4665
  179DOPC  H12Y21983   6.171   3.415   4.489 -0.2790 -0.8868 -1.6109
  179DOPC  C31321984   6.208   3.626   4.521  0.1846  0.4179  0.4648
  179DOPC  H13X21985   6.232   3.710   4.453  0.0945  2.4104  2.7803
  179DOPC  H13Y21986   6.101   3.635   4.551  0.5229 -0.7650  2.1311
  179DOPC  C31421987   6.292   3.643   4.640 -0.0466  0.5412  0.2272
  179DOPC  H14X21988   6.272   3.559   4.710 -1.7249  0.3548 -0.4302
  179DOPC  H14Y21989   6.399   3.652   4.612  0.1205 -0.8179  0.3715
  179DOPC  C31521990   6.265   3.764   4.728 -0.3921 -0.0368  1.1378
  179DOPC  H15X21991   6.158   3.768   4.758 -1.4423  0.5631 -2.2244
  179DOPC  H15Y21992   6.280   3.860   4.675  1.3927 -0.5325  0.6678
  179DOPC  C31621993   6.345   3.758   4.858  0.6437 -0.7447  0.7336
  179DOPC  H16X21994   6.316   3.654   4.886  2.2217 -1.6954 -0.9401
  179DOPC  H16Y21995   6.455   3.757   4.843  0.4531  0.3666 -1.0154
  179DOPC  C31721996   6.296   3.863   4.960 -0.2282  0.3819  0.1061
  179DOPC  H17X21997   6.356   3.956   4.948  1.4852 -0.8729 -1.8986
  179DOPC  H17Y21998   6.195   3.894   4.925  0.8230  0.8708 -2.7906
  179DOPC  C31821999   6.316   3.820   5.106 -0.3030 -0.1343  0.0570
  179DOPC  H18X22000   6.425   3.812   5.128 -0.0570 -0.5107 -1.2034
  179DOPC  H18Y22001   6.273   3.890   5.181 -0.3330 -1.6780  1.5308
  179DOPC  H18Z22002   6.260   3.725   5.120 -2.2106  0.0638 -4.3626
  180DOPC     N22003   7.446   2.958   3.008  0.4987 -0.6269 -0.0846
  180DOPC   C1222004   7.368   2.836   2.970  0.1742  0.0152 -0.1911
  180DOPC  H12A22005   7.435   2.755   2.947  0.8735  0.4190  0.4076
  180DOPC  H12B22006   7.318   2.856   2.876  0.8225  1.3466 -0.2787
  180DOPC   C1322007   7.553   2.936   3.105 -0.8845  0.0705  0.0779
  180DOPC  H13A22008   7.622   2.867   3.059 -1.3130  1.8456 -3.6733
  180DOPC  H13B22009   7.603   3.028   3.126 -1.5902  1.0850 -2.3003
  180DOPC  H13C22010   7.505   2.896   3.193 -1.1334 -0.7766 -0.4207
  180DOPC   C1422011   7.343   3.065   3.056  0.3018 -0.1799  0.3228
  180DOPC  H14A22012   7.255   3.015   3.093  0.9975  0.0607  2.4294
  180DOPC  H14B22013   7.378   3.129   3.135 -4.9742  4.1865 -0.2703
  180DOPC  H14C22014   7.330   3.133   2.973  1.4375  0.0822  0.3429
  180DOPC   C1522015   7.503   3.004   2.882 -0.3264  0.3424 -0.2414
  180DOPC  H15A22016   7.557   3.095   2.905  2.1775 -0.8062 -1.1901
  180DOPC  H15B22017   7.429   3.019   2.805 -0.2007  4.7618  0.2246
  180DOPC  H15C22018   7.587   2.944   2.848 -0.4749 -0.0307  0.0499
  180DOPC   C1122019   7.259   2.788   3.061  0.0564  0.3852 -0.3526
  180DOPC  H11A22020   7.252   2.677   3.053  1.3721  0.1264  1.3838
  180DOPC  H11B22021   7.286   2.809   3.167 -1.8112  1.7519 -0.1048
  180DOPC     P22022   7.005   2.781   3.000 -0.3007 -0.5295 -0.0377
  180DOPC   O1322023   7.032   2.718   2.871  0.4303  0.7887 -0.0740
  180DOPC   O1422024   6.909   2.897   2.997  0.5915  0.3299  0.3598
  180DOPC   O1222025   7.138   2.853   3.043  0.1628  0.2713  0.2152
  180DOPC   O1122026   6.961   2.684   3.110  0.1274  0.8241  0.1006
  180DOPC    C122027   6.914   2.721   3.242 -0.0601 -0.1855  0.5442
  180DOPC    HA22028   6.830   2.651   3.265 -0.1543 -0.0752  0.5380
  180DOPC    HB22029   6.885   2.825   3.266  0.0431 -0.0461  0.0745
  180DOPC    C222030   7.018   2.695   3.354  0.5213 -0.6084 -0.6308
  180DOPC    HS22031   7.119   2.717   3.314  0.7479  0.2026  0.3712
  180DOPC   O2122032   6.995   2.560   3.402 -0.5679 -0.1649 -0.0633
  180DOPC   C2122033   7.094   2.500   3.457 -0.0608  0.1543  0.0081
  180DOPC   O2222034   7.204   2.542   3.485  0.1768  0.3227 -0.3136
  180DOPC   C2222035   7.059   2.358   3.492  0.1376 -0.8734 -0.0076
  180DOPC   H2R22036   7.106   2.291   3.416 -0.8723 -0.3259 -1.1361
  180DOPC   H2S22037   6.950   2.348   3.473  0.1817  0.1333 -0.8975
  180DOPC    C322038   6.981   2.794   3.470 -0.0818  0.8151 -0.2316
  180DOPC    HX22039   7.053   2.768   3.550 -1.3831 -0.0756  0.6885
  180DOPC    HY22040   6.884   2.760   3.512 -0.1643  0.3215 -0.8097
  180DOPC   O3122041   6.978   2.929   3.427 -0.1518  0.3792 -0.2128
  180DOPC   C3122042   7.094   2.994   3.396 -0.1183  0.0616 -0.2463
  180DOPC   O3222043   7.207   2.945   3.399 -0.0071  0.1365 -0.1503
  180DOPC   C3222044   7.059   3.137   3.370 -0.4395  0.0420 -0.3967
  180DOPC   H2X22045   7.000   3.140   3.277 -1.3619 -1.8629  0.0758
  180DOPC   H2Y22046   6.996   3.169   3.456  0.8119  2.2905 -0.2425
  180DOPC   C2322047   7.109   2.318   3.635  0.5526 -0.2393  0.5372
  180DOPC   H3R22048   7.218   2.338   3.646  1.1344 -0.0697 -3.7427
  180DOPC   H3S22049   7.115   2.207   3.638  2.5488 -0.1619  1.2779
  180DOPC   C2422050   7.012   2.349   3.749  0.1324 -0.0167 -0.7395
  180DOPC   H4R22051   6.917   2.293   3.738 -0.8434  1.1800  0.9108
  180DOPC   H4S22052   6.985   2.457   3.744  0.0745  0.0749  0.8220
  180DOPC   C2522053   7.069   2.333   3.886  0.5063 -0.1400 -0.6182
  180DOPC   H5R22054   7.169   2.378   3.906  1.3209 -2.3013  0.4401
  180DOPC   H5S22055   7.084   2.224   3.898 -1.5240 -0.5639 -1.5844
  180DOPC   C2622056   6.959   2.385   3.988 -0.6708 -0.0549 -0.5638
  180DOPC   H6R22057   6.869   2.321   3.976 -1.2201  0.7534 -0.8474
  180DOPC   H6S22058   6.933   2.487   3.951 -0.2742  0.2862  0.0632
  180DOPC   C2722059   7.001   2.403   4.130 -0.1605  0.1154 -0.0482
  180DOPC   H7R22060   6.914   2.434   4.190  0.2305 -1.3893  1.3853
  180DOPC   H7S22061   7.081   2.480   4.127 -1.0007  1.0769  1.4602
  180DOPC   C2822062   7.064   2.274   4.193 -0.1202 -0.3461 -0.1075
  180DOPC   H8R22063   7.120   2.307   4.284 -1.8063 -2.3979  1.7772
  180DOPC   H8S22064   7.141   2.241   4.121 -1.3154  0.4929 -1.8296
  180DOPC   C2922065   6.968   2.164   4.231  0.7409  0.0357  0.6342
  180DOPC   H9R22066   6.884   2.210   4.286 -0.9335 -1.0109 -0.9309
  180DOPC  C21022067   6.974   2.029   4.224 -0.9212  0.4485  0.0264
  180DOPC  H10R22068   6.881   1.977   4.255 -1.6420  1.9919  0.5729
  180DOPC  C21122069   7.080   1.943   4.159  0.1212  0.3774  0.6918
  180DOPC  H11R22070   7.104   1.866   4.235 -0.3434 -1.0663 -0.5781
  180DOPC  H11S22071   7.167   2.001   4.120 -0.7898 -0.9728 -3.9465
  180DOPC  C21222072   7.011   1.871   4.036 -0.4279  0.0621  0.1065
  180DOPC  H12R22073   7.000   1.950   3.958  0.0568 -0.1995 -0.2323
  180DOPC  H12S22074   6.913   1.829   4.067 -0.1226 -0.4049  0.4508
  180DOPC  C21322075   7.109   1.768   3.977  0.0508 -0.1915  1.0134
  180DOPC  H13R22076   7.116   1.692   4.058 -1.4112 -0.2912  1.0784
  180DOPC  H13S22077   7.209   1.815   3.967  0.1859 -0.7601 -0.5035
  180DOPC  C21422078   7.064   1.712   3.838 -0.4160 -0.0339 -0.9829
  180DOPC  H14R22079   7.150   1.657   3.794  0.4307  1.6540 -1.5120
  180DOPC  H14S22080   7.052   1.800   3.770  0.8175 -1.3116 -2.9630
  180DOPC  C21522081   6.937   1.624   3.840 -0.4240 -0.3384  0.0464
  180DOPC  H15R22082   6.859   1.700   3.862 -0.0772  0.5128 -1.5022
  180DOPC  H15S22083   6.935   1.542   3.915 -2.6238 -1.0122 -0.6696
  180DOPC  C21622084   6.926   1.554   3.709 -0.3946  0.5893 -0.0605
  180DOPC  H16R22085   6.822   1.517   3.695 -0.2653 -0.2612  1.1012
  180DOPC  H16S22086   6.984   1.459   3.716 -1.9097 -0.2907  1.1307
  180DOPC  C21722087   6.965   1.626   3.581 -0.0321 -0.1879  0.0300
  180DOPC  H17R22088   7.075   1.642   3.570 -0.3843  1.0554 -2.4189
  180DOPC  H17S22089   6.923   1.729   3.577  0.1947 -0.1178 -0.7451
  180DOPC  C21822090   6.943   1.550   3.444  0.2747  0.4971 -0.6056
  180DOPC  H18R22091   7.003   1.600   3.365  3.4766 -2.0881  0.0077
  180DOPC  H18S22092   6.837   1.546   3.410  1.1944 -0.8832 -3.6126
  180DOPC  H18T22093   6.978   1.446   3.458  1.1834  1.0181  1.4688
  180DOPC   C3322094   7.184   3.230   3.372  0.1709  0.0716 -0.5493
  180DOPC   H3X22095   7.155   3.331   3.337  1.2941  1.0210  1.1106
  180DOPC   H3Y22096   7.256   3.196   3.295  0.2119 -0.0755 -0.4479
  180DOPC   C3422097   7.253   3.247   3.502  0.1607 -0.3601 -1.3381
  180DOPC   H4X22098   7.343   3.310   3.488  1.3584 -2.0509 -1.6364
  180DOPC   H4Y22099   7.302   3.148   3.519 -0.4405 -0.2870  1.1296
  180DOPC   C3522100   7.162   3.278   3.625  0.2442  0.0500 -0.1945
  180DOPC   H5X22101   7.089   3.197   3.647  0.6106  0.1735  1.5842
  180DOPC   H5Y22102   7.108   3.374   3.605  0.2010  0.1508  0.3835
  180DOPC   C3622103   7.246   3.300   3.751 -0.4610 -0.3234  0.8768
  180DOPC   H6X22104   7.333   3.230   3.745 -0.8150 -0.6885 -0.5465
  180DOPC   H6Y22105   7.280   3.405   3.744 -0.7831 -0.2743 -0.2161
  180DOPC   C3722106   7.167   3.297   3.884  0.2307 -0.0745 -0.1493
  180DOPC   H7X22107   7.158   3.189   3.910  2.0277 -1.0664 -3.1566
  180DOPC   H7Y22108   7.225   3.349   3.963 -0.5094 -0.0187  0.3769
  180DOPC   C3822109   7.028   3.369   3.881 -0.0708  0.0871 -0.1597
  180DOPC   H8X22110   6.973   3.300   3.813 -3.0516  1.3610  0.7950
  180DOPC   H8Y22111   7.035   3.468   3.830  0.2310  0.5280  0.7154
  180DOPC   C3922112   6.960   3.381   4.013 -0.4499  0.3156  0.4125
  180DOPC   H9X22113   6.989   3.310   4.091  0.8612 -0.6012 -0.8557
  180DOPC  C31022114   6.847   3.451   4.046 -0.4253  0.5569 -0.5610
  180DOPC  H10X22115   6.805   3.436   4.147 -0.9374  0.7268 -0.7447
  180DOPC  C31122116   6.767   3.555   3.971 -0.0784  0.6226 -0.2134
  180DOPC  H11X22117   6.683   3.501   3.923 -0.0724 -1.6854  2.1322
  180DOPC  H11Y22118   6.828   3.600   3.890  1.3408 -1.1867 -0.2256
  180DOPC  C31222119   6.707   3.671   4.052  0.0219 -0.2421 -0.5567
  180DOPC  H12X22120   6.677   3.750   3.980  1.0462  0.9569  0.2697
  180DOPC  H12Y22121   6.785   3.701   4.126  0.7732 -2.8722 -0.1981
  180DOPC  C31322122   6.588   3.633   4.142  0.3834 -0.4765 -0.1033
  180DOPC  H13X22123   6.508   3.579   4.085  0.5714 -1.7444  0.8015
  180DOPC  H13Y22124   6.618   3.559   4.219  0.7073  0.4262  0.6496
  180DOPC  C31422125   6.529   3.753   4.213  0.0421  0.0073  0.2075
  180DOPC  H14X22126   6.496   3.713   4.311 -0.9505  0.2713 -0.0056
  180DOPC  H14Y22127   6.618   3.817   4.229  1.2004 -1.4986 -0.0422
  180DOPC  C31522128   6.431   3.832   4.126 -0.4472 -0.4225  0.1385
  180DOPC  H15X22129   6.351   3.760   4.098 -0.2473 -0.6992  0.2733
  180DOPC  H15Y22130   6.493   3.872   4.043 -2.0897  0.5244 -0.6987
  180DOPC  C31622131   6.372   3.951   4.203 -0.0930 -0.8541  0.0302
  180DOPC  H16X22132   6.292   3.911   4.270 -2.6814 -1.3517 -3.1102
  180DOPC  H16Y22133   6.455   4.000   4.257 -0.9007  1.0573 -0.3713
  180DOPC  C31722134   6.308   4.063   4.114  0.9692  0.2908 -0.1757
  180DOPC  H17X22135   6.275   4.150   4.175  1.4580  0.3871 -0.0413
  180DOPC  H17Y22136   6.385   4.107   4.047  1.2377  0.7005  0.3955
  180DOPC  C31822137   6.201   4.018   4.012 -0.3808  1.0244 -0.2177
  180DOPC  H18X22138   6.105   3.987   4.057  0.1673  0.7529  0.8085
  180DOPC  H18Y22139   6.191   4.101   3.938  1.6458  4.5103  3.0459
  180DOPC  H18Z22140   6.237   3.931   3.952 -1.7716  0.3665 -0.1384
  181DOPC     N22141   0.336   1.814   3.043 -0.2896 -0.2605 -0.3687
  181DOPC   C1222142   0.341   1.836   3.192 -0.0606 -0.6398 -0.1452
  181DOPC  H12A22143   0.298   1.753   3.245  0.4402 -0.3518  0.7271
  181DOPC  H12B22144   0.280   1.921   3.217 -0.5179 -0.5825 -1.3851
  181DOPC   C1322145   0.364   1.943   2.976  0.1483 -0.3108  1.1309
  181DOPC  H13A22146   0.364   1.933   2.868 -0.6702 -3.9719  1.3225
  181DOPC  H13B22147   0.295   2.018   3.010 -0.8555 -0.1023 -1.1367
  181DOPC  H13C22148   0.460   1.979   3.008 -0.0869  0.0342  1.4499
  181DOPC   C1422149   0.202   1.767   3.005  0.5206  0.3666  0.2176
  181DOPC  H14A22150   0.185   1.766   2.899 -0.8670 -2.1292  0.3986
  181DOPC  H14B22151   0.189   1.663   3.031  1.7742  0.5521  1.8186
  181DOPC  H14C22152   0.123   1.825   3.052 -0.5904 -0.9179 -0.0295
  181DOPC   C1522153   0.444   1.714   3.007 -0.1460 -0.0221 -0.3341
  181DOPC  H15A22154   0.418   1.617   3.045 -4.5179  0.6288 -1.1807
  181DOPC  H15B22155   0.541   1.752   3.036 -0.1198  0.2919 -0.8200
  181DOPC  H15C22156   0.453   1.707   2.900  0.0629 -1.8650 -0.2292
  181DOPC   C1122157   0.476   1.874   3.254  0.0849 -0.0250  1.1175
  181DOPC  H11A22158   0.457   1.924   3.352 -0.7766  1.1904  0.3658
  181DOPC  H11B22159   0.539   1.783   3.266  0.4408 -0.1991 -1.5813
  181DOPC     P22160   0.701   1.978   3.146 -0.0469  0.1387  0.2348
  181DOPC   O1322161   0.728   2.077   3.040 -0.6336  0.7341 -0.1176
  181DOPC   O1422162   0.743   1.837   3.128  0.1937 -0.3952 -0.4039
  181DOPC   O1222163   0.545   1.979   3.173  0.1247  0.2301  0.0464
  181DOPC   O1122164   0.752   2.032   3.282 -0.1288 -0.4019  0.5392
  181DOPC    C122165   0.700   2.160   3.321  0.1519  0.8445 -0.0047
  181DOPC    HA22166   0.594   2.151   3.353  0.2887 -0.2873  0.1725
  181DOPC    HB22167   0.696   2.231   3.236 -1.1513  0.3422 -0.3961
  181DOPC    C222168   0.789   2.220   3.436 -0.3223 -0.1702  0.2513
  181DOPC    HS22169   0.895   2.218   3.405 -0.2304  0.1744  0.5320
  181DOPC   O2122170   0.770   2.121   3.548 -0.4379 -0.3227  0.1458
  181DOPC   C2122171   0.871   2.104   3.629 -0.4226  0.3802  0.4228
  181DOPC   O2222172   0.988   2.145   3.610 -0.0346 -0.2150  0.2248
  181DOPC   C2222173   0.831   2.009   3.738  0.0051  0.1039  0.5462
  181DOPC   H2R22174   0.845   1.906   3.697 -0.8179  1.4330 -3.5588
  181DOPC   H2S22175   0.722   2.017   3.756 -0.6826 -2.4136 -1.8627
  181DOPC    C322176   0.743   2.367   3.468  0.1326 -0.6794 -0.1986
  181DOPC    HX22177   0.635   2.360   3.492  0.7671 -2.9769  2.4226
  181DOPC    HY22178   0.750   2.430   3.376  0.3336  0.4832  0.5878
  181DOPC   O3122179   0.804   2.417   3.596 -0.4953  0.5369 -0.2507
  181DOPC   C3122180   0.922   2.480   3.590 -0.6242  0.0661 -0.5706
  181DOPC   O3222181   0.990   2.491   3.491 -0.7845 -0.1091  0.7868
  181DOPC   C3222182   0.955   2.541   3.733  0.3892 -0.6771 -0.0364
  181DOPC   H2X22183   0.980   2.454   3.798 -0.9449  0.0298  1.5045
  181DOPC   H2Y22184   1.030   2.619   3.714  0.5498 -0.9957 -0.7434
  181DOPC   C2322185   0.896   2.030   3.882  0.0809 -0.2474 -0.0095
  181DOPC   H3R22186   1.006   2.028   3.863  0.1782 -0.8280  0.5633
  181DOPC   H3S22187   0.872   1.941   3.944 -0.6190 -1.3013 -1.7096
  181DOPC   C2422188   0.855   2.160   3.955 -0.6358 -0.3931 -0.0560
  181DOPC   H4R22189   0.827   2.239   3.882  0.1497 -1.0366 -1.0823
  181DOPC   H4S22190   0.947   2.181   4.014 -1.1442  1.0610  0.2654
  181DOPC   C2522191   0.735   2.132   4.049 -0.0484 -0.0230 -0.1012
  181DOPC   H5R22192   0.781   2.066   4.125  1.0597  1.2571  0.3915
  181DOPC   H5S22193   0.649   2.090   3.992 -0.9371  1.5761 -0.0156
  181DOPC   C2622194   0.684   2.263   4.120  0.3868 -0.1159 -0.4453
  181DOPC   H6R22195   0.683   2.340   4.040 -0.2859  0.7758  0.3948
  181DOPC   H6S22196   0.759   2.288   4.198  0.2322 -0.8475 -0.0468
  181DOPC   C2722197   0.545   2.257   4.184  0.4804  0.5230  0.1529
  181DOPC   H7R22198   0.516   2.155   4.217 -0.2214 -0.2840 -2.7049
  181DOPC   H7S22199   0.476   2.273   4.099 -0.5423  1.1980  1.0808
  181DOPC   C2822200   0.528   2.371   4.296  0.2341  0.4670  0.0491
  181DOPC   H8R22201   0.604   2.351   4.374 -1.7862  1.4710  2.4004
  181DOPC   H8S22202   0.427   2.361   4.342 -0.4527  1.5177 -1.1575
  181DOPC   C2922203   0.550   2.507   4.246  0.3363  0.2442 -0.5337
  181DOPC   H9R22204   0.655   2.538   4.232 -0.3444  2.2964 -1.6119
  181DOPC  C21022205   0.450   2.586   4.194 -0.8263  0.2272  0.5619
  181DOPC  H10R22206   0.475   2.689   4.162  0.7268 -0.8128 -1.8612
  181DOPC  C21122207   0.302   2.551   4.186 -0.2965  0.2494  0.4065
  181DOPC  H11R22208   0.288   2.441   4.173  2.2403 -0.2504  1.4525
  181DOPC  H11S22209   0.258   2.595   4.093 -1.3273  1.9190  1.6220
  181DOPC  C21222210   0.218   2.605   4.304  0.5838 -0.1139 -0.0523
  181DOPC  H12R22211   0.228   2.715   4.311  2.4637 -0.1989 -0.8498
  181DOPC  H12S22212   0.267   2.565   4.395  1.1698  0.7524  0.0248
  181DOPC  C21322213   0.073   2.566   4.291 -0.1318  0.2497  0.3740
  181DOPC  H13R22214   0.015   2.573   4.385 -1.4210 -0.5319 -0.3424
  181DOPC  H13S22215   0.076   2.457   4.268  2.5928 -0.1878  2.3134
  181DOPC  C21422216  -0.012   2.628   4.173  0.0404 -0.0067  0.5254
  181DOPC  H14R22217   0.037   2.598   4.078  0.5136  0.3467  0.6542
  181DOPC  H14S22218   0.006   2.737   4.180  1.1977 -0.1361 -0.0795
  181DOPC  C21522219  -0.157   2.583   4.172 -0.4986  0.3446  1.4476
  181DOPC  H15R22220  -0.199   2.541   4.266 -2.4527 -0.9049  0.0780
  181DOPC  H15S22221  -0.178   2.514   4.087 -1.2263  2.8253 -0.4949
  181DOPC  C21622222  -0.248   2.704   4.139  0.0967  0.0306  0.4262
  181DOPC  H16R22223  -0.347   2.668   4.104 -1.2977  1.7560  2.3700
  181DOPC  H16S22224  -0.204   2.775   4.065 -2.6877  0.6764 -0.7324
  181DOPC  C21722225  -0.278   2.789   4.261  0.2663  0.2344 -0.5869
  181DOPC  H17R22226  -0.195   2.849   4.305 -0.1267  0.2006  0.2168
  181DOPC  H17S22227  -0.319   2.720   4.339 -0.0288 -0.4285 -1.3185
  181DOPC  C21822228  -0.398   2.889   4.232  0.2089  0.9473 -1.0676
  181DOPC  H18R22229  -0.372   2.968   4.159  4.5575  0.4203 -0.3946
  181DOPC  H18S22230  -0.423   2.934   4.331  1.6416 -2.6871  1.1852
  181DOPC  H18T22231  -0.483   2.825   4.200  1.2521  0.0226 -2.0958
  181DOPC   C3322232   0.826   2.600   3.807  0.3705  0.0606 -0.0110
  181DOPC   H3X22233   0.752   2.518   3.819  0.6730 -0.1651  0.3212
  181DOPC   H3Y22234   0.789   2.688   3.750 -1.0616  0.3691  1.3295
  181DOPC   C3422235   0.844   2.674   3.944 -0.9187  0.2397  1.2886
  181DOPC   H4X22236   0.744   2.699   3.987 -1.2788 -0.4786  0.8947
  181DOPC   H4Y22237   0.899   2.765   3.913 -0.6588 -0.3727 -0.1271
  181DOPC   C3522238   0.915   2.587   4.053  0.2521  0.2735 -0.0611
  181DOPC   H5X22239   1.016   2.561   4.015 -0.0263 -0.1439 -0.5320
  181DOPC   H5Y22240   0.852   2.497   4.066 -0.9362  1.3195  1.7278
  181DOPC   C3622241   0.946   2.646   4.191  0.4992 -0.5123 -0.0579
  181DOPC   H6X22242   1.031   2.718   4.184 -2.3748  3.0369 -1.7004
  181DOPC   H6Y22243   0.862   2.712   4.220 -1.3930 -2.9842  0.4224
  181DOPC   C3722244   0.954   2.548   4.308 -0.0264  0.2935 -0.0144
  181DOPC   H7X22245   0.863   2.485   4.299  0.7867 -0.6433 -2.7934
  181DOPC   H7Y22246   1.038   2.483   4.276 -0.4083  0.3649 -1.2203
  181DOPC   C3822247   0.955   2.606   4.449  0.2464 -0.1193  0.1317
  181DOPC   H8X22248   0.942   2.519   4.515  1.8044 -1.5796 -1.3578
  181DOPC   H8Y22249   0.861   2.666   4.449  0.9541  1.0400 -0.4519
  181DOPC   C3922250   1.067   2.696   4.478  0.6343  0.3277  0.2414
  181DOPC   H9X22251   1.132   2.726   4.394  2.2222 -2.0811  0.5096
  181DOPC  C31022252   1.103   2.735   4.599  0.3479 -0.1421  0.2477
  181DOPC  H10X22253   1.197   2.791   4.608 -0.5153  1.3690  0.1323
  181DOPC  C31122254   1.033   2.696   4.728 -0.3071 -0.9442 -0.5066
  181DOPC  H11X22255   1.097   2.632   4.792  1.4392  1.5933  0.4588
  181DOPC  H11Y22256   0.934   2.649   4.710 -2.0274  0.7903  3.2908
  181DOPC  C31222257   1.010   2.811   4.823 -0.1853 -0.1857 -0.0144
  181DOPC  H12X22258   1.105   2.869   4.826  0.4123 -1.0268 -1.6336
  181DOPC  H12Y22259   0.989   2.774   4.926 -0.2430 -1.9040 -0.6256
  181DOPC  C31322260   0.893   2.906   4.770  0.0911  0.1417 -0.2534
  181DOPC  H13X22261   0.918   2.943   4.668 -2.9644  3.8103  0.1203
  181DOPC  H13Y22262   0.804   2.842   4.757  0.5582 -0.2713 -1.6599
  181DOPC  C31422263   0.872   3.024   4.858 -0.3568 -0.2140 -0.3448
  181DOPC  H14X22264   0.838   2.980   4.955 -0.1490  2.4426  1.0389
  181DOPC  H14Y22265   0.968   3.078   4.875 -0.8704  0.3430  0.9462
  181DOPC  C31522266   0.769   3.125   4.826 -0.1045  0.6516  0.1760
  181DOPC  H15X22267   0.670   3.084   4.796 -0.5486  1.0097  1.0899
  181DOPC  H15Y22268   0.815   3.175   4.739 -1.1198  1.3280  0.0042
  181DOPC  C31622269   0.756   3.232   4.945  0.1886 -0.3542 -0.2373
  181DOPC  H16X22270   0.729   3.188   5.044  2.3665  1.2945  1.1705
  181DOPC  H16Y22271   0.863   3.253   4.965  0.4400 -0.9066 -0.9821
  181DOPC  C31722272   0.679   3.359   4.909 -0.4869 -0.9668 -0.5374
  181DOPC  H17X22273   0.739   3.412   4.832  1.6392 -2.0491  0.3004
  181DOPC  H17Y22274   0.580   3.326   4.872 -1.5806 -0.3985  1.7037
  181DOPC  C31822275   0.659   3.467   5.018 -0.0789  0.6059  0.1352
  181DOPC  H18X22276   0.763   3.488   5.053 -0.0654  0.1511  0.3802
  181DOPC  H18Y22277   0.617   3.562   4.979  0.9334  0.2949 -1.8668
  181DOPC  H18Z22278   0.595   3.428   5.100 -0.4572  2.1139  0.5830
  182DOPC     N22279   2.009   0.955   3.000 -0.4411 -0.2584 -0.4316
  182DOPC   C1222280   1.935   0.937   3.127 -0.4676  0.3589  0.5039
  182DOPC  H12A22281   1.910   0.833   3.138 -0.7318  0.3716  0.0840
  182DOPC  H12B22282   1.837   0.981   3.114 -0.2963  0.1233 -2.2586
  182DOPC   C1322283   2.142   0.881   3.006  0.2315  0.3324  0.2998
  182DOPC  H13A22284   2.116   0.776   3.002 -1.4427  0.7088 -2.9402
  182DOPC  H13B22285   2.190   0.893   2.910 -0.1192 -0.6901 -0.0259
  182DOPC  H13C22286   2.217   0.915   3.076 -0.4625  0.2747  1.0840
  182DOPC   C1422287   2.024   1.104   2.967 -0.1467  0.2431 -0.0151
  182DOPC  H14A22288   1.928   1.153   2.974 -0.7844 -1.0426  0.5356
  182DOPC  H14B22289   2.080   1.140   3.052 -1.5415  1.8915  0.2691
  182DOPC  H14C22290   2.082   1.117   2.877  2.3574  0.0615  1.5046
  182DOPC   C1522291   1.938   0.908   2.876  0.1286 -0.9134  0.1816
  182DOPC  H15A22292   1.835   0.938   2.864  0.0666 -1.3042 -0.2859
  182DOPC  H15B22293   1.928   0.800   2.874  0.1047 -0.9057 -0.1868
  182DOPC  H15C22294   1.988   0.939   2.785  0.7191 -1.4228  0.3285
  182DOPC   C1122295   1.992   0.986   3.261  0.5844 -0.0185 -0.1421
  182DOPC  H11A22296   2.003   1.097   3.259 -3.1342  0.5893  1.9389
  182DOPC  H11B22297   1.913   0.978   3.340  0.7624  2.1133  0.3123
  182DOPC     P22298   2.108   0.786   3.380  0.6155 -0.4150 -0.0862
  182DOPC   O1322299   2.227   0.707   3.346 -0.4908  0.3545  0.0000
  182DOPC   O1422300   1.972   0.729   3.360  0.2508  0.0173  0.5300
  182DOPC   O1222301   2.111   0.923   3.307 -0.0980  0.2050  0.0743
  182DOPC   O1122302   2.121   0.819   3.531  0.5848  0.0089 -0.1793
  182DOPC    C122303   2.248   0.874   3.579 -0.2966  0.2096 -0.2873
  182DOPC    HA22304   2.219   0.972   3.623  0.1366  0.3336 -0.2698
  182DOPC    HB22305   2.335   0.883   3.509  1.5310 -0.3079  1.8146
  182DOPC    C222306   2.310   0.791   3.693 -0.2490  0.1881  0.2726
  182DOPC    HS22307   2.343   0.697   3.643 -1.1877  0.0709 -0.1421
  182DOPC   O2122308   2.214   0.774   3.795  0.1463  0.0766  0.4005
  182DOPC   C2122309   2.222   0.653   3.864  0.0495 -0.3576 -0.1668
  182DOPC   O2222310   2.304   0.570   3.844 -0.0064  0.9034 -0.5063
  182DOPC   C2222311   2.109   0.654   3.976 -0.2005 -0.3000  0.4392
  182DOPC   H2R22312   2.044   0.568   3.949  0.0199 -0.5613  0.7322
  182DOPC   H2S22313   2.052   0.749   3.966  2.4802  1.4042  0.5586
  182DOPC    C322314   2.439   0.849   3.755  0.0515  0.2070  0.1511
  182DOPC    HX22315   2.418   0.931   3.826 -1.1711  2.0380 -2.1873
  182DOPC    HY22316   2.497   0.908   3.681 -0.9550  0.5141 -0.4134
  182DOPC   O3122317   2.531   0.759   3.809  0.4694 -0.1072 -0.0302
  182DOPC   C3122318   2.628   0.807   3.887 -0.2658  0.3147 -0.0443
  182DOPC   O3222319   2.643   0.918   3.928  0.0543 -0.8225 -0.1090
  182DOPC   C3222320   2.703   0.687   3.931 -0.3359 -0.5157 -0.3770
  182DOPC   H2X22321   2.634   0.621   3.988 -0.4366  0.2244  0.3724
  182DOPC   H2Y22322   2.746   0.628   3.847  2.1742  2.8194 -1.6641
  182DOPC   C2322323   2.155   0.627   4.126 -0.0703  0.5288  0.1037
  182DOPC   H3R22324   2.073   0.653   4.195  0.3422  1.0118  0.4198
  182DOPC   H3S22325   2.231   0.705   4.152 -0.2894  1.0417 -0.7483
  182DOPC   C2422326   2.195   0.485   4.135 -0.7730  0.6489 -0.1664
  182DOPC   H4R22327   2.281   0.462   4.070 -1.3338 -0.4094 -0.5727
  182DOPC   H4S22328   2.108   0.418   4.116 -2.5179  2.9529 -0.7155
  182DOPC   C2522329   2.242   0.448   4.282  0.4741 -0.0577  0.4128
  182DOPC   H5R22330   2.316   0.522   4.321 -0.4667  1.5553 -0.7653
  182DOPC   H5S22331   2.299   0.353   4.289  0.0919 -0.1937  1.9797
  182DOPC   C2622332   2.133   0.432   4.394 -0.1970 -0.0144 -0.3486
  182DOPC   H6R22333   2.047   0.368   4.366  0.9045 -0.5016 -2.9225
  182DOPC   H6S22334   2.100   0.531   4.431 -3.9163 -0.0100 -3.1222
  182DOPC   C2722335   2.188   0.355   4.521  0.2786  0.9996 -0.1722
  182DOPC   H7R22336   2.291   0.392   4.537  0.2696  1.6024 -1.3522
  182DOPC   H7S22337   2.197   0.247   4.499  3.7606  1.4445 -1.5291
  182DOPC   C2822338   2.103   0.369   4.646 -0.7981 -0.1732 -0.0378
  182DOPC   H8R22339   2.099   0.478   4.668 -1.5555  0.2230 -1.9578
  182DOPC   H8S22340   2.160   0.324   4.730 -2.3930 -2.2296  0.0173
  182DOPC   C2922341   1.965   0.315   4.646 -0.0663 -0.0582  0.0075
  182DOPC   H9R22342   1.941   0.244   4.565 -0.1749  1.7224 -1.5856
  182DOPC  C21022343   1.856   0.360   4.715 -0.1403 -0.5499 -0.1535
  182DOPC  H10R22344   1.758   0.312   4.704 -0.8959  0.7796  0.4931
  182DOPC  C21122345   1.855   0.483   4.810 -0.5221 -0.7377  0.3734
  182DOPC  H11R22346   1.805   0.570   4.761  1.0488  0.8963  1.5585
  182DOPC  H11S22347   1.959   0.509   4.838 -0.3396  0.6093 -1.3390
  182DOPC  C21222348   1.772   0.443   4.938 -0.4662 -0.4175  0.0156
  182DOPC  H12R22349   1.818   0.350   4.979 -0.4232 -0.3317  0.1630
  182DOPC  H12S22350   1.669   0.404   4.919  0.0307 -1.2151 -1.1293
  182DOPC  C21322351   1.743   0.557   5.032  0.9381 -0.1569 -1.2808
  182DOPC  H13R22352   1.665   0.612   4.976  0.6728 -0.4391 -1.1931
  182DOPC  H13S22353   1.834   0.618   5.050 -0.6555  1.9905 -0.0148
  182DOPC  C21422354   1.680   0.506   5.161 -0.3404 -0.1268  0.2374
  182DOPC  H14R22355   1.606   0.426   5.139 -1.5525  1.3096 -1.1460
  182DOPC  H14S22356   1.632   0.588   5.218  3.9127  1.9462  1.2846
  182DOPC  C21522357   1.788   0.441   5.254 -0.1658 -0.3263  0.0113
  182DOPC  H15R22358   1.884   0.496   5.258 -1.0263  1.3864 -1.5233
  182DOPC  H15S22359   1.814   0.345   5.204  0.9352  0.9667 -1.9930
  182DOPC  C21622360   1.745   0.406   5.404  0.1617  0.6315  0.2455
  182DOPC  H16R22361   1.647   0.354   5.393  0.8209 -0.6081  0.0358
  182DOPC  H16S22362   1.713   0.503   5.449 -1.1464 -0.5108  1.9362
  182DOPC  C21722363   1.850   0.334   5.484 -0.9012 -0.2864  0.0175
  182DOPC  H17R22364   1.943   0.395   5.481  0.3688 -2.0921  1.2614
  182DOPC  H17S22365   1.877   0.241   5.430 -3.9003 -0.8596 -0.6772
  182DOPC  C21822366   1.809   0.305   5.631 -0.4657  0.5158 -0.5789
  182DOPC  H18R22367   1.705   0.268   5.620 -0.3357  0.1701 -0.6326
  182DOPC  H18S22368   1.795   0.397   5.691 -1.4560  0.0369 -0.0440
  182DOPC  H18T22369   1.876   0.236   5.685 -1.5289  0.9655  1.4343
  182DOPC   C3322370   2.838   0.719   4.009  0.0623 -0.2835 -0.1012
  182DOPC   H3X22371   2.799   0.765   4.102  0.2111  1.1738 -0.7311
  182DOPC   H3Y22372   2.898   0.787   3.945  0.7066 -3.1222 -2.7590
  182DOPC   C3422373   2.911   0.587   4.047 -0.3771  0.5633  0.0121
  182DOPC   H4X22374   2.934   0.531   3.953  1.3448  1.8100 -0.3609
  182DOPC   H4Y22375   2.841   0.533   4.114  0.1744  1.7024  1.5701
  182DOPC   C3522376   3.039   0.624   4.118 -0.3137 -0.1325 -1.2348
  182DOPC   H5X22377   3.015   0.690   4.204  2.9350  1.7222 -1.5792
  182DOPC   H5Y22378   3.114   0.658   4.043 -0.7253  2.2808 -0.6138
  182DOPC   C3622379   3.093   0.501   4.195  0.1436 -0.3589  0.3168
  182DOPC   H6X22380   3.026   0.490   4.282 -2.3291  0.3426 -1.3789
  182DOPC   H6Y22381   3.086   0.407   4.136 -0.0583 -0.2279  0.1282
  182DOPC   C3722382   3.237   0.506   4.246 -0.8056 -0.6982 -0.4247
  182DOPC   H7X22383   3.297   0.510   4.153  2.3697 -2.0702  1.4117
  182DOPC   H7Y22384   3.268   0.594   4.306 -1.1673 -1.7816  1.4326
  182DOPC   C3822385   3.263   0.388   4.341 -0.3308  0.1134 -0.0843
  182DOPC   H8X22386   3.227   0.292   4.296 -1.3090  0.0948  0.7017
  182DOPC   H8Y22387   3.202   0.418   4.428 -2.3342 -3.0448 -0.2234
  182DOPC   C3922388   3.406   0.380   4.370 -0.1682  0.0278  0.4762
  182DOPC   H9X22389   3.472   0.395   4.284 -1.9661  2.1085 -0.6161
  182DOPC  C31022390   3.463   0.360   4.496  0.6440  0.0976  0.4262
  182DOPC  H10X22391   3.570   0.334   4.492  1.1532  2.1942 -0.8252
  182DOPC  C31122392   3.384   0.329   4.629  0.2073  0.2597 -0.4511
  182DOPC  H11X22393   3.280   0.369   4.634 -0.0962 -0.6315  0.7259
  182DOPC  H11Y22394   3.442   0.375   4.712 -0.6107  2.0312 -0.8142
  182DOPC  C31222395   3.389   0.179   4.666  0.4142  0.0926 -0.5895
  182DOPC  H12X22396   3.371   0.169   4.775  3.1126  0.7839 -0.0013
  182DOPC  H12Y22397   3.485   0.129   4.643  0.6657 -0.2232  1.0669
  182DOPC  C31322398   3.281   0.093   4.600  0.6823 -0.2152 -0.6916
  182DOPC  H13X22399   3.179   0.128   4.628  1.0189 -0.6499  1.2769
  182DOPC  H13Y22400   3.297   0.109   4.492  0.2747 -0.1492 -0.7440
  182DOPC  C31422401   3.283  -0.054   4.647 -0.0753 -0.8513 -0.3625
  182DOPC  H14X22402   3.387  -0.092   4.658  1.4060  2.6440 -1.1169
  182DOPC  H14Y22403   3.227  -0.076   4.740 -0.5112  2.8809  0.3969
  182DOPC  C31522404   3.221  -0.135   4.529 -0.8993  0.4152  0.5796
  182DOPC  H15X22405   3.250  -0.242   4.535 -0.2141  0.5559 -0.0972
  182DOPC  H15Y22406   3.261  -0.098   4.432 -0.6650 -1.8086 -0.2393
  182DOPC  C31622407   3.068  -0.130   4.520 -0.0804  0.8854 -0.1057
  182DOPC  H16X22408   3.044  -0.171   4.620 -0.9876  2.2320  0.2462
  182DOPC  H16Y22409   3.025  -0.028   4.523 -0.2467  0.9001 -1.9181
  182DOPC  C31722410   3.010  -0.232   4.425  0.0048  0.1644 -0.1998
  182DOPC  H17X22411   3.085  -0.313   4.409  0.0462  0.3068 -0.7380
  182DOPC  H17Y22412   2.920  -0.274   4.476 -1.8337  1.7457 -1.9449
  182DOPC  C31822413   2.973  -0.168   4.288  0.1792 -0.1410  0.9832
  182DOPC  H18X22414   2.906  -0.080   4.301  0.1579 -0.4321  3.2989
  182DOPC  H18Y22415   3.063  -0.127   4.236  2.1759 -1.6898  3.0093
  182DOPC  H18Z22416   2.925  -0.235   4.214  1.8015 -1.0285  0.6770
  183DOPC     N22417   7.434   5.373   3.111  0.1762 -0.4096 -0.0601
  183DOPC   C1222418   7.425   5.245   3.195  0.5031  0.4765 -0.1218
  183DOPC  H12A22419   7.423   5.264   3.301 -1.9699 -0.2213  0.0171
  183DOPC  H12B22420   7.511   5.181   3.193 -1.7639 -2.8772  0.4120
  183DOPC   C1322421   7.319   5.467   3.135 -0.8937  0.0361  0.5921
  183DOPC  H13A22422   7.229   5.411   3.117 -0.5838 -0.2321 -0.1796
  183DOPC  H13B22423   7.312   5.504   3.237 -0.4982 -1.5192  1.2102
  183DOPC  H13C22424   7.317   5.555   3.072 -0.9271 -1.2946 -1.3221
  183DOPC   C1422425   7.436   5.335   2.967  1.1999  0.3188 -0.2436
  183DOPC  H14A22426   7.341   5.288   2.946  2.4543 -2.5813  0.1215
  183DOPC  H14B22427   7.439   5.420   2.901 -0.4056  1.9304  1.6282
  183DOPC  H14C22428   7.514   5.264   2.945  0.2580 -0.8951  0.2239
  183DOPC   C1522429   7.565   5.442   3.139 -0.1668 -0.2362  0.1803
  183DOPC  H15A22430   7.593   5.500   3.052 -0.4805  1.8586  1.4172
  183DOPC  H15B22431   7.646   5.372   3.151 -1.1691 -1.4211  0.2434
  183DOPC  H15C22432   7.562   5.499   3.230  1.6273  0.5407 -0.1928
  183DOPC   C1122433   7.302   5.149   3.171  0.1404 -0.5254 -0.0464
  183DOPC  H11A22434   7.316   5.068   3.246 -1.8851  0.2281  1.2313
  183DOPC  H11B22435   7.215   5.214   3.193 -0.4358 -0.7854 -1.4265
  183DOPC     P22436   7.158   5.030   3.004 -0.2650 -0.0425 -0.5772
  183DOPC   O1322437   7.194   4.941   2.894 -0.3713 -0.3329 -0.1231
  183DOPC   O1422438   7.051   5.127   2.975 -0.2747  0.5003 -0.2566
  183DOPC   O1222439   7.290   5.102   3.040  0.1856 -0.8426 -0.5933
  183DOPC   O1122440   7.114   4.948   3.133 -0.9363 -0.4958  0.0287
  183DOPC    C122441   7.044   4.826   3.134  0.1040  0.6486 -0.4973
  183DOPC    HA22442   7.030   4.783   3.032 -1.5191 -0.9233  0.3197
  183DOPC    HB22443   6.941   4.846   3.169  0.0975 -0.7390  0.3667
  183DOPC    C222444   7.123   4.715   3.220 -0.6392 -0.3409  0.6387
  183DOPC    HS22445   7.075   4.616   3.231  2.9925 -2.5192 -1.1986
  183DOPC   O2122446   7.148   4.762   3.351 -0.7880 -0.2250 -0.2883
  183DOPC   C2122447   7.045   4.811   3.418 -0.1805 -0.0046  0.5059
  183DOPC   O2222448   6.927   4.789   3.401  0.0347 -0.3174 -0.1286
  183DOPC   C2222449   7.097   4.903   3.528  1.1874  1.2655  0.1280
  183DOPC   H2R22450   7.198   4.943   3.502  2.0812 -2.1402 -2.3907
  183DOPC   H2S22451   7.103   4.849   3.625 -0.8657  0.4891 -0.1353
  183DOPC    C322452   7.262   4.694   3.155  0.6526 -0.5451  0.1673
  183DOPC    HX22453   7.309   4.794   3.148  1.7737 -1.1211 -0.8560
  183DOPC    HY22454   7.239   4.669   3.049  0.6949  2.5200 -0.6428
  183DOPC   O3122455   7.337   4.591   3.230 -0.2703 -0.2253  0.0082
  183DOPC   C3122456   7.469   4.623   3.244 -0.1649 -0.0721  0.1899
  183DOPC   O3222457   7.522   4.720   3.188  0.1056  0.4273 -0.2792
  183DOPC   C3222458   7.544   4.518   3.321  0.3624 -0.1334 -0.0863
  183DOPC   H2X22459   7.468   4.463   3.380  0.0461  1.4808  1.0790
  183DOPC   H2Y22460   7.584   4.455   3.239 -0.4963 -0.7260 -0.0643
  183DOPC   C2322461   6.994   5.013   3.544 -0.0238  0.8666 -0.5846
  183DOPC   H3R22462   7.026   5.075   3.631  2.4968 -0.7406 -0.2748
  183DOPC   H3S22463   6.894   4.969   3.566 -0.1709  1.0645 -0.8514
  183DOPC   C2422464   6.979   5.105   3.427  0.0672 -0.4635  0.8985
  183DOPC   H4R22465   6.954   5.055   3.330 -0.0172  2.8299 -0.9180
  183DOPC   H4S22466   7.082   5.144   3.416  0.4227 -2.0098 -3.0018
  183DOPC   C2522467   6.891   5.233   3.433  0.3171  0.3516 -0.4068
  183DOPC   H5R22468   6.794   5.207   3.481  0.0740 -0.9289 -1.5324
  183DOPC   H5S22469   6.869   5.269   3.330 -0.7486 -2.1412 -1.1153
  183DOPC   C2622470   6.945   5.343   3.521  0.2254  0.5946  0.2052
  183DOPC   H6R22471   7.008   5.301   3.602 -0.6708  1.0944  1.1835
  183DOPC   H6S22472   6.864   5.404   3.568  1.8209  1.8126  1.4613
  183DOPC   C2722473   7.028   5.446   3.444  0.0959 -1.0353  0.2786
  183DOPC   H7R22474   6.982   5.546   3.432  0.6962 -1.0177 -2.7747
  183DOPC   H7S22475   7.038   5.421   3.336 -0.7417  2.5950 -0.7848
  183DOPC   C2822476   7.170   5.466   3.502  0.3180  0.0986  0.3547
  183DOPC   H8R22477   7.226   5.540   3.440  1.6611 -0.1852  1.1799
  183DOPC   H8S22478   7.227   5.370   3.504  1.1703  0.6113  2.6086
  183DOPC   C2922479   7.161   5.532   3.642 -0.0283  0.0555  0.2582
  183DOPC   H9R22480   7.119   5.633   3.656 -3.9752 -1.3160 -0.4064
  183DOPC  C21022481   7.193   5.476   3.756  0.6206  0.3990 -0.1190
  183DOPC  H10R22482   7.175   5.516   3.857  0.4760 -1.6073  0.7089
  183DOPC  C21122483   7.232   5.333   3.780  0.0184 -0.6352  0.1805
  183DOPC  H11R22484   7.334   5.336   3.826 -0.0955  0.9487  0.3692
  183DOPC  H11S22485   7.243   5.281   3.682  1.1847 -1.3061  0.6431
  183DOPC  C21222486   7.135   5.250   3.870  0.6753  0.3708  0.4783
  183DOPC  H12R22487   7.148   5.142   3.845  1.2888  0.0026  2.2637
  183DOPC  H12S22488   7.026   5.267   3.853  0.0864 -0.5129  2.9537
  183DOPC  C21322489   7.167   5.278   4.020 -0.0739  0.7919 -0.8533
  183DOPC  H13R22490   7.189   5.382   4.050  1.6744 -0.2678  1.8613
  183DOPC  H13S22491   7.256   5.218   4.048 -0.4552  1.3407  1.7987
  183DOPC  C21422492   7.054   5.234   4.122 -0.0445  0.1083 -1.1341
  183DOPC  H14R22493   7.057   5.123   4.121  0.6559  0.0539  0.9699
  183DOPC  H14S22494   6.953   5.273   4.099 -0.4400  0.4151  0.9322
  183DOPC  C21522495   7.086   5.265   4.271  0.0723 -0.5256  0.3714
  183DOPC  H15R22496   7.175   5.205   4.299 -1.5901 -2.6496  1.3783
  183DOPC  H15S22497   7.007   5.230   4.340 -0.6404  1.2001  0.4758
  183DOPC  C21622498   7.103   5.422   4.294 -0.4147  0.5372 -0.4272
  183DOPC  H16R22499   7.015   5.476   4.253 -0.5476  1.2734  0.7825
  183DOPC  H16S22500   7.195   5.459   4.244  1.0155 -0.4731  1.3796
  183DOPC  C21722501   7.119   5.458   4.441 -0.1394 -0.0781 -0.6412
  183DOPC  H17R22502   7.022   5.437   4.491  1.0040 -0.7895  1.3991
  183DOPC  H17S22503   7.136   5.566   4.459 -0.6775 -0.3354  1.7286
  183DOPC  C21822504   7.219   5.366   4.517 -0.4213 -0.9247 -0.1901
  183DOPC  H18R22505   7.319   5.386   4.473 -0.3996  0.9069  0.5748
  183DOPC  H18S22506   7.202   5.258   4.499 -0.6880 -0.6920 -1.4143
  183DOPC  H18T22507   7.220   5.396   4.625 -2.2078  0.8864 -0.6033
  183DOPC   C3322508   7.648   4.579   3.417 -0.2392  0.0077 -0.9684
  183DOPC   H3X22509   7.705   4.655   3.360  3.3698 -2.8681 -1.5752
  183DOPC   H3Y22510   7.719   4.509   3.467 -2.4987  0.0063  2.5878
  183DOPC   C3422511   7.587   4.637   3.538  0.3526 -0.2030  0.7612
  183DOPC   H4X22512   7.533   4.561   3.599  2.2183 -0.3937  2.2559
  183DOPC   H4Y22513   7.519   4.720   3.508  1.1650  0.5299  0.8891
  183DOPC   C3522514   7.670   4.726   3.628 -0.3839  0.5842  0.3394
  183DOPC   H5X22515   7.739   4.796   3.576  0.8761 -0.2485  0.8503
  183DOPC   H5Y22516   7.738   4.647   3.666  0.2658  1.2771  0.6180
  183DOPC   C3622517   7.607   4.806   3.736 -0.3057  0.6547  0.6029
  183DOPC   H6X22518   7.522   4.747   3.777 -0.9973  1.2955  0.1240
  183DOPC   H6Y22519   7.678   4.842   3.814  1.3748 -0.1048 -0.5177
  183DOPC   C3722520   7.538   4.939   3.683 -0.0859 -0.4544  0.8893
  183DOPC   H7X22521   7.615   4.998   3.631 -0.8099 -0.9709 -0.8427
  183DOPC   H7Y22522   7.467   4.910   3.602  0.2604  0.9326  0.0629
  183DOPC   C3822523   7.471   5.016   3.802 -0.3529  0.4839  0.7494
  183DOPC   H8X22524   7.420   5.108   3.768 -1.2577 -0.2984 -0.0726
  183DOPC   H8Y22525   7.559   5.052   3.859 -0.1576  0.7800  0.2665
  183DOPC   C3922526   7.379   4.933   3.878 -0.1667 -0.8565  0.3492
  183DOPC   H9X22527   7.301   4.879   3.822 -2.4351  0.6206  1.9242
  183DOPC  C31022528   7.385   4.913   4.006 -0.4041 -0.4661  0.3988
  183DOPC  H10X22529   7.311   4.850   4.058 -0.1115 -0.0034  1.3965
  183DOPC  C31122530   7.481   4.974   4.109  0.1985 -0.0676  0.1914
  183DOPC  H11X22531   7.535   5.068   4.086  0.2782  0.0443  0.8238
  183DOPC  H11Y22532   7.568   4.905   4.122  3.2592  3.1296 -1.6471
  183DOPC  C31222533   7.416   5.012   4.241  0.1460  0.7074 -0.9176
  183DOPC  H12X22534   7.327   5.075   4.217  0.3495  0.1434 -3.3678
  183DOPC  H12Y22535   7.478   5.086   4.296 -2.9823  0.6673  3.1831
  183DOPC  C31322536   7.382   4.896   4.332 -0.5824  0.1783 -0.4172
  183DOPC  H13X22537   7.298   4.835   4.292  0.9890 -0.7498 -2.4792
  183DOPC  H13Y22538   7.468   4.828   4.348 -0.7290 -0.2260 -1.2862
  183DOPC  C31422539   7.343   4.944   4.470 -0.5819 -0.2987  0.1249
  183DOPC  H14X22540   7.275   5.031   4.458  1.8953  1.9373  1.2546
  183DOPC  H14Y22541   7.297   4.868   4.537 -0.7355  0.2405  0.6450
  183DOPC  C31522542   7.467   4.991   4.550 -0.9841  0.5580 -0.4476
  183DOPC  H15X22543   7.521   5.066   4.488  2.1979 -2.4940 -1.6883
  183DOPC  H15Y22544   7.536   4.904   4.553 -0.5452  0.7728 -2.5810
  183DOPC  C31622545   7.437   5.048   4.694 -0.1502  0.7425 -0.2318
  183DOPC  H16X22546   7.399   5.152   4.684 -0.8643  0.6146  0.9182
  183DOPC  H16Y22547   7.355   4.989   4.742  0.0360  1.2292  0.7073
  183DOPC  C31722548   7.561   5.043   4.793  0.2958 -0.0635 -0.2405
  183DOPC  H17X22549   7.639   5.109   4.750  0.9676 -0.4308  0.3901
  183DOPC  H17Y22550   7.527   5.094   4.886 -0.2718  1.8598 -1.4336
  183DOPC  C31822551   7.627   4.909   4.820  0.2477 -0.2143 -0.0890
  183DOPC  H18X22552   7.702   4.877   4.745 -0.5081  0.9092 -1.3635
  183DOPC  H18Y22553   7.684   4.924   4.914 -0.1379  2.5241 -0.2103
  183DOPC  H18Z22554   7.543   4.836   4.829 -0.4491  0.7160  1.4022
  184DOPC     N22555   6.119   1.117   2.613  0.0703  0.4351  0.1754
  184DOPC   C1222556   6.220   1.198   2.691  0.4317 -0.4528 -0.1149
  184DOPC  H12A22557   6.231   1.299   2.653  0.4571 -0.0405  0.9475
  184DOPC  H12B22558   6.314   1.149   2.675  1.8446  1.9668  0.1833
  184DOPC   C1322559   5.985   1.171   2.619  0.6468  0.2295  0.6650
  184DOPC  H13A22560   5.911   1.126   2.555 -1.7089  1.9580  2.0012
  184DOPC  H13B22561   5.959   1.165   2.724  1.6192  0.3353  0.9171
  184DOPC  H13C22562   5.986   1.273   2.584 -1.9992  0.2357  0.4229
  184DOPC   C1422563   6.128   0.971   2.659  0.5092  0.5845 -0.2263
  184DOPC  H14A22564   6.057   0.909   2.606 -0.8129  0.4825  1.5769
  184DOPC  H14B22565   6.223   0.928   2.630 -0.5216 -2.5611  0.7078
  184DOPC  H14C22566   6.101   0.966   2.763  1.4092 -0.5654 -0.0325
  184DOPC   C1522567   6.157   1.135   2.467 -0.2833 -0.6786 -0.3709
  184DOPC  H15A22568   6.158   1.241   2.448  1.7851 -0.6038 -0.1317
  184DOPC  H15B22569   6.099   1.077   2.397 -0.8881 -1.3890  0.6816
  184DOPC  H15C22570   6.261   1.104   2.468  0.1984  0.8041  1.7376
  184DOPC   C1122571   6.212   1.207   2.843  0.8164 -0.4335  0.0954
  184DOPC  H11A22572   6.287   1.278   2.883 -1.1468  0.3123  2.7306
  184DOPC  H11B22573   6.111   1.249   2.864  0.5284 -1.1202  0.1058
  184DOPC     P22574   6.354   1.012   2.954  0.1275 -0.3148 -0.4119
  184DOPC   O1322575   6.451   1.000   2.841  0.3116  0.3084 -0.2561
  184DOPC   O1422576   6.312   0.885   3.021  0.2950  0.0717 -0.2737
  184DOPC   O1222577   6.218   1.079   2.908  0.1138 -0.4415  0.1364
  184DOPC   O1122578   6.414   1.111   3.070  0.1959 -0.3225 -0.0831
  184DOPC    C122579   6.363   1.087   3.213 -0.4617  0.0877  0.7080
  184DOPC    HA22580   6.430   1.146   3.280  1.1104  0.4634 -1.1252
  184DOPC    HB22581   6.376   0.981   3.244 -0.8555  0.2848  1.5809
  184DOPC    C222582   6.218   1.137   3.239 -0.1666  0.3353 -0.8235
  184DOPC    HS22583   6.145   1.083   3.175 -3.3429  2.6229  0.6215
  184DOPC   O2122584   6.214   1.282   3.204  0.1425 -0.6480  0.5625
  184DOPC   C2122585   6.093   1.333   3.174  0.2369  0.3019  0.3497
  184DOPC   O2222586   5.989   1.269   3.164  0.0856  0.0730 -0.0288
  184DOPC   C2222587   6.094   1.486   3.166 -0.7466  0.5798 -0.1437
  184DOPC   H2R22588   6.062   1.517   3.064 -1.7027 -1.5009 -0.5346
  184DOPC   H2S22589   6.197   1.519   3.191 -0.2603 -1.9559  1.5483
  184DOPC    C322590   6.173   1.124   3.391 -0.0315 -0.4329 -0.3514
  184DOPC    HX22591   6.067   1.152   3.407  0.3898  1.2594 -0.3205
  184DOPC    HY22592   6.240   1.197   3.441  0.7033  1.2515 -3.5415
  184DOPC   O3122593   6.204   0.992   3.441  0.0206 -0.4619  0.1729
  184DOPC   C3122594   6.195   0.987   3.577  0.9071 -0.0188 -0.8024
  184DOPC   O3222595   6.195   1.084   3.651  1.1200 -0.1779 -0.2067
  184DOPC   C3222596   6.194   0.843   3.608  0.2710 -0.1258 -0.1789
  184DOPC   H2X22597   6.127   0.798   3.531  0.0342  2.0638 -1.3169
  184DOPC   H2Y22598   6.296   0.801   3.597  0.4382  0.7473 -2.9312
  184DOPC   C2322599   5.993   1.558   3.256  0.3581 -0.3643 -0.2391
  184DOPC   H3R22600   5.897   1.509   3.231  0.3247 -1.3516  1.6222
  184DOPC   H3S22601   5.994   1.661   3.214 -1.0018 -0.0772  0.3859
  184DOPC   C2422602   6.009   1.544   3.408 -0.1255  0.5077  0.0489
  184DOPC   H4R22603   6.103   1.596   3.437  0.5088 -0.4370 -0.2603
  184DOPC   H4S22604   6.023   1.442   3.449  0.7079  0.1037 -1.1700
  184DOPC   C2522605   5.916   1.633   3.483 -0.4295 -0.0658 -0.1055
  184DOPC   H5R22606   5.818   1.582   3.491  0.0989 -1.4078 -1.6607
  184DOPC   H5S22607   5.898   1.724   3.421 -0.2523  1.0952  1.4851
  184DOPC   C2622608   5.974   1.695   3.615 -0.1196 -0.0280 -0.0587
  184DOPC   H6R22609   5.892   1.738   3.677 -0.3692 -0.1048 -0.3286
  184DOPC   H6S22610   6.043   1.780   3.594  1.7124 -1.7927 -1.4598
  184DOPC   C2722611   6.049   1.595   3.699  0.3828  0.6790  0.4821
  184DOPC   H7R22612   6.083   1.635   3.798 -2.9550 -1.7506  2.8238
  184DOPC   H7S22613   6.143   1.563   3.649  0.3007 -1.7397  1.7503
  184DOPC   C2822614   5.964   1.470   3.736 -0.4354  0.5986 -0.0970
  184DOPC   H8R22615   5.910   1.428   3.648 -0.9605 -3.8927  2.0934
  184DOPC   H8S22616   5.886   1.504   3.808 -0.4418  1.8268 -0.6482
  184DOPC   C2922617   6.045   1.357   3.792 -0.6277 -0.9050 -1.2219
  184DOPC   H9R22618   6.108   1.304   3.718 -1.3477 -1.3880 -1.4971
  184DOPC  C21022619   6.027   1.299   3.904  0.0810 -0.3169 -0.4902
  184DOPC  H10R22620   6.090   1.210   3.919 -2.1946 -1.9040  0.2753
  184DOPC  C21122621   5.929   1.334   4.017 -0.2387 -0.2209  0.3928
  184DOPC  H11R22622   5.827   1.309   3.982 -1.2539  0.7364  2.5158
  184DOPC  H11S22623   5.930   1.445   4.029  1.4204  0.0042 -1.2345
  184DOPC  C21222624   5.968   1.273   4.154 -0.0895 -0.1499 -0.3796
  184DOPC  H12R22625   6.060   1.325   4.186  0.8055 -0.0741 -2.8339
  184DOPC  H12S22626   5.979   1.162   4.155  0.1429 -0.1363 -0.8740
  184DOPC  C21322627   5.875   1.296   4.279  1.0438 -0.3202  0.4084
  184DOPC  H13R22628   5.784   1.234   4.264 -0.9256  2.6905 -1.1100
  184DOPC  H13S22629   5.831   1.397   4.264 -0.7589 -1.2059 -0.6377
  184DOPC  C21422630   5.940   1.277   4.419  0.2545 -0.6312 -0.2381
  184DOPC  H14R22631   6.041   1.325   4.412 -0.4152  0.6065 -2.1642
  184DOPC  H14S22632   5.968   1.170   4.431 -0.4787 -1.1473 -2.7022
  184DOPC  C21522633   5.865   1.319   4.543 -0.2733 -0.2090  0.6032
  184DOPC  H15R22634   5.793   1.239   4.574  0.7375 -1.8018 -0.9628
  184DOPC  H15S22635   5.817   1.416   4.520  0.5671 -0.2084 -1.2885
  184DOPC  C21622636   5.962   1.348   4.660  0.1752  0.5649 -0.8492
  184DOPC  H16R22637   6.029   1.429   4.626  2.2675 -1.3746 -1.6133
  184DOPC  H16S22638   6.026   1.257   4.662  0.6593  0.9160  0.4795
  184DOPC  C21722639   5.891   1.381   4.797 -0.2850  0.2610 -0.0682
  184DOPC  H17R22640   5.956   1.373   4.887 -1.9677  2.1277  1.4051
  184DOPC  H17S22641   5.805   1.313   4.813 -0.4224  0.4486 -0.0124
  184DOPC  C21822642   5.836   1.521   4.801 -0.5950 -0.4161 -0.2413
  184DOPC  H18R22643   5.772   1.544   4.713  0.1947  0.1784 -0.6738
  184DOPC  H18S22644   5.903   1.609   4.787 -2.3387  1.3300  1.7658
  184DOPC  H18T22645   5.792   1.543   4.900  1.1561  0.3275  0.4258
  184DOPC   C3322646   6.121   0.798   3.743 -0.4276 -1.5421  0.6777
  184DOPC   H3X22647   6.139   0.689   3.754  1.7410 -1.0668  2.3884
  184DOPC   H3Y22648   6.016   0.834   3.738 -0.2345 -1.1029 -0.5963
  184DOPC   C3422649   6.191   0.866   3.867 -0.0258  0.3653  0.0047
  184DOPC   H4X22650   6.178   0.975   3.848 -0.0687 -0.0443 -2.6937
  184DOPC   H4Y22651   6.298   0.838   3.867 -0.3861 -1.1656 -1.4382
  184DOPC   C3522652   6.128   0.818   3.995  0.0060 -0.1724  0.3439
  184DOPC   H5X22653   6.133   0.707   3.996  0.8654 -0.1373  0.8403
  184DOPC   H5Y22654   6.028   0.861   4.013  0.5612  1.4130 -0.2059
  184DOPC   C3622655   6.204   0.866   4.117  0.0795  0.3127  0.5677
  184DOPC   H6X22656   6.311   0.838   4.104 -0.1040 -0.8550  1.3953
  184DOPC   H6Y22657   6.194   0.977   4.112 -2.6007  0.0699 -0.9983
  184DOPC   C3722658   6.154   0.799   4.241  0.3217  0.0463  0.8154
  184DOPC   H7X22659   6.051   0.836   4.261  0.9427  2.3784  0.0673
  184DOPC   H7Y22660   6.160   0.689   4.230 -0.8591 -0.3221  3.2934
  184DOPC   C3822661   6.242   0.844   4.360 -0.4953  0.3655 -0.0629
  184DOPC   H8X22662   6.349   0.844   4.330 -0.0026 -2.6435  1.3316
  184DOPC   H8Y22663   6.260   0.765   4.437  1.0795  0.7072 -0.0298
  184DOPC   C3922664   6.202   0.977   4.420 -0.0542 -0.2378 -1.2309
  184DOPC   H9X22665   6.144   1.046   4.359  0.4907  2.0713  0.7260
  184DOPC  C31022666   6.224   1.016   4.551  0.2323 -0.2433  0.7556
  184DOPC  H10X22667   6.191   1.117   4.580 -1.5143 -0.6321  0.2084
  184DOPC  C31122668   6.317   0.942   4.645 -0.1254  0.0576  0.0754
  184DOPC  H11X22669   6.423   0.945   4.613 -0.2989 -3.2808 -1.2239
  184DOPC  H11Y22670   6.298   0.832   4.650  1.0468 -0.1409  0.5936
  184DOPC  C31222671   6.317   0.993   4.788  0.6997  0.0251  0.9745
  184DOPC  H12X22672   6.218   1.040   4.810  0.2853  0.1215 -0.9056
  184DOPC  H12Y22673   6.394   1.072   4.796 -0.2335  0.8665  2.0436
  184DOPC  C31322674   6.335   0.894   4.906  0.1148 -0.2571 -0.1155
  184DOPC  H13X22675   6.325   0.948   5.002  0.5336  0.6466 -0.5661
  184DOPC  H13Y22676   6.249   0.825   4.915 -2.7699  2.8553 -1.5785
  184DOPC  C31422677   6.461   0.806   4.892  0.4776  0.5343 -0.1513
  184DOPC  H14X22678   6.471   0.761   4.791 -3.4982 -1.4495  0.1382
  184DOPC  H14Y22679   6.551   0.871   4.903  0.7817  0.5906 -2.3491
  184DOPC  C31522680   6.453   0.694   5.000 -0.3586  0.0743 -0.1239
  184DOPC  H15X22681   6.381   0.612   4.976  1.1697 -0.7475 -2.2461
  184DOPC  H15Y22682   6.432   0.742   5.098 -0.5668  0.5308 -0.3865
  184DOPC  C31622683   6.591   0.634   5.020  0.3925 -0.2065 -0.8546
  184DOPC  H16X22684   6.596   0.568   4.931 -1.8267  0.8289 -1.8167
  184DOPC  H16Y22685   6.670   0.712   5.013 -0.9887  1.2032 -1.4218
  184DOPC  C31722686   6.623   0.551   5.142  0.2349 -0.1815 -0.2647
  184DOPC  H17X22687   6.726   0.516   5.117  0.5717  1.7590 -1.7817
  184DOPC  H17Y22688   6.634   0.609   5.236 -1.0543  0.4929 -0.5190
  184DOPC  C31822689   6.539   0.424   5.171  0.3520 -0.0048  0.2034
  184DOPC  H18X22690   6.578   0.352   5.246  0.8606  1.0039  0.9215
  184DOPC  H18Y22691   6.438   0.448   5.209 -1.5130 -2.9710 -2.3120
  184DOPC  H18Z22692   6.514   0.368   5.078 -4.0394 -1.7240  2.1885
  185DOPC     N22693   6.465   4.946   2.772 -0.8251  0.3589 -0.3649
  185DOPC   C1222694   6.375   4.876   2.681  0.0043 -0.2424 -0.3056
  185DOPC  H12A22695   6.414   4.776   2.672  2.9732  0.5607  2.2079
  185DOPC  H12B22696   6.372   4.926   2.585  0.8592 -2.0361 -1.3221
  185DOPC   C1322697   6.437   5.096   2.778  0.9998  0.4720  0.1565
  185DOPC  H13A22698   6.330   5.110   2.786  0.8406  0.3711 -1.5074
  185DOPC  H13B22699   6.477   5.145   2.866 -0.7416  1.7609  0.2837
  185DOPC  H13C22700   6.457   5.150   2.686 -0.8980 -2.4214 -2.1342
  185DOPC   C1422701   6.612   4.920   2.734 -0.0520  0.3436  0.7936
  185DOPC  H14A22702   6.686   4.971   2.793  1.1621 -1.2420  0.6967
  185DOPC  H14B22703   6.635   4.816   2.754 -1.9145  0.1372  2.1205
  185DOPC  H14C22704   6.637   4.944   2.632 -3.3782 -1.8091 -0.7151
  185DOPC   C1522705   6.447   4.897   2.916  0.3629 -0.5034  0.2574
  185DOPC  H15A22706   6.520   4.931   2.988  0.3884 -1.2407  0.5867
  185DOPC  H15B22707   6.460   4.790   2.923 -1.4702 -0.7873 -0.2096
  185DOPC  H15C22708   6.347   4.925   2.945  0.0774 -0.3421 -0.8198
  185DOPC   C1122709   6.233   4.851   2.733  0.1606  0.2663 -0.0716
  185DOPC  H11A22710   6.190   4.786   2.653 -1.1588  0.2007  0.6529
  185DOPC  H11B22711   6.230   4.795   2.829 -0.1108  0.0133 -0.2246
  185DOPC     P22712   6.081   5.020   2.857 -0.0433  0.6622 -0.3112
  185DOPC   O1322713   5.973   5.113   2.812 -0.3634  0.1252  0.6307
  185DOPC   O1422714   6.175   5.071   2.955  0.1263 -0.3983  0.0553
  185DOPC   O1222715   6.158   4.969   2.730  0.3777  0.2871 -0.2145
  185DOPC   O1122716   6.018   4.886   2.924  0.5526  0.8310  0.4312
  185DOPC    C122717   5.983   4.870   3.062 -0.2476 -0.3958 -0.3401
  185DOPC    HA22718   5.893   4.806   3.071 -1.5172  1.4271  0.4524
  185DOPC    HB22719   5.957   4.971   3.100  2.5742  0.8715 -1.4817
  185DOPC    C222720   6.097   4.800   3.139  0.2390 -0.7261 -0.5194
  185DOPC    HS22721   6.190   4.856   3.116  1.3104 -2.5189 -0.7010
  185DOPC   O2122722   6.096   4.666   3.090 -0.0813 -0.3781  0.0458
  185DOPC   C2122723   6.213   4.608   3.086  0.6753 -0.2227 -0.6136
  185DOPC   O2222724   6.320   4.659   3.111 -0.1613  0.0282 -0.8971
  185DOPC   C2222725   6.194   4.463   3.037 -0.4514 -0.6220  0.6874
  185DOPC   H2R22726   6.156   4.482   2.935  0.4592 -0.9206  0.2815
  185DOPC   H2S22727   6.114   4.416   3.097 -1.5957  0.4014  0.0131
  185DOPC    C322728   6.065   4.801   3.294  0.3393  0.2719  0.3490
  185DOPC    HX22729   5.968   4.747   3.299 -0.9504  2.5627  1.9854
  185DOPC    HY22730   6.042   4.901   3.338  2.1107 -0.0717  2.1789
  185DOPC   O3122731   6.160   4.724   3.370 -0.1141 -0.5368 -0.0032
  185DOPC   C3122732   6.282   4.789   3.391 -0.0859  0.0357  0.9804
  185DOPC   O3222733   6.306   4.897   3.339  0.0668 -0.4286 -0.0984
  185DOPC   C3222734   6.369   4.701   3.483 -0.0720 -0.4876 -0.6623
  185DOPC   H2X22735   6.315   4.670   3.574  1.7401 -0.1315  0.6010
  185DOPC   H2Y22736   6.405   4.614   3.424  2.3737  0.2793 -0.4393
  185DOPC   C2322737   6.330   4.384   3.039  0.3217  0.0830  0.5800
  185DOPC   H3R22738   6.402   4.441   2.976  0.6878 -1.0855 -0.0782
  185DOPC   H3S22739   6.305   4.288   2.989 -1.1056  0.3509  0.7368
  185DOPC   C2422740   6.390   4.368   3.175 -0.6811 -0.0277  0.1518
  185DOPC   H4R22741   6.399   4.463   3.231 -1.8042 -0.3081  0.8306
  185DOPC   H4S22742   6.483   4.307   3.164 -0.0090  1.1799 -1.2549
  185DOPC   C2522743   6.289   4.294   3.263  0.3455 -0.0837 -0.2116
  185DOPC   H5R22744   6.281   4.195   3.212  3.7193 -0.1840 -0.8027
  185DOPC   H5S22745   6.193   4.348   3.275  1.2475  2.2096 -2.3591
  185DOPC   C2622746   6.344   4.278   3.406 -0.4449  0.3925  0.7094
  185DOPC   H6R22747   6.347   4.379   3.452  1.2520  1.0611 -0.7601
  185DOPC   H6S22748   6.448   4.240   3.400 -0.0371  1.5818  0.0008
  185DOPC   C2722749   6.269   4.174   3.493 -0.2648 -0.2243  0.0183
  185DOPC   H7R22750   6.302   4.069   3.479  0.3869 -0.6426  3.5721
  185DOPC   H7S22751   6.161   4.187   3.469 -0.4772  2.1671  1.7887
  185DOPC   C2822752   6.296   4.206   3.641 -0.5511 -0.4803  0.2491
  185DOPC   H8R22753   6.404   4.206   3.668  0.3630 -0.0126 -2.9624
  185DOPC   H8S22754   6.255   4.119   3.696  0.8403 -2.8445 -2.1802
  185DOPC   C2922755   6.225   4.326   3.698 -0.4164 -0.0259  0.2030
  185DOPC   H9R22756   6.133   4.349   3.643 -0.4535 -1.9095 -0.5790
  185DOPC  C21022757   6.273   4.416   3.781  0.2793 -0.6633  0.6430
  185DOPC  H10R22758   6.204   4.496   3.816  0.2916 -0.5281  0.3624
  185DOPC  C21122759   6.409   4.428   3.835  0.2242 -0.1784  0.1647
  185DOPC  H11R22760   6.487   4.471   3.769  1.1841 -0.6556  0.9681
  185DOPC  H11S22761   6.444   4.325   3.857  1.4606  0.2161  0.1338
  185DOPC  C21222762   6.420   4.498   3.969  0.0814 -0.0290 -0.2241
  185DOPC  H12R22763   6.514   4.464   4.018 -0.5666  0.4801  1.4219
  185DOPC  H12S22764   6.332   4.472   4.032  0.1676  0.9417  0.3211
  185DOPC  C21322765   6.431   4.653   3.962  0.6168  0.2642  0.3689
  185DOPC  H13R22766   6.351   4.688   3.893  1.8927  1.5528 -0.5174
  185DOPC  H13S22767   6.528   4.684   3.919  2.5917 -0.1962  4.1355
  185DOPC  C21422768   6.406   4.722   4.098  0.0939 -0.0445  0.6192
  185DOPC  H14R22769   6.308   4.699   4.145  1.5542  0.1234  3.9923
  185DOPC  H14S22770   6.413   4.832   4.085 -0.5913  0.0052  0.6211
  185DOPC  C21522771   6.517   4.683   4.212  0.2624  0.3782  0.4916
  185DOPC  H15R22772   6.617   4.726   4.189  1.1887 -0.8952  1.9239
  185DOPC  H15S22773   6.514   4.574   4.232  0.0142  0.8168  3.1273
  185DOPC  C21622774   6.481   4.741   4.350  0.1448 -0.2288  0.1451
  185DOPC  H16R22775   6.465   4.851   4.347 -2.0555 -0.5197 -0.1197
  185DOPC  H16S22776   6.571   4.726   4.415  0.4486 -0.2240 -0.2697
  185DOPC  C21722777   6.361   4.672   4.420 -0.2211 -0.3090  0.5378
  185DOPC  H17R22778   6.380   4.563   4.426 -2.1478 -0.7085  0.0452
  185DOPC  H17S22779   6.268   4.693   4.362  0.3793  1.3626  0.1148
  185DOPC  C21822780   6.331   4.722   4.564 -0.2552 -0.1227  0.3160
  185DOPC  H18R22781   6.417   4.691   4.627 -1.0976 -0.8367  1.1581
  185DOPC  H18S22782   6.241   4.669   4.603  0.3438 -1.7607 -0.4605
  185DOPC  H18T22783   6.308   4.829   4.584 -2.0229 -0.1905 -1.0672
  185DOPC   C3322784   6.496   4.767   3.525 -0.6420 -0.5501  0.0359
  185DOPC   H3X22785   6.557   4.815   3.445  0.1743  0.1791  1.0676
  185DOPC   H3Y22786   6.575   4.700   3.565  0.2008  0.1972 -0.3441
  185DOPC   C3422787   6.467   4.879   3.631 -0.2425 -0.2553  0.1527
  185DOPC   H4X22788   6.417   4.830   3.717  0.1081  0.8347  1.0028
  185DOPC   H4Y22789   6.399   4.957   3.591 -1.1544 -0.5740  1.0572
  185DOPC   C3522790   6.589   4.959   3.682  0.2209 -0.2442  0.6920
  185DOPC   H5X22791   6.652   4.972   3.591 -1.5764 -0.8609 -0.6891
  185DOPC   H5Y22792   6.649   4.893   3.749  0.1927  0.0509  1.0143
  185DOPC   C3622793   6.555   5.093   3.750 -0.0416 -0.3745  1.2270
  185DOPC   H6X22794   6.514   5.167   3.678  1.6066 -2.4454 -2.1281
  185DOPC   H6Y22795   6.482   5.066   3.830 -2.1389  0.4765 -0.2997
  185DOPC   C3722796   6.678   5.150   3.823  0.6881 -0.1873  0.7089
  185DOPC   H7X22797   6.710   5.060   3.879  0.0155 -1.6367 -1.1159
  185DOPC   H7Y22798   6.758   5.173   3.749 -0.8343 -2.8056 -1.9644
  185DOPC   C3822799   6.651   5.267   3.914  0.0488 -0.3724 -0.3156
  185DOPC   H8X22800   6.740   5.272   3.980 -0.5025 -0.9442  0.4938
  185DOPC   H8Y22801   6.570   5.247   3.988 -0.3848  3.7025  0.5550
  185DOPC   C3922802   6.611   5.381   3.835 -0.6407 -0.2682 -0.0218
  185DOPC   H9X22803   6.524   5.367   3.769  0.7569 -0.1330 -1.9872
  185DOPC  C31022804   6.694   5.488   3.823 -0.2702 -0.1933  0.0793
  185DOPC  H10X22805   6.655   5.576   3.772  1.6604  1.5133  1.3769
  185DOPC  C31122806   6.826   5.510   3.896  0.3808  0.5956 -1.1023
  185DOPC  H11X22807   6.905   5.544   3.825  1.3685 -0.4816 -0.5604
  185DOPC  H11Y22808   6.861   5.418   3.947  0.2568  0.6585 -0.9027
  185DOPC  C31222809   6.833   5.637   3.986  0.0760 -0.0447  0.2617
  185DOPC  H12X22810   6.788   5.720   3.928  0.7829  0.9483  1.0731
  185DOPC  H12Y22811   6.940   5.663   4.003  0.6474 -1.1656 -1.3851
  185DOPC  C31322812   6.755   5.619   4.121 -0.6015 -0.4756 -0.0652
  185DOPC  H13X22813   6.773   5.518   4.163 -1.7068 -0.5232  0.3230
  185DOPC  H13Y22814   6.786   5.695   4.196  1.1730 -0.1808 -1.0345
  185DOPC  C31422815   6.603   5.633   4.101 -0.1623 -0.2815 -0.0788
  185DOPC  H14X22816   6.586   5.700   4.014  1.4016 -0.9858 -0.9815
  185DOPC  H14Y22817   6.567   5.532   4.072 -2.4519 -0.1099  1.9277
  185DOPC  C31522818   6.532   5.700   4.218  0.2221  0.0084 -0.5186
  185DOPC  H15X22819   6.444   5.753   4.177 -1.8229 -2.1254  0.8412
  185DOPC  H15Y22820   6.593   5.783   4.260  1.4438 -1.4007  0.6006
  185DOPC  C31622821   6.485   5.605   4.332 -0.1014 -0.3520 -0.1356
  185DOPC  H16X22822   6.411   5.530   4.297 -0.4346  0.5467 -1.4347
  185DOPC  H16Y22823   6.569   5.546   4.373 -0.8506 -0.5128  1.2325
  185DOPC  C31722824   6.416   5.685   4.446  0.2079 -0.3770  0.2055
  185DOPC  H17X22825   6.483   5.771   4.470  0.4116  0.2089 -2.2189
  185DOPC  H17Y22826   6.324   5.732   4.406  0.2645  0.0920  0.6167
  185DOPC  C31822827   6.393   5.606   4.575  0.0197  1.2431 -0.7741
  185DOPC  H18X22828   6.322   5.524   4.552  1.9812 -0.1940 -2.1362
  185DOPC  H18Y22829   6.490   5.562   4.609 -1.5386 -0.6624  1.5263
  185DOPC  H18Z22830   6.371   5.677   4.657  0.6759  1.1251 -0.4874
  186DOPC     N22831   0.531   2.890   3.054 -0.2989  0.2074  0.2629
  186DOPC   C1222832   0.434   2.902   3.169 -0.3277 -0.5590  0.3728
  186DOPC  H12A22833   0.336   2.942   3.147 -0.6268 -0.7928  1.2561
  186DOPC  H12B22834   0.476   2.969   3.242 -2.1099 -0.8340  1.7312
  186DOPC   C1322835   0.580   3.020   3.010 -0.2301 -0.2277 -0.0457
  186DOPC  H13A22836   0.637   3.015   2.918  1.1508  0.7759  0.7111
  186DOPC  H13B22837   0.507   3.099   3.013 -0.0997 -0.0204  3.9074
  186DOPC  H13C22838   0.657   3.055   3.078 -0.8743 -1.0898  1.1664
  186DOPC   C1422839   0.464   2.826   2.934 -0.2967  0.2948  0.0655
  186DOPC  H14A22840   0.437   2.727   2.969  3.4426 -0.5067  1.1427
  186DOPC  H14B22841   0.377   2.883   2.907 -0.1616  1.1476  1.3332
  186DOPC  H14C22842   0.528   2.815   2.848 -0.0118  1.1511  0.1582
  186DOPC   C1522843   0.652   2.808   3.088  0.1874  0.3015  0.5902
  186DOPC  H15A22844   0.736   2.823   3.022  0.3509  0.4117  0.8186
  186DOPC  H15B22845   0.641   2.701   3.083 -1.7781  0.5061 -0.0946
  186DOPC  H15C22846   0.699   2.830   3.183 -0.7857 -0.2476  1.2132
  186DOPC   C1122847   0.404   2.772   3.243  0.0936  0.2840 -0.6162
  186DOPC  H11A22848   0.501   2.732   3.282 -0.5440  1.4082  2.4651
  186DOPC  H11B22849   0.335   2.784   3.329  2.6302  0.4161  1.5631
  186DOPC     P22850   0.197   2.673   3.115  0.3339  0.0900 -0.7622
  186DOPC   O1322851   0.194   2.591   2.992 -0.4792 -1.0316 -0.0451
  186DOPC   O1422852   0.155   2.813   3.100  0.7324 -0.7445  0.3650
  186DOPC   O1222853   0.348   2.669   3.161 -0.0972 -0.6574 -0.2187
  186DOPC   O1122854   0.119   2.599   3.230  0.1333  0.3623  0.6871
  186DOPC    C122855   0.156   2.491   3.313  0.1171  0.2052 -0.3431
  186DOPC    HA22856   0.234   2.424   3.271  0.3083 -0.7673  1.4586
  186DOPC    HB22857   0.062   2.433   3.326 -0.2238  0.9892  0.7199
  186DOPC    C222858   0.199   2.530   3.456 -0.0140 -0.1790  0.1155
  186DOPC    HS22859   0.293   2.589   3.443 -1.6692  2.3505 -1.3037
  186DOPC   O2122860   0.207   2.407   3.533  0.2143 -0.0984  0.6452
  186DOPC   C2122861   0.299   2.396   3.629  0.3036  0.6345  0.6383
  186DOPC   O2222862   0.383   2.481   3.652  0.2676 -0.1333  0.1992
  186DOPC   C2222863   0.272   2.265   3.705  0.9699  0.0434 -0.7963
  186DOPC   H2R22864   0.237   2.194   3.627 -2.1957 -0.8976  1.2938
  186DOPC   H2S22865   0.190   2.284   3.776  1.6852 -1.0527  0.3632
  186DOPC    C322866   0.099   2.623   3.529  0.3689 -0.6448 -0.6436
  186DOPC    HX22867   0.013   2.554   3.520  0.9237 -1.5427  0.6834
  186DOPC    HY22868   0.084   2.720   3.477 -1.2657 -0.9485 -0.7869
  186DOPC   O3122869   0.126   2.636   3.671 -0.0697  0.3718 -0.0128
  186DOPC   C3122870   0.181   2.749   3.718 -0.6557 -0.2740 -0.1347
  186DOPC   O3222871   0.200   2.850   3.644  0.0272 -0.2467  0.4483
  186DOPC   C3222872   0.229   2.720   3.854 -0.3977  0.5190 -1.1728
  186DOPC   H2X22873   0.157   2.739   3.937  2.1428 -2.4880  2.0545
  186DOPC   H2Y22874   0.256   2.613   3.861  2.3027  1.2112  1.0257
  186DOPC   C2322875   0.390   2.201   3.776 -0.0554  0.0022 -0.2909
  186DOPC   H3R22876   0.435   2.272   3.849 -1.2641  1.3045 -0.7808
  186DOPC   H3S22877   0.459   2.163   3.697 -0.6219 -2.4153  0.2888
  186DOPC   C2422878   0.337   2.074   3.845  0.1012 -0.2433 -0.3081
  186DOPC   H4R22879   0.416   2.002   3.876 -0.8837 -0.2347  2.4749
  186DOPC   H4S22880   0.266   2.020   3.779 -0.3031  1.2761 -1.1605
  186DOPC   C2522881   0.234   2.104   3.959 -0.4380  0.1108  0.5112
  186DOPC   H5R22882   0.139   2.128   3.906 -1.4873 -0.2643  2.1520
  186DOPC   H5S22883   0.259   2.201   4.007 -0.9155  0.8047 -0.5804
  186DOPC   C2622884   0.213   1.989   4.062  0.0578 -0.2532  0.6577
  186DOPC   H6R22885   0.136   2.022   4.135 -0.3486 -1.0945  0.6290
  186DOPC   H6S22886   0.309   1.965   4.112  1.8817 -4.3178 -3.9181
  186DOPC   C2722887   0.176   1.852   4.008 -0.1403 -0.5796 -0.1489
  186DOPC   H7R22888   0.257   1.818   3.940  1.2961  0.6904  0.8522
  186DOPC   H7S22889   0.091   1.867   3.938 -0.5318  2.4417  0.8075
  186DOPC   C2822890   0.129   1.747   4.113  0.1201 -0.2278  0.6260
  186DOPC   H8R22891   0.083   1.671   4.045 -0.2143  1.3542 -0.9687
  186DOPC   H8S22892   0.055   1.795   4.181 -0.1297 -2.7451  2.2896
  186DOPC   C2922893   0.227   1.683   4.207  0.7001 -0.2979 -0.2632
  186DOPC   H9R22894   0.306   1.629   4.153 -0.8717 -1.9532 -0.9892
  186DOPC  C21022895   0.244   1.692   4.339  0.3020  0.2082  0.4271
  186DOPC  H10R22896   0.333   1.646   4.384  1.1908  1.0422 -0.4293
  186DOPC  C21122897   0.153   1.768   4.435  0.1518  0.3534 -0.0740
  186DOPC  H11R22898   0.052   1.796   4.399 -0.8795 -0.1710  2.2002
  186DOPC  H11S22899   0.204   1.863   4.461 -0.2135  0.0457  1.9711
  186DOPC  C21222900   0.125   1.689   4.565 -0.3104 -0.5577 -0.0052
  186DOPC  H12R22901   0.218   1.642   4.602 -0.4175 -0.6536  0.1424
  186DOPC  H12S22902   0.049   1.613   4.533  0.8278 -0.4079 -3.5054
  186DOPC  C21322903   0.071   1.786   4.671  0.4238  0.1742  0.7172
  186DOPC  H13R22904  -0.032   1.820   4.643  1.1880  1.7323 -0.3640
  186DOPC  H13S22905   0.136   1.874   4.693 -1.1455  1.6642 -0.2956
  186DOPC  C21422906   0.050   1.712   4.804  1.2912 -0.1936 -0.6938
  186DOPC  H14R22907   0.137   1.644   4.810  0.2589 -2.0991 -4.4239
  186DOPC  H14S22908  -0.046   1.657   4.796 -0.3127  1.9979  1.7218
  186DOPC  C21522909   0.022   1.803   4.924  0.4678  0.3775 -0.2991
  186DOPC  H15R22910  -0.070   1.862   4.905 -0.1896 -0.2187  0.9546
  186DOPC  H15S22911   0.109   1.868   4.948  0.7149 -0.9435  2.8023
  186DOPC  C21622912  -0.026   1.719   5.040 -0.6143  0.0102 -0.3023
  186DOPC  H16R22913   0.052   1.655   5.088 -2.9245 -2.9054 -0.1645
  186DOPC  H16S22914  -0.106   1.645   5.019 -1.1581  1.3940 -3.6961
  186DOPC  C21722915  -0.073   1.810   5.154 -0.0913 -0.0374  0.6135
  186DOPC  H17R22916  -0.176   1.851   5.150  0.1056  0.4784  0.7508
  186DOPC  H17S22917  -0.009   1.898   5.134  2.3445 -2.1637 -1.7616
  186DOPC  C21822918  -0.043   1.745   5.290 -0.2804  0.9609 -0.4034
  186DOPC  H18R22919  -0.096   1.647   5.292 -1.1825  1.4340 -0.5763
  186DOPC  H18S22920  -0.072   1.811   5.375 -0.0992  0.2905  0.1950
  186DOPC  H18T22921   0.066   1.722   5.296 -0.4308  0.5489  3.1497
  186DOPC   C3322922   0.363   2.799   3.885  0.3442  0.0611  0.1620
  186DOPC   H3X22923   0.421   2.793   3.791 -0.0281  2.1729 -0.2588
  186DOPC   H3Y22924   0.414   2.739   3.964 -1.3412  0.4563  1.6148
  186DOPC   C3422925   0.348   2.954   3.923 -0.0029 -0.2935 -0.2454
  186DOPC   H4X22926   0.317   2.969   4.029  0.0179  2.6656 -0.5805
  186DOPC   H4Y22927   0.274   2.997   3.852 -0.5348 -1.7542 -0.6015
  186DOPC   C3522928   0.478   3.042   3.899 -0.6337  0.4438  0.2784
  186DOPC   H5X22929   0.517   3.025   3.796  0.4175  0.4448  0.6670
  186DOPC   H5Y22930   0.562   3.004   3.960 -0.1045  0.4391 -0.4340
  186DOPC   C3622931   0.456   3.189   3.918 -0.5078 -0.0431  0.7267
  186DOPC   H6X22932   0.550   3.249   3.917 -0.2083 -0.3980  2.6063
  186DOPC   H6Y22933   0.384   3.214   3.838  0.1516  1.0891  0.4615
  186DOPC   C3722934   0.398   3.234   4.054 -0.0699  0.0155  0.1485
  186DOPC   H7X22935   0.297   3.188   4.062  0.1492 -0.1882  2.3009
  186DOPC   H7Y22936   0.457   3.203   4.143 -0.5848  2.1063  1.2838
  186DOPC   C3822937   0.368   3.386   4.051 -0.5385 -0.0553 -0.0751
  186DOPC   H8X22938   0.286   3.416   4.120 -0.5763 -0.2515 -0.0332
  186DOPC   H8Y22939   0.320   3.422   3.958 -1.8258 -0.8598  0.2647
  186DOPC   C3922940   0.488   3.472   4.077  0.3608  0.3340 -0.2718
  186DOPC   H9X22941   0.559   3.471   3.993  2.1865 -0.2141  1.2336
  186DOPC  C31022942   0.521   3.551   4.183 -0.0638  0.5625  0.4554
  186DOPC  H10X22943   0.613   3.611   4.181 -0.7900  1.8434  2.6100
  186DOPC  C31122944   0.440   3.564   4.304  0.0256 -0.2776 -0.5981
  186DOPC  H11X22945   0.368   3.480   4.311  1.4170 -1.3699  3.2932
  186DOPC  H11Y22946   0.372   3.652   4.299 -0.1569 -0.2880  1.0680
  186DOPC  C31222947   0.528   3.584   4.433 -0.4965  0.3163 -0.4571
  186DOPC  H12X22948   0.582   3.681   4.432 -0.6756  0.4451  0.8911
  186DOPC  H12Y22949   0.599   3.498   4.435  0.5290  1.1198 -0.8727
  186DOPC  C31322950   0.440   3.601   4.563  0.0788  0.1670  0.0579
  186DOPC  H13X22951   0.504   3.665   4.627  1.5471 -1.5705  0.3711
  186DOPC  H13Y22952   0.347   3.656   4.536  1.6351  2.1812 -1.5391
  186DOPC  C31422953   0.421   3.469   4.634  0.1068 -0.2786 -0.7092
  186DOPC  H14X22954   0.357   3.403   4.572 -0.2687 -1.4150  0.8276
  186DOPC  H14Y22955   0.521   3.424   4.652  0.5560  1.2722  1.0397
  186DOPC  C31522956   0.355   3.492   4.774  0.3148 -0.3630  0.1857
  186DOPC  H15X22957   0.278   3.572   4.772  1.0795  0.4044  0.6715
  186DOPC  H15Y22958   0.433   3.523   4.847 -0.3797  1.5561  0.1923
  186DOPC  C31622959   0.294   3.364   4.829 -0.2656  0.2925 -0.7488
  186DOPC  H16X22960   0.363   3.279   4.849 -1.3902 -0.4148  0.3139
  186DOPC  H16Y22961   0.260   3.384   4.933  0.8321 -0.7997 -0.1516
  186DOPC  C31722962   0.176   3.297   4.749 -0.3934 -0.0955 -0.2175
  186DOPC  H17X22963   0.218   3.267   4.651 -0.1218 -1.5497  0.3213
  186DOPC  H17Y22964   0.141   3.202   4.795 -1.5326  0.1140 -0.6212
  186DOPC  C31822965   0.056   3.388   4.722  0.3020  0.5324 -0.3389
  186DOPC  H18X22966  -0.038   3.332   4.705 -0.4491  1.5444  0.3847
  186DOPC  H18Y22967   0.043   3.446   4.816 -1.2573  0.3297 -0.4060
  186DOPC  H18Z22968   0.080   3.459   4.641  1.0795  1.9140  1.0553
  187DOPC     N22969   7.313   0.451   2.635 -0.2390 -0.7486  0.4038
  187DOPC   C1222970   7.309   0.532   2.759  0.2567 -0.0328 -0.5771
  187DOPC  H12A22971   7.209   0.564   2.785  0.2564  1.1711 -1.9532
  187DOPC  H12B22972   7.353   0.628   2.738  1.2207 -0.9456 -3.1839
  187DOPC   C1322973   7.229   0.507   2.529 -0.0725  0.0820  0.2078
  187DOPC  H13A22974   7.123   0.498   2.545  0.0432 -0.8947  0.4548
  187DOPC  H13B22975   7.242   0.615   2.527  0.5269  0.0210  0.4404
  187DOPC  H13C22976   7.252   0.453   2.438 -0.1338 -0.6818  0.6413
  187DOPC   C1422977   7.268   0.312   2.652  0.2192 -0.0396  0.8914
  187DOPC  H14A22978   7.315   0.259   2.734 -1.8541 -1.2312  1.3726
  187DOPC  H14B22979   7.165   0.311   2.683  0.1776  0.7500  0.8009
  187DOPC  H14C22980   7.290   0.257   2.562 -0.6216 -2.7173  2.2138
  187DOPC   C1522981   7.457   0.453   2.595  0.2344  0.0610 -0.1009
  187DOPC  H15A22982   7.467   0.401   2.501 -1.7251  1.8757 -1.3982
  187DOPC  H15B22983   7.510   0.399   2.673  0.9802 -1.3632 -1.5244
  187DOPC  H15C22984   7.502   0.550   2.585  1.6425 -0.6465 -0.8400
  187DOPC   C1122985   7.367   0.471   2.881 -0.0892  0.3256 -1.3594
  187DOPC  H11A22986   7.364   0.540   2.968  1.1795  0.3213 -1.2909
  187DOPC  H11B22987   7.304   0.384   2.909  1.5454 -0.0910  1.3539
  187DOPC     P22988   7.629   0.474   2.912 -0.2277 -0.2819  0.1120
  187DOPC   O1322989   7.605   0.610   2.959 -0.4163 -0.4028  0.3035
  187DOPC   O1422990   7.729   0.463   2.797  0.2668 -0.3992 -0.4724
  187DOPC   O1222991   7.496   0.410   2.854 -0.3600 -0.5923 -0.0909
  187DOPC   O1122992   7.671   0.376   3.032 -0.0132 -0.2962 -0.3580
  187DOPC    C122993   7.576   0.315   3.117 -0.6584 -0.2749  0.5996
  187DOPC    HA22994   7.581   0.207   3.090  0.6036 -0.3576  1.0935
  187DOPC    HB22995   7.472   0.331   3.080  0.6803  4.7225 -1.9078
  187DOPC    C222996   7.606   0.340   3.271  0.2041 -0.0999  0.8523
  187DOPC    HS22997   7.511   0.320   3.325  1.0429 -2.9392  1.4320
  187DOPC   O2122998   7.648   0.476   3.294  0.5146 -0.2396 -0.2100
  187DOPC   C2122999   7.545   0.560   3.303  0.2108  0.6417 -0.2592
  187DOPC   O2223000   7.431   0.525   3.304  0.5186  0.0660 -0.2604
  187DOPC   C2223001   7.604   0.697   3.321  0.0828  0.2735 -0.3559
  187DOPC   H2R23002   7.617   0.751   3.225  0.7460  0.3948 -0.2035
  187DOPC   H2S23003   7.700   0.697   3.377 -0.3398  1.4015  0.4074
  187DOPC    C323004   7.724   0.240   3.326  0.0341 -0.2348 -0.4325
  187DOPC    HX23005   7.822   0.276   3.288 -0.1072  0.2136 -0.3754
  187DOPC    HY23006   7.703   0.138   3.289 -2.4564 -0.2661  0.8367
  187DOPC   O3123007   7.719   0.237   3.477 -0.5405 -0.1598  0.3558
  187DOPC   C3123008   7.801   0.299   3.547 -0.8024  0.7926  0.5510
  187DOPC   O3223009   7.921   0.325   3.507  0.4786 -0.3473 -0.4375
  187DOPC   C3223010   7.732   0.343   3.678  0.5518  0.7272  0.2771
  187DOPC   H2X23011   7.625   0.357   3.654  0.2414 -1.5284  0.1033
  187DOPC   H2Y23012   7.753   0.252   3.740  1.0709  1.4247  1.1557
  187DOPC   C2323013   7.514   0.784   3.412  0.1535  0.5141  0.4885
  187DOPC   H3R23014   7.409   0.767   3.381  0.1709  0.3066  0.5369
  187DOPC   H3S23015   7.544   0.888   3.388  0.3228 -0.2145 -2.8441
  187DOPC   C2423016   7.535   0.768   3.565 -0.0738  0.5777  0.3881
  187DOPC   H4R23017   7.634   0.802   3.603 -0.9042  2.0783  1.3155
  187DOPC   H4S23018   7.533   0.661   3.593  1.6093  0.5770  0.6021
  187DOPC   C2523019   7.425   0.846   3.636 -0.1771  0.1455  0.3849
  187DOPC   H5R23020   7.340   0.849   3.565  0.9291  1.7692 -0.9582
  187DOPC   H5S23021   7.459   0.952   3.644  0.3827 -0.0655  0.9645
  187DOPC   C2623022   7.369   0.796   3.772  0.3059 -0.4047  0.4818
  187DOPC   H6R23023   7.359   0.686   3.768 -1.4321 -0.3665  2.4244
  187DOPC   H6S23024   7.280   0.852   3.808  0.7873  0.2540  0.6685
  187DOPC   C2723025   7.456   0.832   3.887 -0.5954  0.4825  0.2942
  187DOPC   H7R23026   7.563   0.823   3.860 -0.4714 -1.4549  1.2922
  187DOPC   H7S23027   7.442   0.761   3.970 -0.5438 -1.1543 -1.0483
  187DOPC   C2823028   7.426   0.971   3.941  0.1569 -0.6814 -0.3555
  187DOPC   H8R23029   7.316   0.983   3.953  0.2245 -0.0477 -0.3342
  187DOPC   H8S23030   7.463   1.044   3.866  2.3761 -0.8746  0.4779
  187DOPC   C2923031   7.491   1.014   4.065 -0.2512 -0.0610 -0.4676
  187DOPC   H9R23032   7.565   1.095   4.053 -0.0571 -0.2042 -0.2304
  187DOPC  C21023033   7.475   0.973   4.193 -0.1255  0.5193  0.3393
  187DOPC  H10R23034   7.526   1.035   4.268  1.3295  1.9657 -1.7278
  187DOPC  C21123035   7.363   0.871   4.239 -0.3234 -0.4408 -0.1208
  187DOPC  H11R23036   7.414   0.776   4.265 -0.5070 -0.7213 -0.7532
  187DOPC  H11S23037   7.295   0.843   4.155  2.0608 -0.5203 -2.1321
  187DOPC  C21223038   7.271   0.922   4.354 -0.1781 -0.2778  0.0409
  187DOPC  H12R23039   7.180   0.859   4.366 -0.5915  0.7761  3.5824
  187DOPC  H12S23040   7.227   1.019   4.322  0.5331  0.8714  2.3589
  187DOPC  C21323041   7.336   0.938   4.498 -0.0260 -1.0739  0.0320
  187DOPC  H13R23042   7.421   1.008   4.482  0.7067 -1.7248  0.9440
  187DOPC  H13S23043   7.381   0.842   4.533  0.8950 -0.0255  1.8512
  187DOPC  C21423044   7.242   0.997   4.599  0.0863  0.3814  0.7887
  187DOPC  H14R23045   7.272   0.991   4.706  0.9462 -0.0677  0.5348
  187DOPC  H14S23046   7.148   0.940   4.583  1.0116 -1.1375  0.5396
  187DOPC  C21523047   7.211   1.141   4.568  0.4688 -0.1559 -0.0982
  187DOPC  H15R23048   7.184   1.161   4.462  1.6786  2.5299  0.0412
  187DOPC  H15S23049   7.304   1.194   4.595  1.4403 -1.1181 -1.4624
  187DOPC  C21623050   7.111   1.221   4.659  0.3409  0.3758  0.1350
  187DOPC  H16R23051   7.124   1.189   4.765  0.1670 -0.1650 -0.0057
  187DOPC  H16S23052   7.011   1.194   4.621  1.7656 -4.2296 -0.9423
  187DOPC  C21723053   7.123   1.379   4.656  0.3795  0.2989 -0.1298
  187DOPC  H17R23054   7.097   1.416   4.555  0.5135 -0.2358 -0.3622
  187DOPC  H17S23055   7.228   1.406   4.682  0.0619  1.7439 -0.2271
  187DOPC  C21823056   7.023   1.439   4.756  0.0196 -0.5055  0.5521
  187DOPC  H18R23057   7.042   1.546   4.730  1.7282 -0.9680 -0.2003
  187DOPC  H18S23058   7.047   1.413   4.862 -2.2422  1.7564  1.7313
  187DOPC  H18T23059   6.922   1.402   4.730 -0.1294 -0.4671  1.0530
  187DOPC   C3323060   7.791   0.469   3.742 -1.0298  0.1065 -0.4952
  187DOPC   H3X23061   7.757   0.561   3.690 -0.7026 -0.2818 -1.4268
  187DOPC   H3Y23062   7.900   0.471   3.723 -0.4861 -1.3617  2.0377
  187DOPC   C3423063   7.752   0.488   3.891 -0.7322  0.0686  0.1675
  187DOPC   H4X23064   7.785   0.409   3.961 -3.1780 -0.0920  1.2485
  187DOPC   H4Y23065   7.641   0.484   3.894 -0.7373 -2.5320 -0.6851
  187DOPC   C3523066   7.799   0.626   3.936 -0.2104 -0.2327  0.0803
  187DOPC   H5X23067   7.762   0.687   3.851  1.7400 -0.8621 -1.2865
  187DOPC   H5Y23068   7.910   0.626   3.936 -0.1674 -2.6359 -0.4047
  187DOPC   C3623069   7.746   0.687   4.066 -0.8330  0.5100 -0.1645
  187DOPC   H6X23070   7.797   0.783   4.087 -0.9284  0.5167  0.0391
  187DOPC   H6Y23071   7.637   0.704   4.052 -0.6934  0.2751 -1.7671
  187DOPC   C3723072   7.751   0.590   4.187 -0.2579 -0.1217 -0.5519
  187DOPC   H7X23073   7.699   0.494   4.170 -0.3429 -0.4290  1.2034
  187DOPC   H7Y23074   7.857   0.565   4.211 -0.2069 -0.9317 -1.5956
  187DOPC   C3823075   7.689   0.661   4.313 -0.3911 -0.2017 -0.1706
  187DOPC   H8X23076   7.579   0.671   4.305 -0.4939 -0.5023  0.7064
  187DOPC   H8Y23077   7.738   0.759   4.325  2.2904 -1.7331  2.9354
  187DOPC   C3923078   7.712   0.585   4.437 -0.1120  1.0143  0.3054
  187DOPC   H9X23079   7.691   0.478   4.430  3.0083  0.2318  1.2946
  187DOPC  C31023080   7.728   0.633   4.561  0.0184  0.1116 -0.2321
  187DOPC  H10X23081   7.728   0.562   4.645  1.1334 -0.5554 -0.7623
  187DOPC  C31123082   7.735   0.775   4.614  0.2056 -0.2943 -0.2750
  187DOPC  H11X23083   7.706   0.846   4.534 -1.4365 -0.5726  0.0464
  187DOPC  H11Y23084   7.842   0.794   4.637  0.2266  0.2515 -0.8008
  187DOPC  C31223085   7.637   0.793   4.733 -0.9667  0.2065  0.2146
  187DOPC  H12X23086   7.535   0.754   4.712 -0.1515 -1.6259 -0.5881
  187DOPC  H12Y23087   7.622   0.902   4.750  1.6509  1.2829 -3.3918
  187DOPC  C31323088   7.681   0.732   4.869 -0.1970  0.1102 -0.1130
  187DOPC  H13X23089   7.698   0.624   4.849  3.8866  0.4768  0.4637
  187DOPC  H13Y23090   7.781   0.775   4.893  0.5284 -2.1138  1.0786
  187DOPC  C31423091   7.582   0.745   4.984 -0.1570 -0.6347  0.0236
  187DOPC  H14X23092   7.481   0.717   4.945  0.4317 -0.1043 -2.0142
  187DOPC  H14Y23093   7.611   0.682   5.070 -0.6241  1.2889  1.6613
  187DOPC  C31523094   7.561   0.898   5.020 -0.3954 -0.1907 -0.5438
  187DOPC  H15X23095   7.518   0.967   4.944 -0.6010  1.9025  1.3349
  187DOPC  H15Y23096   7.662   0.930   5.053  0.6832 -1.9895 -1.9325
  187DOPC  C31623097   7.455   0.922   5.132  0.6618 -0.0555  0.5363
  187DOPC  H16X23098   7.490   0.864   5.220  1.1185  1.9850  1.7681
  187DOPC  H16Y23099   7.469   1.021   5.182 -0.2687  0.0686  0.5788
  187DOPC  C31723100   7.308   0.891   5.084 -0.0112  0.2720  0.8153
  187DOPC  H17X23101   7.299   0.950   4.991  2.2972  0.6581  0.7822
  187DOPC  H17Y23102   7.311   0.781   5.067  1.2936  0.4555 -0.1833
  187DOPC  C31823103   7.202   0.931   5.192 -0.2831 -0.2014  0.0166
  187DOPC  H18X23104   7.225   1.032   5.234  0.3400 -0.5639  0.5595
  187DOPC  H18Y23105   7.108   0.930   5.133  0.2715 -2.1343 -0.9203
  187DOPC  H18Z23106   7.193   0.855   5.272  0.9664 -2.2298 -1.6500
  188DOPC     N23107   2.598   6.693   3.426  0.7352  0.1775  0.0432
  188DOPC   C1223108   2.486   6.771   3.492  0.8187  0.5970 -0.3307
  188DOPC  H12A23109   2.505   6.877   3.504  0.7712  0.5197  0.4779
  188DOPC  H12B23110   2.468   6.730   3.590 -1.9616 -2.5523 -1.9530
  188DOPC   C1323111   2.617   6.738   3.286 -0.9352 -0.3572  0.4635
  188DOPC  H13A23112   2.524   6.748   3.231 -0.0333  0.2179 -1.0374
  188DOPC  H13B23113   2.668   6.833   3.273 -0.6777 -0.4850  0.5326
  188DOPC  H13C23114   2.682   6.671   3.231 -3.1532 -2.7830  0.5923
  188DOPC   C1423115   2.577   6.539   3.419  0.2920 -0.3044  0.1246
  188DOPC  H14A23116   2.579   6.498   3.519  1.8745  1.3665  0.8505
  188DOPC  H14B23117   2.485   6.512   3.370 -0.6345  1.5013  0.7603
  188DOPC  H14C23118   2.667   6.506   3.370 -0.1057  0.5283 -1.1931
  188DOPC   C1523119   2.724   6.725   3.501 -0.1840  0.0477  0.2721
  188DOPC  H15A23120   2.744   6.831   3.502  0.8992 -0.1372  0.1698
  188DOPC  H15B23121   2.810   6.690   3.446  1.4728  2.4302  1.1754
  188DOPC  H15C23122   2.738   6.687   3.601 -0.4617 -0.7678  0.0072
  188DOPC   C1123123   2.347   6.771   3.411 -0.4762 -0.1195  0.0231
  188DOPC  H11A23124   2.319   6.671   3.370 -3.4011  0.0514  1.3532
  188DOPC  H11B23125   2.265   6.799   3.480 -0.4194  2.7918 -0.9636
  188DOPC     P23126   2.347   7.029   3.325  0.0334  0.3338 -0.6622
  188DOPC   O1323127   2.210   7.081   3.349  0.7418  0.2426 -0.3459
  188DOPC   O1423128   2.411   7.094   3.204  0.3901 -0.3168 -0.2911
  188DOPC   O1223129   2.346   6.868   3.302 -0.4084 -0.1641  0.0632
  188DOPC   O1123130   2.434   7.057   3.457 -0.1027 -0.5847 -0.2970
  188DOPC    C123131   2.364   7.109   3.568  0.8004 -0.1866 -0.1004
  188DOPC    HA23132   2.281   7.040   3.590  0.7460  0.2197  1.0047
  188DOPC    HB23133   2.328   7.212   3.544 -0.0628 -0.3963  0.2812
  188DOPC    C223134   2.452   7.131   3.692  0.2616  0.5855  0.3480
  188DOPC    HS23135   2.532   7.195   3.649  0.1703 -0.2446 -1.1071
  188DOPC   O2123136   2.506   7.002   3.734 -0.7881 -0.0746  0.3229
  188DOPC   C2123137   2.632   7.008   3.779  0.2563 -0.1285 -0.0496
  188DOPC   O2223138   2.702   7.106   3.780 -0.6860  0.5749 -0.0902
  188DOPC   C2223139   2.656   6.881   3.864  0.4068 -0.2708  0.1015
  188DOPC   H2R23140   2.672   6.800   3.790 -2.3565 -1.3955  0.5934
  188DOPC   H2S23141   2.558   6.856   3.910 -1.3975  2.8859 -1.6988
  188DOPC    C323142   2.383   7.209   3.807 -0.1735  0.5516 -0.4423
  188DOPC    HX23143   2.462   7.218   3.885  1.1581  0.8175 -1.7733
  188DOPC    HY23144   2.312   7.139   3.857 -0.0130  1.5641  1.3010
  188DOPC   O3123145   2.324   7.327   3.762 -0.0269 -0.2550 -0.3516
  188DOPC   C3123146   2.276   7.406   3.857  0.0488 -0.1061  0.0698
  188DOPC   O3223147   2.265   7.372   3.971  0.1965  0.3030  0.1429
  188DOPC   C3223148   2.228   7.543   3.802  0.4099 -0.2645 -0.0376
  188DOPC   H2X23149   2.305   7.577   3.730  0.4121 -0.4551 -0.1250
  188DOPC   H2Y23150   2.129   7.531   3.753  0.1933  0.4579  0.2068
  188DOPC   C2323151   2.764   6.889   3.974 -0.0852  0.0189  1.1638
  188DOPC   H3R23152   2.863   6.919   3.931  0.1046  0.9747  2.2227
  188DOPC   H3S23153   2.785   6.786   4.008  0.8455 -0.2603 -0.1538
  188DOPC   C2423154   2.733   6.999   4.069 -0.7736 -0.0356  0.4698
  188DOPC   H4R23155   2.641   6.978   4.126  0.5511 -1.8506  2.0743
  188DOPC   H4S23156   2.729   7.097   4.017 -0.3549  0.2198  0.9148
  188DOPC   C2523157   2.844   7.024   4.169 -0.5154 -0.4054 -0.5219
  188DOPC   H5R23158   2.939   7.038   4.114 -0.1730 -2.9016 -0.6934
  188DOPC   H5S23159   2.855   6.937   4.238 -0.3168  0.1741  0.1828
  188DOPC   C2623160   2.824   7.163   4.240 -0.4491  0.0974  0.2812
  188DOPC   H6R23161   2.818   7.246   4.167 -0.7653 -1.2023 -1.2313
  188DOPC   H6S23162   2.923   7.180   4.287 -0.2543 -0.4058  0.0617
  188DOPC   C2723163   2.713   7.173   4.346  0.3852  0.1630  0.5616
  188DOPC   H7R23164   2.616   7.197   4.298  0.8782  1.9534  0.3871
  188DOPC   H7S23165   2.740   7.265   4.402 -1.3931  0.8521  0.3420
  188DOPC   C2823166   2.700   7.051   4.433  0.4672  0.1492 -1.1232
  188DOPC   H8R23167   2.803   7.025   4.468  1.0903 -0.4928 -3.2501
  188DOPC   H8S23168   2.670   6.957   4.382  2.3055 -1.2347  0.2108
  188DOPC   C2923169   2.604   7.083   4.549 -0.1713  0.0049 -0.1265
  188DOPC   H9R23170   2.662   7.116   4.636 -0.2870  0.8274 -0.3528
  188DOPC  C21023171   2.468   7.080   4.557 -0.4268 -0.4089  0.5633
  188DOPC  H10R23172   2.425   7.112   4.653 -0.7823  1.7931 -0.2734
  188DOPC  C21123173   2.369   7.038   4.447 -0.3157 -0.3604  0.0376
  188DOPC  H11R23174   2.430   7.001   4.361  2.8918  0.2619  1.8718
  188DOPC  H11S23175   2.315   7.130   4.417  1.3920  0.2115 -1.5079
  188DOPC  C21223176   2.253   6.938   4.478 -0.4514  0.7846  0.4901
  188DOPC  H12R23177   2.302   6.844   4.513 -1.0410 -0.5580 -2.0818
  188DOPC  H12S23178   2.199   6.907   4.387  1.2571  1.1514 -0.7028
  188DOPC  C21323179   2.150   7.003   4.570 -0.1307  0.0687  0.4106
  188DOPC  H13R23180   2.096   7.078   4.510  0.9882  1.3363  0.9309
  188DOPC  H13S23181   2.205   7.049   4.655  2.1879 -0.3182 -0.8185
  188DOPC  C21423182   2.056   6.906   4.637 -0.4002 -0.7328  0.9162
  188DOPC  H14R23183   2.113   6.819   4.678 -1.1684 -2.4016 -1.3897
  188DOPC  H14S23184   1.988   6.868   4.559  1.5267 -0.0381 -1.1995
  188DOPC  C21523185   1.988   6.964   4.757  0.5746 -0.3530 -0.2607
  188DOPC  H15R23186   1.928   7.045   4.710  0.2398  1.4488  2.9782
  188DOPC  H15S23187   2.051   7.009   4.836  0.7287  3.2840 -2.2324
  188DOPC  C21623188   1.899   6.864   4.826  0.2939  0.0482  1.2008
  188DOPC  H16R23189   1.964   6.794   4.883  2.6920 -1.5186 -3.0173
  188DOPC  H16S23190   1.838   6.796   4.762 -2.2059  1.6484  1.7448
  188DOPC  C21723191   1.797   6.935   4.922  0.0771  0.1641 -0.0378
  188DOPC  H17R23192   1.729   6.994   4.858  1.4296  1.2687 -0.5128
  188DOPC  H17S23193   1.841   7.018   4.982 -2.2634  1.9162 -0.6200
  188DOPC  C21823194   1.720   6.826   5.003 -0.7033 -1.1826  0.0226
  188DOPC  H18R23195   1.668   6.751   4.940 -0.4287 -1.8237  0.5556
  188DOPC  H18S23196   1.653   6.873   5.079 -1.0583 -1.4560 -0.1190
  188DOPC  H18T23197   1.797   6.770   5.059  1.7379  2.9276  1.2012
  188DOPC   C3323198   2.214   7.657   3.915 -0.1014  0.3245 -0.1848
  188DOPC   H3X23199   2.184   7.750   3.862  0.0852 -0.3473 -1.5181
  188DOPC   H3Y23200   2.315   7.681   3.954  0.5985  0.7642 -2.1654
  188DOPC   C3423201   2.099   7.638   4.015 -0.1500 -0.1170 -0.2232
  188DOPC   H4X23202   2.134   7.567   4.094 -0.0852  0.0372 -0.1132
  188DOPC   H4Y23203   2.008   7.592   3.971  0.1781  1.0426 -2.2158
  188DOPC   C3523204   2.072   7.769   4.096  0.7721  0.1127  0.2319
  188DOPC   H5X23205   2.081   7.851   4.022  0.7790  0.3610  0.5074
  188DOPC   H5Y23206   2.140   7.778   4.184 -0.9639  1.2151  1.5130
  188DOPC   C3623207   1.930   7.756   4.148 -0.1123 -0.3071  0.4504
  188DOPC   H6X23208   1.901   7.858   4.179  1.5535  0.7957 -1.3692
  188DOPC   H6Y23209   1.861   7.730   4.065 -0.1846 -1.7871  0.9355
  188DOPC   C3723210   1.912   7.671   4.266  0.8677  0.3618 -0.5479
  188DOPC   H7X23211   1.935   7.565   4.241  1.3174  0.0488  1.0543
  188DOPC   H7Y23212   1.981   7.704   4.347  0.0063 -0.3373  0.5131
  188DOPC   C3823213   1.770   7.658   4.326 -0.0528 -0.4923 -0.2716
  188DOPC   H8X23214   1.759   7.755   4.379 -2.3353 -0.5896 -0.4763
  188DOPC   H8Y23215   1.766   7.582   4.407  0.6141  1.1990  1.4372
  188DOPC   C3923216   1.664   7.634   4.221  0.0554  0.3181  0.0761
  188DOPC   H9X23217   1.677   7.546   4.156 -2.3996 -0.5723  0.6604
  188DOPC  C31023218   1.545   7.704   4.209 -0.4503  0.1652  0.0454
  188DOPC  H10X23219   1.475   7.676   4.129  0.2894  0.3608 -0.6788
  188DOPC  C31123220   1.513   7.828   4.288 -0.4470 -0.4029  0.3701
  188DOPC  H11X23221   1.544   7.918   4.231  0.7721 -0.9216  0.2004
  188DOPC  H11Y23222   1.553   7.832   4.392 -0.1945  0.0955  0.2565
  188DOPC  C31223223   1.364   7.851   4.311  0.4584  0.5839  0.4099
  188DOPC  H12X23224   1.317   7.791   4.393  0.2959  0.5025  0.2564
  188DOPC  H12Y23225   1.296   7.828   4.227  1.1562  1.8924 -0.5390
  188DOPC  C31323226   1.336   8.000   4.356  0.2403  0.2995 -0.9263
  188DOPC  H13X23227   1.388   8.026   4.451 -3.4079  0.0160  1.3598
  188DOPC  H13Y23228   1.368   8.066   4.272 -0.2573  2.9223  0.8153
  188DOPC  C31423229   1.186   8.027   4.393 -0.9844  0.0386 -0.2943
  188DOPC  H14X23230   1.124   8.032   4.301  1.2318  1.9121 -1.8095
  188DOPC  H14Y23231   1.163   7.935   4.449  1.4590 -1.2628 -1.2659
  188DOPC  C31523232   1.179   8.161   4.465  0.2211 -0.3829 -0.1126
  188DOPC  H15X23233   1.071   8.188   4.473 -0.0212 -1.6965  1.6244
  188DOPC  H15Y23234   1.229   8.235   4.398  2.5404  0.5867  2.4784
  188DOPC  C31623235   1.259   8.186   4.595 -0.9983  0.1132 -0.4826
  188DOPC  H16X23236   1.250   8.093   4.656 -1.8571  1.4330  1.4966
  188DOPC  H16Y23237   1.368   8.192   4.574 -0.2580  1.7380  3.0459
  188DOPC  C31723238   1.220   8.295   4.693  0.2806 -0.0427 -0.3205
  188DOPC  H17X23239   1.225   8.399   4.654 -0.2920 -0.0794 -0.5002
  188DOPC  H17Y23240   1.111   8.278   4.712 -0.0510  1.2298 -1.0121
  188DOPC  C31823241   1.290   8.290   4.825 -0.1240  0.0101 -0.3562
  188DOPC  H18X23242   1.230   8.349   4.897  1.1986 -0.7020  1.3997
  188DOPC  H18Y23243   1.314   8.189   4.864 -1.3014  0.5105  1.7786
  188DOPC  H18Z23244   1.388   8.339   4.803 -0.9087  0.8166 -2.3692
  189DOPC     N23245   3.832   7.279   2.525  0.1444  0.4761  0.0677
  189DOPC   C1223246   3.792   7.313   2.668  0.2115  0.2836  0.0405
  189DOPC  H12A23247   3.737   7.234   2.718 -0.3672 -0.4004 -1.5899
  189DOPC  H12B23248   3.726   7.398   2.655 -0.4861 -0.3132 -0.3960
  189DOPC   C1323249   3.929   7.171   2.528 -0.1571  1.1136 -0.8760
  189DOPC  H13A23250   4.020   7.202   2.577 -0.8845  1.0629  0.5738
  189DOPC  H13B23251   3.899   7.087   2.589  1.7269 -0.1964 -1.6504
  189DOPC  H13C23252   3.953   7.129   2.431  0.1424  1.9791 -1.1862
  189DOPC   C1423253   3.884   7.387   2.435  0.4069 -0.2364  0.0599
  189DOPC  H14A23254   3.814   7.470   2.431 -2.4913 -2.4505  1.1192
  189DOPC  H14B23255   3.978   7.424   2.473  1.3929 -2.3752 -0.1451
  189DOPC  H14C23256   3.891   7.353   2.333 -3.1703 -0.4230 -0.2558
  189DOPC   C1523257   3.711   7.225   2.457  0.4898 -0.2878 -0.0619
  189DOPC  H15A23258   3.734   7.179   2.362 -1.2177 -0.6716 -0.3185
  189DOPC  H15B23259   3.640   7.304   2.442 -0.4472 -0.6360  2.0779
  189DOPC  H15C23260   3.655   7.151   2.513  0.4002  1.4856  2.3921
  189DOPC   C1123261   3.903   7.350   2.763  0.0050  0.3285 -0.5859
  189DOPC  H11A23262   3.974   7.416   2.709 -2.0309  1.7406 -1.6250
  189DOPC  H11B23263   3.867   7.410   2.849 -0.9330 -0.8093 -0.1484
  189DOPC     P23264   3.927   7.130   2.907 -0.0413 -0.2496  0.3527
  189DOPC   O1323265   3.949   6.997   2.855 -0.0127  0.6611  0.4510
  189DOPC   O1423266   3.792   7.162   2.946  0.6724 -0.3519 -0.3404
  189DOPC   O1223267   3.983   7.239   2.812 -0.0566 -0.0828 -0.1004
  189DOPC   O1123268   4.010   7.151   3.035 -0.2181 -1.0878  0.0890
  189DOPC    C123269   4.138   7.094   3.052  0.3403  0.4042  0.0146
  189DOPC    HA23270   4.208   7.174   3.084 -0.6957  0.6206  1.8650
  189DOPC    HB23271   4.177   7.031   2.969 -0.9523 -0.4999  0.0643
  189DOPC    C223272   4.121   6.995   3.173  0.4956 -0.7360 -0.4853
  189DOPC    HS23273   4.056   6.919   3.125  0.5162  1.2843 -4.0863
  189DOPC   O2123274   4.056   7.068   3.286  0.5627  0.1450  0.1074
  189DOPC   C2123275   3.985   7.005   3.366 -0.3210 -0.7259  0.0848
  189DOPC   O2223276   3.950   6.886   3.365 -0.1106  0.1729 -0.7321
  189DOPC   C2223277   3.956   7.104   3.478  0.0656  0.6345  0.0325
  189DOPC   H2R23278   3.852   7.136   3.457 -0.4782 -0.4421  1.0063
  189DOPC   H2S23279   4.022   7.192   3.461  1.5127 -0.3726  0.2113
  189DOPC    C323280   4.254   6.930   3.229  0.0459  0.5131  0.9283
  189DOPC    HX23281   4.330   7.008   3.252 -0.1220  0.4555  1.6919
  189DOPC    HY23282   4.295   6.866   3.148 -1.3418 -0.4286  0.9349
  189DOPC   O3123283   4.237   6.849   3.344  0.1473  0.1403 -0.2052
  189DOPC   C3123284   4.207   6.716   3.330 -0.3810 -0.4577 -0.1650
  189DOPC   O3223285   4.191   6.660   3.224  0.1382  0.1546 -0.3418
  189DOPC   C3223286   4.206   6.651   3.473 -0.2676  0.9350  0.2844
  189DOPC   H2X23287   4.110   6.596   3.473  0.2472 -0.0352 -1.1658
  189DOPC   H2Y23288   4.294   6.584   3.488 -1.8834 -1.2184  0.6560
  189DOPC   C2323289   3.971   7.040   3.621  0.3726  0.3070  0.4423
  189DOPC   H3R23290   4.078   7.014   3.635  0.8658 -0.6034 -3.6409
  189DOPC   H3S23291   3.922   6.941   3.616 -1.3393  1.1785 -3.3486
  189DOPC   C2423292   3.925   7.137   3.729 -0.3558  0.0222  0.2625
  189DOPC   H4R23293   3.916   7.084   3.826 -0.6166  0.1932  0.3334
  189DOPC   H4S23294   3.832   7.184   3.692  0.9531  2.3712 -0.2332
  189DOPC   C2523295   4.022   7.253   3.743  0.3303  0.0313 -0.0171
  189DOPC   H5R23296   3.988   7.345   3.692 -0.1053  0.1963  0.5600
  189DOPC   H5S23297   4.115   7.221   3.693  0.8156 -0.9303  1.4114
  189DOPC   C2623298   4.065   7.277   3.884 -0.4633 -0.1814  0.1669
  189DOPC   H6R23299   4.153   7.216   3.912 -1.0331  0.1529  3.0152
  189DOPC   H6S23300   3.978   7.248   3.947 -2.0999  0.4038 -1.7245
  189DOPC   C2723301   4.095   7.423   3.914 -0.0380  0.0435 -0.9200
  189DOPC   H7R23302   4.005   7.484   3.891  0.1155  0.6140 -0.0320
  189DOPC   H7S23303   4.174   7.463   3.847  0.3884  0.6457 -0.0668
  189DOPC   C2823304   4.129   7.447   4.063 -0.0958 -0.3814 -0.1521
  189DOPC   H8R23305   4.163   7.551   4.080 -2.2333  0.2595  0.5839
  189DOPC   H8S23306   4.219   7.386   4.087 -0.2182 -0.8238 -0.7836
  189DOPC   C2923307   4.006   7.430   4.151 -0.5950 -0.1733 -0.2877
  189DOPC   H9R23308   3.919   7.494   4.130 -0.5171  0.4517  1.1968
  189DOPC  C21023309   4.010   7.341   4.251  0.1084 -0.2186  0.1443
  189DOPC  H10R23310   3.918   7.341   4.310 -0.4382 -0.9426 -0.6830
  189DOPC  C21123311   4.119   7.235   4.276  0.2164 -0.3535 -0.2903
  189DOPC  H11R23312   4.165   7.243   4.377  0.5840 -0.2334 -0.4642
  189DOPC  H11S23313   4.194   7.223   4.195 -2.0448  2.2565 -2.9612
  189DOPC  C21223314   4.041   7.101   4.278 -0.3140 -0.1603  0.3732
  189DOPC  H12R23315   4.113   7.020   4.253 -1.9928 -0.9815 -2.1510
  189DOPC  H12S23316   3.972   7.097   4.191 -1.0750  2.4692  0.7640
  189DOPC  C21323317   3.966   7.057   4.399  0.5803 -0.1139  0.8383
  189DOPC  H13R23318   3.925   6.958   4.370  0.8176  0.6347 -2.4682
  189DOPC  H13S23319   3.879   7.122   4.421  0.1210 -1.0721  1.9823
  189DOPC  C21423320   4.047   7.037   4.526  0.4613  0.0471 -0.0289
  189DOPC  H14R23321   4.076   7.140   4.557 -0.1395  0.5752 -1.1637
  189DOPC  H14S23322   4.143   6.988   4.500  0.3459  1.6089 -4.1570
  189DOPC  C21523323   3.979   6.952   4.632  0.0068  0.0640  0.5500
  189DOPC  H15R23324   4.054   6.950   4.714 -0.8295 -0.9103  1.3165
  189DOPC  H15S23325   3.967   6.851   4.587  2.1804  0.1013 -0.1815
  189DOPC  C21623326   3.841   7.002   4.669  0.0059  1.2536  0.7911
  189DOPC  H16R23327   3.776   6.995   4.579  1.1608  0.2675 -0.0001
  189DOPC  H16S23328   3.847   7.110   4.695 -0.9224  2.0280 -1.9085
  189DOPC  C21723329   3.772   6.919   4.780 -0.5075 -1.1281  0.0415
  189DOPC  H17R23330   3.804   6.813   4.764 -0.9179 -1.3239  0.4892
  189DOPC  H17S23331   3.664   6.934   4.760  0.2377  1.8105 -2.5488
  189DOPC  C21823332   3.800   6.960   4.923 -0.7439  0.4729  0.3250
  189DOPC  H18R23333   3.907   6.937   4.941 -0.1906  0.2259 -2.6877
  189DOPC  H18S23334   3.738   6.890   4.983 -0.2452  1.3534  1.9117
  189DOPC  H18T23335   3.760   7.063   4.940 -0.0506  0.5692  1.4507
  189DOPC   C3323336   4.204   6.761   3.589  0.2359  0.9467  0.1016
  189DOPC   H3X23337   4.113   6.820   3.563 -1.1472 -1.5679 -1.1674
  189DOPC   H3Y23338   4.292   6.828   3.591  0.7960  0.2294  1.9793
  189DOPC   C3423339   4.199   6.686   3.729  0.3418 -0.1350 -0.4256
  189DOPC   H4X23340   4.294   6.633   3.752  0.0186 -0.3715  0.3917
  189DOPC   H4Y23341   4.115   6.614   3.719  0.2149 -0.3492  1.6902
  189DOPC   C3523342   4.167   6.783   3.846 -0.2823  0.0221  0.2075
  189DOPC   H5X23343   4.144   6.724   3.936 -0.7395  1.5060  1.0953
  189DOPC   H5Y23344   4.076   6.841   3.819  0.5452  1.4300  0.3106
  189DOPC   C3623345   4.286   6.872   3.878 -0.0659  0.1754  0.6483
  189DOPC   H6X23346   4.380   6.813   3.871 -0.2524  0.0321 -0.8967
  189DOPC   H6Y23347   4.279   6.955   3.805 -4.3004 -1.6661 -1.3526
  189DOPC   C3723348   4.268   6.935   4.014  0.1050  0.4394 -0.0774
  189DOPC   H7X23349   4.165   6.976   4.020  0.4175  1.2084  0.1197
  189DOPC   H7Y23350   4.265   6.866   4.101 -4.3870  0.3388 -0.1088
  189DOPC   C3823351   4.374   7.041   4.048 -0.3503  0.0992 -0.2069
  189DOPC   H8X23352   4.341   7.076   4.148 -0.9603 -0.7107 -0.1182
  189DOPC   H8Y23353   4.362   7.122   3.972  0.9224 -0.5930 -1.1999
  189DOPC   C3923354   4.514   6.979   4.044 -0.5133  0.8812 -0.2178
  189DOPC   H9X23355   4.550   6.954   3.943 -0.0484 -1.5185  0.4924
  189DOPC  C31023356   4.602   6.956   4.145 -0.0681 -0.1894 -0.3040
  189DOPC  H10X23357   4.689   6.893   4.122 -0.2621 -2.5455  4.2730
  189DOPC  C31123358   4.589   6.999   4.288 -0.0248 -0.4868 -0.6730
  189DOPC  H11X23359   4.540   7.099   4.289 -0.5347 -0.6269  3.0129
  189DOPC  H11Y23360   4.694   7.001   4.322 -0.2042  0.8138 -0.1132
  189DOPC  C31223361   4.509   6.904   4.380  0.3811 -0.5666  0.4603
  189DOPC  H12X23362   4.551   6.804   4.357  0.7938  0.1261 -2.0763
  189DOPC  H12Y23363   4.403   6.901   4.346  0.6840  1.8666 -0.9404
  189DOPC  C31323364   4.508   6.943   4.534 -0.1158  0.5050  0.4691
  189DOPC  H13X23365   4.419   6.892   4.576  0.5548 -2.7359 -1.6338
  189DOPC  H13Y23366   4.604   6.909   4.579 -0.2675 -1.9224 -0.8725
  189DOPC  C31423367   4.490   7.083   4.569  0.3977 -0.3082  0.1250
  189DOPC  H14X23368   4.577   7.141   4.529  0.8134  1.0585  2.7901
  189DOPC  H14Y23369   4.399   7.126   4.523  1.5778 -0.1153 -2.1802
  189DOPC  C31523370   4.483   7.123   4.715  0.1734  0.4732  0.4198
  189DOPC  H15X23371   4.581   7.089   4.753  1.4749  0.6447 -2.4940
  189DOPC  H15Y23372   4.403   7.066   4.767 -0.5159 -0.1378 -1.2520
  189DOPC  C31623373   4.471   7.273   4.751 -0.1059  0.5347 -0.4470
  189DOPC  H16X23374   4.524   7.292   4.846  0.4534 -1.7234 -0.2541
  189DOPC  H16Y23375   4.513   7.339   4.672  0.9814 -0.5817 -0.8450
  189DOPC  C31723376   4.325   7.317   4.767  0.1506  0.7002 -0.5827
  189DOPC  H17X23377   4.269   7.222   4.754 -0.1681  0.3330  2.6174
  189DOPC  H17Y23378   4.312   7.355   4.871  2.7539 -0.7885  0.3760
  189DOPC  C31823379   4.288   7.426   4.665 -0.3492  0.4086 -0.4440
  189DOPC  H18X23380   4.314   7.398   4.560 -0.2070  0.8896 -0.5436
  189DOPC  H18Y23381   4.178   7.439   4.668 -0.8011 -2.8667  0.3757
  189DOPC  H18Z23382   4.350   7.513   4.697  1.7473 -1.8328  2.1009
  190DOPC     N23383   4.226   0.157   2.928  0.4557  0.1857  0.3919
  190DOPC   C1223384   4.077   0.164   2.938  0.2287  0.5541 -0.5012
  190DOPC  H12A23385   4.036   0.193   2.842 -0.6264  0.6975 -0.0980
  190DOPC  H12B23386   4.051   0.229   3.019 -2.6026 -0.3574 -0.5926
  190DOPC   C1323387   4.286   0.291   2.899 -0.4627  0.0835 -0.0951
  190DOPC  H13A23388   4.264   0.369   2.971  4.1627  0.0453  1.6830
  190DOPC  H13B23389   4.391   0.272   2.910 -0.6563 -1.1166 -0.2483
  190DOPC  H13C23390   4.260   0.329   2.801 -0.8944 -3.0523 -1.2875
  190DOPC   C1423391   4.264   0.065   2.815 -0.1080  0.7458 -0.1715
  190DOPC  H14A23392   4.244   0.106   2.717 -1.4696  0.9539  0.1727
  190DOPC  H14B23393   4.368   0.037   2.808  0.2174  2.3247 -3.6743
  190DOPC  H14C23394   4.218  -0.033   2.818  0.3285  0.4598 -1.8330
  190DOPC   C1523395   4.293   0.101   3.056 -0.1850 -0.4649  0.7094
  190DOPC  H15A23396   4.243   0.011   3.089 -0.5481 -0.5216  0.0257
  190DOPC  H15B23397   4.286   0.167   3.141  0.0858 -0.1158  0.4632
  190DOPC  H15C23398   4.397   0.076   3.042 -0.6592 -0.8899 -3.5187
  190DOPC   C1123399   4.000   0.026   2.964  0.0375  0.3181 -0.4268
  190DOPC  H11A23400   3.890   0.037   2.951  0.0965  1.6757  0.1035
  190DOPC  H11B23401   4.024  -0.048   2.885  0.7463  0.1775 -0.0923
  190DOPC     P23402   3.971   0.005   3.225 -0.2079 -0.3728  0.1513
  190DOPC   O1323403   3.827   0.019   3.203 -0.6331 -0.0976  0.4463
  190DOPC   O1423404   4.041   0.123   3.276  0.0749  0.2237 -0.6145
  190DOPC   O1223405   4.038  -0.029   3.091 -0.6117  0.5015  0.1998
  190DOPC   O1123406   3.999  -0.124   3.306  0.0274 -0.2583 -0.2075
  190DOPC    C123407   3.948  -0.143   3.436  0.1195  0.3788 -0.2127
  190DOPC    HA23408   3.926  -0.251   3.448  0.9432  0.0095 -1.8069
  190DOPC    HB23409   3.845  -0.105   3.453  0.0214 -0.7426  2.0228
  190DOPC    C223410   4.043  -0.089   3.548 -0.1916  0.3655 -0.1069
  190DOPC    HS23411   3.999  -0.105   3.648  1.0574 -1.2731  0.2179
  190DOPC   O2123412   4.072   0.051   3.540  0.2363  0.1236 -0.2298
  190DOPC   C2123413   3.971   0.125   3.574  0.1054 -0.8347  0.2143
  190DOPC   O2223414   3.863   0.094   3.617  0.6502  0.0082  0.4582
  190DOPC   C2223415   4.020   0.272   3.557  0.4028  0.3555  0.2231
  190DOPC   H2R23416   3.987   0.297   3.454  0.0616 -1.7034 -0.2153
  190DOPC   H2S23417   4.130   0.274   3.573  0.5486 -1.4133 -0.3888
  190DOPC    C323418   4.176  -0.160   3.538 -0.0803  0.4693  0.0189
  190DOPC    HX23419   4.220  -0.134   3.439  2.2296  1.4141  1.2249
  190DOPC    HY23420   4.162  -0.270   3.539 -1.8271  0.6462 -0.6569
  190DOPC   O3123421   4.266  -0.120   3.648 -0.0606  0.0304 -0.5797
  190DOPC   C3123422   4.350  -0.022   3.622 -0.0480 -0.0016  0.3704
  190DOPC   O3223423   4.380   0.023   3.512 -0.0182  0.1645 -0.3200
  190DOPC   C3223424   4.403   0.031   3.758 -0.1308  0.3697  0.4986
  190DOPC   H2X23425   4.424  -0.055   3.825 -1.8362 -0.3029  0.2145
  190DOPC   H2Y23426   4.502   0.079   3.739 -0.0541 -0.1390 -0.4188
  190DOPC   C2323427   3.937   0.363   3.653 -0.7019  0.5729 -0.4179
  190DOPC   H3R23428   3.828   0.345   3.657 -0.3382 -1.9700  0.0878
  190DOPC   H3S23429   3.939   0.461   3.600  0.3259  0.4771 -0.5860
  190DOPC   C2423430   3.992   0.361   3.800 -0.0053 -0.0463  0.0635
  190DOPC   H4R23431   4.100   0.383   3.785 -0.2570  1.6077  0.4633
  190DOPC   H4S23432   3.967   0.260   3.837  1.3362 -0.5257 -0.2930
  190DOPC   C2523433   3.933   0.465   3.901 -0.2520 -0.2970 -0.3977
  190DOPC   H5R23434   3.827   0.459   3.932 -0.0696 -0.4192  0.2135
  190DOPC   H5S23435   3.947   0.566   3.857 -2.5061  1.4837  2.5951
  190DOPC   C2623436   4.017   0.465   4.028 -0.0587  0.2101 -0.2005
  190DOPC   H6R23437   4.030   0.569   4.064 -0.2082  0.8016 -1.7657
  190DOPC   H6S23438   4.118   0.420   4.015  0.1788  0.6459  0.1197
  190DOPC   C2723439   3.942   0.389   4.146 -0.3634  0.2433 -0.3353
  190DOPC   H7R23440   3.852   0.449   4.172  1.8294  2.9493  1.6400
  190DOPC   H7S23441   4.008   0.374   4.234 -1.2474  0.7475  0.4315
  190DOPC   C2823442   3.895   0.248   4.114  0.1232 -0.3469 -0.2978
  190DOPC   H8R23443   3.986   0.187   4.094  0.2725  0.2184 -1.3879
  190DOPC   H8S23444   3.849   0.250   4.013 -1.0987 -0.4715  0.2468
  190DOPC   C2923445   3.801   0.192   4.221  0.8834 -0.1746  0.1139
  190DOPC   H9R23446   3.695   0.183   4.192  1.1994  2.0592 -2.0578
  190DOPC  C21023447   3.835   0.150   4.343  0.4182 -0.0804  0.5505
  190DOPC  H10R23448   3.761   0.104   4.410  0.3840  0.8571  1.1856
  190DOPC  C21123449   3.976   0.143   4.392 -0.0773  0.2504  0.2722
  190DOPC  H11R23450   4.048   0.182   4.317  0.2917  0.3855  0.6939
  190DOPC  H11S23451   4.004   0.042   4.430 -2.2183  0.4506  2.6804
  190DOPC  C21223452   4.001   0.249   4.504 -0.2359  0.2762  0.5950
  190DOPC  H12R23453   3.925   0.243   4.585  0.5569 -2.0185  1.2546
  190DOPC  H12S23454   3.995   0.350   4.459  0.2004  1.2383  2.5942
  190DOPC  C21323455   4.141   0.238   4.562 -0.4486 -0.0924 -0.5879
  190DOPC  H13R23456   4.155   0.328   4.626  0.5241 -0.3364 -0.4422
  190DOPC  H13S23457   4.217   0.259   4.484  0.5784 -0.0499  0.4014
  190DOPC  C21423458   4.172   0.121   4.655 -0.7421  0.6186 -0.4578
  190DOPC  H14R23459   4.210   0.039   4.591 -0.3434  1.2120 -0.9953
  190DOPC  H14S23460   4.077   0.079   4.696 -0.6945 -0.3857 -1.3391
  190DOPC  C21523461   4.278   0.146   4.766 -0.6701  0.6044  0.5301
  190DOPC  H15R23462   4.373   0.191   4.731 -2.0705  2.5343 -1.0201
  190DOPC  H15S23463   4.299   0.042   4.799 -3.0921  0.7038  2.7911
  190DOPC  C21623464   4.233   0.232   4.889  0.0626  0.4656  0.4790
  190DOPC  H16R23465   4.212   0.334   4.849  0.1330 -0.5770 -2.4724
  190DOPC  H16S23466   4.322   0.240   4.954 -0.1806  1.4342  0.7137
  190DOPC  C21723467   4.112   0.167   4.961  0.4969 -0.5035 -0.1969
  190DOPC  H17R23468   4.159   0.074   5.001  1.0783 -1.0580 -2.0694
  190DOPC  H17S23469   4.040   0.118   4.892  0.0491  0.7752 -0.6565
  190DOPC  C21823470   4.049   0.257   5.076 -0.8215 -0.0014  0.2759
  190DOPC  H18R23471   4.001   0.345   5.027  2.7011  1.1070 -1.5264
  190DOPC  H18S23472   4.126   0.280   5.152 -1.3468 -2.1639  1.5318
  190DOPC  H18T23473   3.966   0.200   5.123 -1.7828  1.6676  0.7030
  190DOPC   C3323474   4.307   0.131   3.820 -0.1926 -0.4768  0.0086
  190DOPC   H3X23475   4.215   0.080   3.856 -0.3698 -0.7886 -0.8628
  190DOPC   H3Y23476   4.262   0.194   3.741 -2.1803 -0.4319  1.1040
  190DOPC   C3423477   4.364   0.238   3.910  0.2628 -0.0824 -0.5034
  190DOPC   H4X23478   4.284   0.308   3.943  0.5526 -0.4607  1.0461
  190DOPC   H4Y23479   4.439   0.304   3.862  1.5611 -0.9317  0.2964
  190DOPC   C3523480   4.444   0.188   4.030  0.1365 -0.4870 -0.0259
  190DOPC   H5X23481   4.479   0.276   4.088 -0.2316  0.1044 -0.6839
  190DOPC   H5Y23482   4.530   0.128   3.993 -0.0649 -1.1684  0.6038
  190DOPC   C3623483   4.375   0.093   4.137  0.3821  0.1188  0.1379
  190DOPC   H6X23484   4.290   0.136   4.194 -0.2859 -2.1869  0.9746
  190DOPC   H6Y23485   4.339  -0.001   4.091  1.4462  0.3755 -1.3146
  190DOPC   C3723486   4.484   0.057   4.247  0.6806 -0.5821 -0.0226
  190DOPC   H7X23487   4.579   0.041   4.192  0.7151  0.8666 -0.4143
  190DOPC   H7Y23488   4.498   0.152   4.303  3.5176 -1.3956  0.8339
  190DOPC   C3823489   4.437  -0.060   4.342 -0.4167 -0.0230 -0.2116
  190DOPC   H8X23490   4.332  -0.057   4.380 -0.9032 -0.8261 -1.4423
  190DOPC   H8Y23491   4.499  -0.052   4.434 -0.6437  1.0411 -0.1373
  190DOPC   C3923492   4.469  -0.194   4.283 -0.2416 -0.1761  0.9063
  190DOPC   H9X23493   4.391  -0.214   4.208 -0.2121 -1.5595  1.2097
  190DOPC  C31023494   4.572  -0.287   4.304  0.8132 -0.1795 -0.5793
  190DOPC  H10X23495   4.556  -0.386   4.260  0.1399 -1.7754  2.8840
  190DOPC  C31123496   4.679  -0.266   4.414 -0.6317  0.3735  0.7775
  190DOPC  H11X23497   4.675  -0.351   4.485 -0.3819 -0.7695 -0.5447
  190DOPC  H11Y23498   4.665  -0.167   4.463 -0.1833  0.7894  0.0911
  190DOPC  C31223499   4.833  -0.272   4.377 -0.4452  0.0692 -0.7249
  190DOPC  H12X23500   4.895  -0.258   4.468  1.4929  0.4292 -2.0422
  190DOPC  H12Y23501   4.856  -0.184   4.312 -1.6443  1.1246  0.2247
  190DOPC  C31323502   4.874  -0.406   4.310 -0.2394  0.4484  0.1113
  190DOPC  H13X23503   4.876  -0.491   4.382  0.9318  0.2223 -0.1708
  190DOPC  H13Y23504   4.799  -0.439   4.235 -0.6539  0.8216  0.3602
  190DOPC  C31423505   5.014  -0.392   4.253  0.1536  0.4808  0.4060
  190DOPC  H14X23506   5.002  -0.341   4.156  2.3744 -0.7932 -0.6171
  190DOPC  H14Y23507   5.077  -0.330   4.320  1.0582 -1.9760  1.9779
  190DOPC  C31523508   5.094  -0.524   4.234 -0.9723  0.1166 -0.2932
  190DOPC  H15X23509   5.107  -0.563   4.337 -1.5439  1.8072  0.4422
  190DOPC  H15Y23510   5.189  -0.497   4.183 -0.8640 -0.0134 -0.1628
  190DOPC  C31623511   5.025  -0.631   4.146  1.0238  0.1270  0.3508
  190DOPC  H16X23512   5.099  -0.708   4.115 -0.1560 -0.5731 -0.8144
  190DOPC  H16Y23513   4.954  -0.681   4.217  0.5736 -0.6527 -0.6187
  190DOPC  C31723514   4.946  -0.586   4.029 -0.0261  0.2416 -0.7340
  190DOPC  H17X23515   4.842  -0.559   4.057  0.5320 -0.5983  2.4721
  190DOPC  H17Y23516   4.994  -0.496   3.983 -2.0924  1.4069 -0.7546
  190DOPC  C31823517   4.939  -0.696   3.913 -0.2701  0.1111 -1.0439
  190DOPC  H18X23518   4.888  -0.789   3.947 -1.3790  1.4084  1.0913
  190DOPC  H18Y23519   4.874  -0.653   3.834 -1.2709  0.6714  0.0476
  190DOPC  H18Z23520   5.041  -0.726   3.882  1.4184  0.6721  3.2402
  191DOPC     N23521   5.581   0.685   2.828  0.0994  0.8202  0.2597
  191DOPC   C1223522   5.683   0.576   2.875  0.3243 -1.2911  0.1712
  191DOPC  H12A23523   5.712   0.602   2.976 -0.8012  0.7868  0.0178
  191DOPC  H12B23524   5.775   0.593   2.821  1.4432 -1.6285  1.8991
  191DOPC   C1323525   5.628   0.820   2.834 -1.2612 -0.1179  0.0760
  191DOPC  H13A23526   5.656   0.843   2.936  0.6551  0.1135 -0.4627
  191DOPC  H13B23527   5.724   0.823   2.784 -1.4202 -2.4134 -0.4534
  191DOPC  H13C23528   5.556   0.893   2.798 -1.6549 -1.4360 -1.9633
  191DOPC   C1423529   5.452   0.685   2.910  0.2889  0.5887 -0.9164
  191DOPC  H14A23530   5.416   0.584   2.924  0.0787  0.9252  1.2323
  191DOPC  H14B23531   5.463   0.737   3.004  0.0684  0.2195 -0.6834
  191DOPC  H14C23532   5.373   0.731   2.852  1.0170 -0.3959 -2.7527
  191DOPC   C1523533   5.540   0.660   2.688 -0.2762  1.3113  0.5035
  191DOPC  H15A23534   5.627   0.655   2.624  0.3277  0.3989  1.3722
  191DOPC  H15B23535   5.491   0.748   2.649  1.8717  2.4508  0.2209
  191DOPC  H15C23536   5.482   0.571   2.673  1.0415  0.5347 -0.1885
  191DOPC   C1123537   5.635   0.424   2.877 -0.6294 -0.7682 -0.2147
  191DOPC  H11A23538   5.632   0.384   2.774 -0.1120 -2.2250  0.3143
  191DOPC  H11B23539   5.719   0.372   2.927  0.7991 -0.1519 -1.8618
  191DOPC     P23540   5.493   0.366   3.096  0.2241 -0.0866 -0.5105
  191DOPC   O1323541   5.361   0.295   3.105 -0.0580  0.6504 -0.9421
  191DOPC   O1423542   5.512   0.491   3.174 -0.0093 -0.5220 -0.3506
  191DOPC   O1223543   5.511   0.411   2.947 -0.2596  0.0989  0.6288
  191DOPC   O1123544   5.610   0.269   3.122  0.2272 -0.0169  0.4010
  191DOPC    C123545   5.721   0.290   3.206  0.0598  0.2643  0.2954
  191DOPC    HA23546   5.759   0.395   3.208  2.8502 -0.5198 -2.6473
  191DOPC    HB23547   5.810   0.236   3.169  0.5965  2.1488 -1.3753
  191DOPC    C223548   5.703   0.228   3.340  0.4222  0.2263 -0.0972
  191DOPC    HS23549   5.593   0.217   3.356  0.3520 -1.9853 -1.6276
  191DOPC   O2123550   5.769   0.314   3.435  0.4337  0.4722 -0.1211
  191DOPC   C2123551   5.707   0.405   3.500 -0.6316 -0.3389 -0.7837
  191DOPC   O2223552   5.594   0.406   3.545  0.0013 -0.5028  0.4078
  191DOPC   C2223553   5.813   0.509   3.543 -0.1018  0.1288 -0.6303
  191DOPC   H2R23554   5.807   0.588   3.466  0.5705 -0.5368 -1.3899
  191DOPC   H2S23555   5.914   0.462   3.550 -0.6092 -0.9891 -0.5681
  191DOPC    C323556   5.759   0.087   3.356  0.2167  0.3211  0.3406
  191DOPC    HX23557   5.868   0.095   3.337  0.3299 -1.0706  0.2846
  191DOPC    HY23558   5.726   0.016   3.276 -0.6953 -0.4246  1.3520
  191DOPC   O3123559   5.742   0.048   3.489  0.5871  0.1205 -0.6309
  191DOPC   C3123560   5.624  -0.014   3.508  0.1988  0.4551 -0.1542
  191DOPC   O3223561   5.550  -0.057   3.422  0.1509 -0.4586 -0.2603
  191DOPC   C3223562   5.622  -0.033   3.657 -0.5601  0.2939  0.1437
  191DOPC   H2X23563   5.522  -0.074   3.683 -1.5241  2.1910 -0.4090
  191DOPC   H2Y23564   5.707  -0.099   3.688  0.7176  2.6948  2.1323
  191DOPC   C2323565   5.794   0.577   3.683  0.2849 -0.5395 -0.0784
  191DOPC   H3R23566   5.687   0.605   3.690  0.3554 -0.1494 -0.5158
  191DOPC   H3S23567   5.859   0.668   3.691  0.9083 -0.8146 -1.7026
  191DOPC   C2423568   5.831   0.483   3.801  0.9889 -0.0214 -0.0416
  191DOPC   H4R23569   5.927   0.436   3.771  0.1523 -3.2921  1.8979
  191DOPC   H4S23570   5.753   0.404   3.804  0.5562  0.4439  1.4451
  191DOPC   C2523571   5.823   0.562   3.935  0.2924  0.5867  0.4688
  191DOPC   H5R23572   5.720   0.589   3.967 -0.3154 -0.9592 -0.0931
  191DOPC   H5S23573   5.897   0.644   3.945  2.4632 -1.2336  0.1074
  191DOPC   C2623574   5.874   0.460   4.036 -0.4103 -0.0562 -0.0464
  191DOPC   H6R23575   5.977   0.434   4.005 -0.5144  0.2251 -0.6515
  191DOPC   H6S23576   5.809   0.370   4.026  0.6991 -0.9879  0.8346
  191DOPC   C2723577   5.899   0.508   4.176  0.6289 -0.2099 -0.5490
  191DOPC   H7R23578   5.805   0.508   4.237  1.2578 -0.4835  0.4496
  191DOPC   H7S23579   5.921   0.617   4.167  0.7937 -0.2965 -1.2197
  191DOPC   C2823580   6.006   0.437   4.262  0.4408  0.0251  0.0915
  191DOPC   H8R23581   6.022   0.500   4.353 -1.4573  1.4418 -0.4857
  191DOPC   H8S23582   6.110   0.440   4.222  1.0066  0.2104  1.4892
  191DOPC   C2923583   5.986   0.298   4.308 -0.0438  0.4631 -0.6232
  191DOPC   H9R23584   6.002   0.225   4.227 -0.8485  0.8979 -1.1876
  191DOPC  C21023585   5.936   0.249   4.427 -0.3350 -0.1122  0.2779
  191DOPC  H10R23586   5.917   0.141   4.434  1.1173 -0.6672 -2.7726
  191DOPC  C21123587   5.886   0.337   4.541 -0.6985  0.0419 -0.2747
  191DOPC  H11R23588   5.936   0.435   4.529  1.2721 -1.1127 -2.2070
  191DOPC  H11S23589   5.920   0.302   4.641  1.4088 -2.4942 -1.7597
  191DOPC  C21223590   5.733   0.329   4.525 -0.0357  0.4596  0.9892
  191DOPC  H12R23591   5.688   0.227   4.526  0.6891  0.1209  0.3347
  191DOPC  H12S23592   5.686   0.371   4.433 -0.3080 -1.7201  0.0714
  191DOPC  C21323593   5.664   0.392   4.650  0.3180 -0.1761 -0.6813
  191DOPC  H13R23594   5.704   0.348   4.744 -0.1294 -2.0967 -1.3471
  191DOPC  H13S23595   5.556   0.368   4.645  0.7109 -2.0159 -1.3995
  191DOPC  C21423596   5.677   0.546   4.668  0.0036 -0.2399 -0.1668
  191DOPC  H14R23597   5.611   0.595   4.593 -0.4647  0.5815  0.7669
  191DOPC  H14S23598   5.783   0.576   4.646 -0.4755  0.9527 -0.9979
  191DOPC  C21523599   5.631   0.592   4.807 -0.5434 -0.3842  0.1141
  191DOPC  H15R23600   5.658   0.699   4.820  1.0530 -0.7631  0.0996
  191DOPC  H15S23601   5.690   0.534   4.881  1.1437  0.8373 -0.2280
  191DOPC  C21623602   5.483   0.559   4.835 -0.0945 -0.4311 -0.9278
  191DOPC  H16R23603   5.482   0.472   4.905 -0.3996  0.7292  0.5605
  191DOPC  H16S23604   5.420   0.521   4.751  0.5473 -2.4222 -0.5689
  191DOPC  C21723605   5.405   0.667   4.903 -0.4351 -1.2129 -0.0097
  191DOPC  H17R23606   5.296   0.646   4.896 -0.4517 -0.8502 -1.2754
  191DOPC  H17S23607   5.421   0.759   4.842  1.0659  0.0948  2.2004
  191DOPC  C21823608   5.454   0.701   5.039  1.0892  0.4365 -0.1809
  191DOPC  H18R23609   5.563   0.723   5.034  1.3593 -0.9733 -1.0323
  191DOPC  H18S23610   5.445   0.622   5.116  2.2921  0.1786 -0.2793
  191DOPC  H18T23611   5.400   0.790   5.079 -1.2803 -0.7279 -0.6388
  191DOPC   C3323612   5.640   0.094   3.740  0.1902 -0.1961 -0.7825
  191DOPC   H3X23613   5.559   0.166   3.714  0.6754  0.3779 -0.7180
  191DOPC   H3Y23614   5.736   0.140   3.707  0.3316  2.3491  2.6634
  191DOPC   C3423615   5.651   0.076   3.886 -1.1799  0.2654  0.0070
  191DOPC   H4X23616   5.572   0.024   3.945 -0.6269  1.4168  1.8411
  191DOPC   H4Y23617   5.657   0.180   3.924 -0.7143 -0.2824  1.4797
  191DOPC   C3523618   5.796   0.041   3.934 -0.0309  0.0910  1.1284
  191DOPC   H5X23619   5.875   0.110   3.897 -0.3154 -0.1651  0.0149
  191DOPC   H5Y23620   5.814  -0.061   3.894 -0.0121  0.1391  1.0120
  191DOPC   C3623621   5.799   0.035   4.090  0.3036 -0.6102 -0.4870
  191DOPC   H6X23622   5.906   0.022   4.119  0.3393 -1.1770 -0.8465
  191DOPC   H6Y23623   5.773   0.130   4.141 -0.4599 -1.4231  0.6717
  191DOPC   C3723624   5.709  -0.075   4.152 -0.0076  0.0097 -0.8939
  191DOPC   H7X23625   5.602  -0.046   4.148 -0.3482 -1.1956 -0.8451
  191DOPC   H7Y23626   5.718  -0.175   4.105  0.3623 -1.0234  1.2755
  191DOPC   C3823627   5.723  -0.081   4.308 -0.3308 -0.0065  0.0288
  191DOPC   H8X23628   5.723   0.022   4.350  0.0782 -0.4790  1.2210
  191DOPC   H8Y23629   5.824  -0.125   4.321 -0.6184 -0.6057  0.2274
  191DOPC   C3923630   5.623  -0.167   4.378  0.2164  0.5043  0.1071
  191DOPC   H9X23631   5.614  -0.266   4.330  0.7146  0.3547  0.3189
  191DOPC  C31023632   5.554  -0.150   4.485  0.6995  0.0093 -0.3840
  191DOPC  H10X23633   5.510  -0.241   4.529  0.3242 -0.2304 -1.2194
  191DOPC  C31123634   5.539  -0.033   4.585 -0.2443 -0.9412 -0.6714
  191DOPC  H11X23635   5.637   0.019   4.591  0.0362 -1.5318  0.0626
  191DOPC  H11Y23636   5.523  -0.082   4.684  1.5827 -0.3809 -0.0565
  191DOPC  C31223637   5.430   0.073   4.557  0.7178  0.2809  0.3175
  191DOPC  H12X23638   5.415   0.105   4.452 -2.6616 -1.3812  0.1796
  191DOPC  H12Y23639   5.445   0.154   4.631 -0.2576  1.0908 -0.3626
  191DOPC  C31323640   5.288   0.015   4.591 -0.3924 -0.4922  0.6919
  191DOPC  H13X23641   5.212   0.086   4.552 -1.8618 -1.4900  1.6270
  191DOPC  H13Y23642   5.276  -0.071   4.522  2.1645 -0.7057  0.4250
  191DOPC  C31423643   5.260  -0.023   4.735  0.0424 -0.7005 -0.5317
  191DOPC  H14X23644   5.323  -0.105   4.776 -0.6453 -0.8842  0.1654
  191DOPC  H14Y23645   5.282   0.073   4.786 -1.3142 -0.0420 -1.1330
  191DOPC  C31523646   5.114  -0.063   4.765  0.1869  0.0508 -0.0808
  191DOPC  H15X23647   5.047   0.024   4.746  1.6844  1.5634  1.1941
  191DOPC  H15Y23648   5.100  -0.085   4.873 -1.1915  0.9478 -0.0459
  191DOPC  C31623649   5.066  -0.183   4.683  0.7865 -0.2723 -0.0684
  191DOPC  H16X23650   4.960  -0.191   4.714  1.1996 -0.1354  1.4538
  191DOPC  H16Y23651   5.065  -0.153   4.576  0.9657  0.5876  0.1668
  191DOPC  C31723652   5.143  -0.314   4.704  0.1399 -0.5231 -0.5948
  191DOPC  H17X23653   5.243  -0.292   4.661 -0.5099  1.5751 -1.1631
  191DOPC  H17Y23654   5.150  -0.331   4.813  1.9831 -0.4020 -0.6602
  191DOPC  C31823655   5.077  -0.431   4.633  0.0974 -0.5245  0.6504
  191DOPC  H18X23656   5.108  -0.532   4.667  1.2902  0.3154  2.2241
  191DOPC  H18Y23657   4.969  -0.436   4.661  0.2781 -1.2216  1.2636
  191DOPC  H18Z23658   5.095  -0.422   4.524  0.9214  0.5826  0.8497
  192DOPC     N23659   0.687   5.447   3.126  0.0013 -0.1742  0.1062
  192DOPC   C1223660   0.736   5.468   3.264 -0.1576 -0.0985 -0.1659
  192DOPC  H12A23661   0.821   5.404   3.284 -0.0156  0.0407 -0.3255
  192DOPC  H12B23662   0.649   5.452   3.327  0.5242 -0.0510  0.8012
  192DOPC   C1323663   0.575   5.542   3.089  0.0520  0.8178  0.1642
  192DOPC  H13A23664   0.549   5.558   2.986 -1.4686  0.7187  0.5044
  192DOPC  H13B23665   0.489   5.516   3.149 -1.5899 -0.3652 -2.5252
  192DOPC  H13C23666   0.606   5.640   3.123  3.6386  0.1460 -0.7697
  192DOPC   C1423667   0.628   5.306   3.113  0.8122  0.2635  0.1341
  192DOPC  H14A23668   0.571   5.305   3.021  0.0211  0.1759  0.6171
  192DOPC  H14B23669   0.713   5.241   3.101  1.4789  0.5813  2.5474
  192DOPC  H14C23670   0.555   5.280   3.188  2.0025  3.3713  2.5973
  192DOPC   C1523671   0.796   5.457   3.025  0.4759  0.2950 -0.1848
  192DOPC  H15A23672   0.763   5.426   2.927 -1.0739  0.0825  0.3717
  192DOPC  H15B23673   0.877   5.393   3.057 -1.1061 -1.9465 -0.4045
  192DOPC  H15C23674   0.835   5.557   3.019  0.6243  0.4975  2.8148
  192DOPC   C1123675   0.788   5.608   3.304  0.9970 -0.0781 -0.5081
  192DOPC  H11A23676   0.845   5.612   3.399  0.9911 -1.1504 -0.4501
  192DOPC  H11B23677   0.861   5.645   3.229  0.4546  0.4072 -0.8010
  192DOPC     P23678   0.691   5.849   3.297 -0.2588  0.7393 -0.1989
  192DOPC   O1323679   0.628   5.890   3.169 -0.8541 -0.0211  0.3119
  192DOPC   O1423680   0.832   5.886   3.322 -0.2623 -0.0252 -0.5396
  192DOPC   O1223681   0.673   5.692   3.311 -0.4779 -0.7124 -0.2794
  192DOPC   O1123682   0.613   5.904   3.426 -0.1454 -0.7396  0.1919
  192DOPC    C123683   0.625   6.042   3.465  0.1485  0.0899  0.0518
  192DOPC    HA23684   0.531   6.097   3.442  0.2363  0.0967 -0.2896
  192DOPC    HB23685   0.712   6.099   3.426  0.6226 -0.2580  0.5913
  192DOPC    C223686   0.643   6.049   3.621 -0.8790  0.3619 -0.1521
  192DOPC    HS23687   0.683   6.149   3.648  0.8647 -0.7903  1.9294
  192DOPC   O2123688   0.736   5.947   3.669 -0.0799 -0.6116  0.2337
  192DOPC   C2123689   0.865   5.973   3.644  0.1325 -0.1365  0.1542
  192DOPC   O2223690   0.903   6.078   3.597 -0.0656 -0.3295  0.5816
  192DOPC   C2223691   0.952   5.856   3.694 -0.5656  0.5839 -0.0644
  192DOPC   H2R23692   0.893   5.766   3.667 -0.2649  0.6119 -0.8471
  192DOPC   H2S23693   0.965   5.866   3.804  1.3007  1.7352 -0.3412
  192DOPC    C323694   0.509   6.033   3.693  0.4460 -0.6765  0.0207
  192DOPC    HX23695   0.440   5.968   3.636 -0.0648 -1.1284  1.1198
  192DOPC    HY23696   0.444   6.122   3.682  0.3550 -0.5435  1.4565
  192DOPC   O3123697   0.508   5.983   3.825  0.0308  0.6573 -0.3851
  192DOPC   C3123698   0.545   6.069   3.913 -0.9712  0.3576 -0.6027
  192DOPC   O3223699   0.572   6.186   3.892 -0.4373  0.0601 -0.3377
  192DOPC   C3223700   0.562   5.998   4.052 -0.0429  0.4102  0.3777
  192DOPC   H2X23701   0.479   5.925   4.064 -0.5490  1.1045  1.2506
  192DOPC   H2Y23702   0.663   5.953   4.052  0.3740  1.2741 -0.9312
  192DOPC   C2323703   1.090   5.865   3.633 -0.3426 -0.0711  0.0994
  192DOPC   H3R23704   1.137   5.965   3.638 -3.6799  1.6579 -0.7029
  192DOPC   H3S23705   1.070   5.862   3.524 -2.0217  0.3767  0.3632
  192DOPC   C2423706   1.184   5.751   3.680 -0.0380  0.3921  0.1833
  192DOPC   H4R23707   1.211   5.776   3.785  0.9702  2.4620 -0.5303
  192DOPC   H4S23708   1.274   5.752   3.615 -0.2083  0.2119 -0.0605
  192DOPC   C2523709   1.121   5.607   3.669 -0.5396 -0.1586 -0.6711
  192DOPC   H5R23710   1.116   5.586   3.560  1.5882 -0.3046 -0.7855
  192DOPC   H5S23711   1.020   5.592   3.712  0.1457 -4.5008 -0.1182
  192DOPC   C2623712   1.223   5.504   3.725  0.1420  0.0204 -0.2137
  192DOPC   H6R23713   1.329   5.539   3.720  0.2718 -0.4223 -0.6000
  192DOPC   H6S23714   1.219   5.409   3.668 -1.6368  0.4538 -0.8636
  192DOPC   C2723715   1.188   5.467   3.871 -0.3658  0.0716  0.0828
  192DOPC   H7R23716   1.090   5.418   3.859 -0.0938 -0.2325 -1.0127
  192DOPC   H7S23717   1.185   5.565   3.925 -1.5578  0.3914 -0.5452
  192DOPC   C2823718   1.268   5.359   3.950 -0.3095  0.2594 -0.2532
  192DOPC   H8R23719   1.261   5.262   3.895 -0.0814 -0.8773  1.6315
  192DOPC   H8S23720   1.217   5.333   4.045  0.9706 -0.8991  0.1637
  192DOPC   C2923721   1.410   5.393   3.966 -0.2822 -0.4562 -0.1696
  192DOPC   H9R23722   1.477   5.351   3.890  0.6640  0.0354  0.3753
  192DOPC  C21023723   1.464   5.472   4.064  0.4358 -0.1326  0.0481
  192DOPC  H10R23724   1.571   5.466   4.090  0.3498 -1.0258  0.2578
  192DOPC  C21123725   1.393   5.554   4.166 -0.6270 -0.2689  0.7814
  192DOPC  H11R23726   1.439   5.531   4.264  0.5690 -0.1708  0.2605
  192DOPC  H11S23727   1.283   5.541   4.172 -0.9623  0.8720 -1.6522
  192DOPC  C21223728   1.431   5.701   4.138 -0.0210  0.3215 -0.7449
  192DOPC  H12R23729   1.540   5.718   4.125  0.2768  1.0910  2.1379
  192DOPC  H12S23730   1.420   5.750   4.237  1.2074 -1.7093  0.4432
  192DOPC  C21323731   1.352   5.773   4.020 -0.0672  0.7463 -0.8751
  192DOPC  H13R23732   1.249   5.730   4.021 -0.7122  2.1906 -1.6184
  192DOPC  H13S23733   1.393   5.745   3.920 -0.7188  1.3604 -1.3304
  192DOPC  C21423734   1.346   5.924   4.035 -0.1498 -0.4612 -0.2911
  192DOPC  H14R23735   1.335   5.968   3.933  0.6899 -0.6129 -0.4532
  192DOPC  H14S23736   1.444   5.959   4.074 -0.1952 -2.7772  2.1982
  192DOPC  C21523737   1.232   5.960   4.123  0.2943 -0.5954 -0.6823
  192DOPC  H15R23738   1.247   5.903   4.217  2.3908  1.6255  0.4415
  192DOPC  H15S23739   1.140   5.924   4.073 -1.6392  0.6445  1.7710
  192DOPC  C21623740   1.228   6.111   4.160 -0.5019 -0.3694  0.2886
  192DOPC  H16R23741   1.230   6.164   4.062  2.3899 -0.6030  0.1117
  192DOPC  H16S23742   1.325   6.127   4.212 -0.2820  1.7922 -0.6626
  192DOPC  C21723743   1.109   6.135   4.248  0.2906 -0.2169 -0.3514
  192DOPC  H17R23744   1.118   6.234   4.298  0.9348  0.0340 -0.9645
  192DOPC  H17S23745   1.105   6.064   4.334 -1.3142  0.6694  0.3583
  192DOPC  C21823746   0.978   6.129   4.173 -0.1630 -0.3670  0.1667
  192DOPC  H18R23747   0.991   6.180   4.075  1.7664 -3.0896 -1.1131
  192DOPC  H18S23748   0.896   6.170   4.235  1.1121 -0.2544  1.8442
  192DOPC  H18T23749   0.953   6.022   4.161 -2.9669  0.3019 -0.7949
  192DOPC   C3323750   0.563   6.097   4.171 -0.4992 -0.2505  0.4619
  192DOPC   H3X23751   0.465   6.149   4.165 -1.4514 -2.0815 -1.0787
  192DOPC   H3Y23752   0.642   6.175   4.165 -0.8529 -0.0244 -2.9680
  192DOPC   C3423753   0.564   6.033   4.317  0.4565 -0.2390  0.0169
  192DOPC   H4X23754   0.460   5.996   4.317 -0.7621  2.8666  0.2933
  192DOPC   H4Y23755   0.579   6.116   4.388 -0.7695  1.6157 -1.7638
  192DOPC   C3523756   0.671   5.929   4.335  0.4060 -0.6976  0.4995
  192DOPC   H5X23757   0.767   5.984   4.324 -0.5431  0.9825  0.3104
  192DOPC   H5Y23758   0.673   5.853   4.254  1.9622 -0.5918  0.4235
  192DOPC   C3623759   0.661   5.857   4.469  0.5876  0.1719 -0.0654
  192DOPC   H6X23760   0.687   5.930   4.549 -1.0222 -0.2678  0.9239
  192DOPC   H6Y23761   0.556   5.825   4.486  0.2194  1.6347  0.6256
  192DOPC   C3723762   0.756   5.735   4.486 -0.2948  0.1653  0.2977
  192DOPC   H7X23763   0.756   5.705   4.593  0.2944 -0.4056  0.1484
  192DOPC   H7Y23764   0.719   5.650   4.424  1.3265  0.4645 -1.1765
  192DOPC   C3823765   0.900   5.778   4.458  0.0527  0.7760  0.0124
  192DOPC   H8X23766   0.938   5.856   4.528  1.3417  0.5041 -0.3525
  192DOPC   H8Y23767   0.908   5.826   4.358  0.2499  0.3222 -0.1912
  192DOPC   C3923768   1.000   5.661   4.469  0.8760 -0.5413  0.0176
  192DOPC   H9X23769   0.984   5.581   4.395  0.5292  1.5269 -2.2300
  192DOPC  C31023770   1.098   5.650   4.557 -0.0029  0.5313 -0.2981
  192DOPC  H10X23771   1.165   5.563   4.558 -0.2993  0.1425  3.8480
  192DOPC  C31123772   1.144   5.743   4.664 -0.1818 -0.2320 -0.5105
  192DOPC  H11X23773   1.181   5.691   4.755  1.4070  1.4627 -0.1094
  192DOPC  H11Y23774   1.060   5.804   4.703  1.6294  1.8353  0.3947
  192DOPC  C31223775   1.251   5.851   4.618 -0.0590  0.1335 -0.2571
  192DOPC  H12X23776   1.202   5.931   4.558 -0.8480  0.8405  1.2569
  192DOPC  H12Y23777   1.337   5.806   4.565  1.0748  2.7158 -0.7680
  192DOPC  C31323778   1.314   5.932   4.735  0.4852  0.1026  0.3778
  192DOPC  H13X23779   1.347   5.855   4.809  1.0215  0.8687  0.9537
  192DOPC  H13Y23780   1.408   5.985   4.708 -0.2668  1.6503  0.6976
  192DOPC  C31423781   1.212   6.021   4.804 -0.0769 -0.4011 -0.0646
  192DOPC  H14X23782   1.148   6.066   4.725 -0.1406 -0.7784 -0.2307
  192DOPC  H14Y23783   1.142   5.962   4.866  1.2344 -1.3470  0.5520
  192DOPC  C31523784   1.274   6.128   4.895 -0.0999  0.0007 -0.7921
  192DOPC  H15X23785   1.371   6.144   4.845  0.7175 -2.4335 -0.1193
  192DOPC  H15Y23786   1.298   6.082   4.993 -0.7840 -0.7873 -0.9739
  192DOPC  C31623787   1.185   6.253   4.913  0.3526  0.3507  0.0000
  192DOPC  H16X23788   1.166   6.286   4.808  2.8572  0.3740 -0.5103
  192DOPC  H16Y23789   1.089   6.228   4.962 -2.0450  4.6947 -1.9262
  192DOPC  C31723790   1.260   6.366   4.978  0.2583 -0.3455 -0.4370
  192DOPC  H17X23791   1.188   6.449   4.998 -2.0067 -1.3634 -3.5697
  192DOPC  H17Y23792   1.307   6.339   5.075 -0.5949 -1.1764 -0.2377
  192DOPC  C31823793   1.371   6.433   4.897  0.1319  0.1378  0.4853
  192DOPC  H18X23794   1.344   6.471   4.796 -2.0269 -1.6525  0.3148
  192DOPC  H18Y23795   1.406   6.521   4.955  1.5964 -0.9227  1.2711
  192DOPC  H18Z23796   1.456   6.363   4.886  0.6430  0.6496  1.1304
  193DOPC     N23797   7.514   1.822   2.634  0.4635 -0.0737 -0.1837
  193DOPC   C1223798   7.463   1.820   2.779 -0.2688  0.0860 -0.5496
  193DOPC  H12A23799   7.362   1.786   2.795 -0.7823  2.5918  2.5585
  193DOPC  H12B23800   7.461   1.924   2.808 -1.7940  0.1567 -0.8453
  193DOPC   C1323801   7.633   1.912   2.622 -0.0063 -0.8469  1.2284
  193DOPC  H13A23802   7.594   2.012   2.626 -0.0434 -0.7471 -0.5957
  193DOPC  H13B23803   7.707   1.895   2.699  1.5167 -1.7359 -0.3476
  193DOPC  H13C23804   7.681   1.900   2.526  1.0089 -2.1363  1.8548
  193DOPC   C1423805   7.414   1.886   2.546  0.0262 -0.0837 -0.1757
  193DOPC  H14A23806   7.329   1.821   2.537 -0.7307  0.9253 -0.5252
  193DOPC  H14B23807   7.381   1.978   2.592 -0.7715 -0.4504 -0.0117
  193DOPC  H14C23808   7.455   1.895   2.447  0.9783 -0.2244  0.1971
  193DOPC   C1523809   7.542   1.686   2.586 -0.5692 -0.3695 -0.8461
  193DOPC  H15A23810   7.611   1.680   2.503  1.0743  0.4356  0.4069
  193DOPC  H15B23811   7.451   1.638   2.554 -1.9972  1.0230  0.8959
  193DOPC  H15C23812   7.589   1.621   2.659 -2.1687 -1.4586 -0.7185
  193DOPC   C1123813   7.547   1.745   2.888  0.6002 -0.0698 -0.0589
  193DOPC  H11A23814   7.648   1.789   2.887  0.7834 -0.2801 -3.4118
  193DOPC  H11B23815   7.500   1.767   2.986 -1.4306 -1.4077 -0.6456
  193DOPC     P23816   7.442   1.507   2.888 -0.0327 -0.0379  0.3468
  193DOPC   O1323817   7.457   1.376   2.817  0.1691 -0.4995 -0.6570
  193DOPC   O1423818   7.320   1.581   2.858 -0.1507  0.5488  0.2925
  193DOPC   O1223819   7.561   1.605   2.855  0.1281  0.0724 -0.0728
  193DOPC   O1123820   7.457   1.480   3.041  0.3429 -0.3668 -0.6701
  193DOPC    C123821   7.507   1.357   3.092  0.0716 -0.5529 -0.2551
  193DOPC    HA23822   7.599   1.334   3.034  0.9585  0.5898  0.6716
  193DOPC    HB23823   7.433   1.274   3.096 -0.3885 -0.0885  1.5703
  193DOPC    C223824   7.553   1.362   3.246  0.1093  0.5258  0.0660
  193DOPC    HS23825   7.608   1.269   3.269 -0.2688  0.0756 -0.7865
  193DOPC   O2123826   7.440   1.378   3.329 -0.1984  0.1618 -0.1653
  193DOPC   C2123827   7.364   1.264   3.354  0.3001  0.5032  0.1176
  193DOPC   O2223828   7.390   1.153   3.311 -1.0611  0.0151  0.5593
  193DOPC   C2223829   7.251   1.285   3.448  0.1605 -0.1870 -0.3583
  193DOPC   H2R23830   7.173   1.347   3.399  0.1364  0.6930  0.7396
  193DOPC   H2S23831   7.293   1.344   3.532 -0.1146  2.3003 -1.8427
  193DOPC    C323832   7.641   1.492   3.265  0.4970  0.3182 -0.1152
  193DOPC    HX23833   7.573   1.579   3.272 -0.4651 -0.2089 -2.0808
  193DOPC    HY23834   7.710   1.501   3.178  0.7470 -1.2073 -0.1163
  193DOPC   O3123835   7.717   1.483   3.390  0.1973  0.3764 -0.5967
  193DOPC   C3123836   7.800   1.581   3.408  0.0725  0.0371 -0.8082
  193DOPC   O3223837   7.831   1.668   3.325 -0.1201  0.2840 -0.7400
  193DOPC   C3223838   7.865   1.551   3.547  0.6102  0.5258  0.5513
  193DOPC   H2X23839   7.791   1.522   3.624  0.9545  0.8619  1.0171
  193DOPC   H2Y23840   7.940   1.472   3.527 -1.4172 -0.8726 -2.2438
  193DOPC   C2323841   7.202   1.153   3.514 -0.3108  0.0836 -0.7103
  193DOPC   H3R23842   7.271   1.078   3.559 -0.3980 -0.2180 -1.0695
  193DOPC   H3S23843   7.135   1.090   3.451  1.8788 -2.6581 -0.4653
  193DOPC   C2423844   7.115   1.191   3.642  0.2031 -0.8632  0.1496
  193DOPC   H4R23845   7.047   1.269   3.604 -2.2468 -2.3009  1.2876
  193DOPC   H4S23846   7.178   1.232   3.724  0.2113 -1.7802  0.6203
  193DOPC   C2523847   7.036   1.074   3.703  0.4278  0.1389  0.0737
  193DOPC   H5R23848   7.109   0.995   3.732 -0.3264  0.4261  3.0788
  193DOPC   H5S23849   6.974   1.025   3.625  0.4509  0.0409  0.1161
  193DOPC   C2623850   6.951   1.102   3.824  0.2219 -0.1317 -0.7891
  193DOPC   H6R23851   6.888   1.015   3.852 -0.3862  1.2906  2.8519
  193DOPC   H6S23852   6.888   1.190   3.799 -1.8947 -1.1955  0.4797
  193DOPC   C2723853   7.033   1.132   3.950 -0.0355  0.5387  0.4181
  193DOPC   H7R23854   7.112   1.204   3.918 -1.0143  1.1647 -0.6528
  193DOPC   H7S23855   7.083   1.037   3.977  1.7821  1.5891  0.9253
  193DOPC   C2823856   6.939   1.183   4.065 -0.0489  0.6905  0.4808
  193DOPC   H8R23857   6.865   1.102   4.084 -0.9736  1.4884  0.3436
  193DOPC   H8S23858   6.869   1.263   4.036  0.0698  0.3480 -0.8088
  193DOPC   C2923859   7.023   1.211   4.181 -0.5399 -0.4373 -0.2495
  193DOPC   H9R23860   7.102   1.135   4.188 -0.5651 -0.4728 -0.3476
  193DOPC  C21023861   7.030   1.319   4.263 -0.1928 -0.7164  0.0093
  193DOPC  H10R23862   7.099   1.313   4.348  2.0044 -0.5145 -1.6810
  193DOPC  C21123863   6.928   1.431   4.247 -0.4593 -0.2151 -0.5607
  193DOPC  H11R23864   6.825   1.395   4.224 -0.6231  0.0075 -0.1973
  193DOPC  H11S23865   6.965   1.494   4.163  4.5296 -0.9067  0.7985
  193DOPC  C21223866   6.920   1.529   4.372  0.0216  0.2703  0.3514
  193DOPC  H12R23867   7.009   1.595   4.382  1.9309 -2.3304  2.1526
  193DOPC  H12S23868   6.905   1.473   4.467  0.4906 -0.1809  0.1610
  193DOPC  C21323869   6.802   1.628   4.356 -0.8812 -0.5498  0.9080
  193DOPC  H13R23870   6.701   1.583   4.371 -2.2639  1.4585 -1.6189
  193DOPC  H13S23871   6.805   1.669   4.253  0.4067  0.8239  1.4552
  193DOPC  C21423872   6.802   1.741   4.462 -0.4554  0.5831  0.3011
  193DOPC  H14R23873   6.733   1.823   4.435 -1.8525 -0.3439  0.9519
  193DOPC  H14S23874   6.900   1.793   4.470 -0.3584  0.4578 -0.0689
  193DOPC  C21523875   6.770   1.690   4.606  0.1643 -0.4483  0.7099
  193DOPC  H15R23876   6.845   1.615   4.640  1.3210  1.1571  1.8411
  193DOPC  H15S23877   6.670   1.643   4.601 -0.5112  1.0373 -0.4372
  193DOPC  C21623878   6.774   1.805   4.711 -0.1121  0.2020 -0.1423
  193DOPC  H16R23879   6.698   1.881   4.682  1.3506  1.4955 -0.7751
  193DOPC  H16S23880   6.870   1.861   4.702 -0.1937  0.2867 -0.4749
  193DOPC  C21723881   6.752   1.765   4.853  0.5363 -0.5023 -0.8481
  193DOPC  H17R23882   6.818   1.680   4.883  1.9299  0.4407 -1.1746
  193DOPC  H17S23883   6.649   1.727   4.873  0.7918 -0.7366  0.1040
  193DOPC  C21823884   6.783   1.878   4.955  1.0295  0.4259  0.1235
  193DOPC  H18R23885   6.886   1.911   4.930  1.2477  0.1017  0.5823
  193DOPC  H18S23886   6.782   1.833   5.056  1.3993 -2.0518 -0.9135
  193DOPC  H18T23887   6.711   1.963   4.945  1.1004  0.6813  1.5518
  193DOPC   C3323888   7.928   1.682   3.588  0.6005 -0.0400 -0.5106
  193DOPC   H3X23889   7.863   1.756   3.640  3.1255  2.3586 -0.4909
  193DOPC   H3Y23890   7.964   1.742   3.502 -1.8142  1.8048 -0.3570
  193DOPC   C3423891   8.048   1.655   3.671 -0.4194 -0.1782 -0.1256
  193DOPC   H4X23892   8.116   1.584   3.619 -0.8447 -1.8447  1.5023
  193DOPC   H4Y23893   8.011   1.601   3.761  0.2767 -0.4265  0.0157
  193DOPC   C3523894   8.133   1.781   3.697  0.5289  0.0403 -0.5443
  193DOPC   H5X23895   8.073   1.866   3.736  1.6217  0.4688  0.2699
  193DOPC   H5Y23896   8.171   1.815   3.598 -1.1053 -1.0368 -1.5883
  193DOPC   C3623897   8.248   1.748   3.796 -0.0988  0.4794 -0.0312
  193DOPC   H6X23898   8.310   1.673   3.743 -0.5980 -0.3763  0.5810
  193DOPC   H6Y23899   8.306   1.842   3.809 -2.1890  2.2012 -2.1133
  193DOPC   C3723900   8.203   1.708   3.939  0.3808  0.5462 -0.2402
  193DOPC   H7X23901   8.178   1.798   3.999  1.9442  0.7530  0.1299
  193DOPC   H7Y23902   8.120   1.634   3.930  0.0152  0.7340  1.3479
  193DOPC   C3823903   8.304   1.613   4.001  0.0260 -0.2278 -0.4570
  193DOPC   H8X23904   8.308   1.523   3.935  2.6126 -0.1960 -0.4397
  193DOPC   H8Y23905   8.266   1.576   4.098 -0.3223  1.0254 -0.0900
  193DOPC   C3923906   8.445   1.667   4.026  0.6166  0.6290  0.3653
  193DOPC   H9X23907   8.496   1.686   3.930  0.0159  1.6018  0.2184
  193DOPC  C31023908   8.508   1.697   4.140 -0.0612 -0.1121  0.6677
  193DOPC  H10X23909   8.609   1.740   4.142  0.0487 -0.1895 -1.1540
  193DOPC  C31123910   8.435   1.676   4.272 -0.7212  0.1322  0.0827
  193DOPC  H11X23911   8.509   1.665   4.354 -0.1421  2.1930 -0.1000
  193DOPC  H11Y23912   8.374   1.584   4.280  0.3967 -0.6389 -0.0353
  193DOPC  C31223913   8.339   1.793   4.300  0.4230 -0.2397 -0.0457
  193DOPC  H12X23914   8.254   1.789   4.229 -0.3395 -2.4699  0.8903
  193DOPC  H12Y23915   8.395   1.888   4.290  2.6976 -1.5738 -1.0356
  193DOPC  C31323916   8.291   1.780   4.452 -0.0051  0.5626 -0.5470
  193DOPC  H13X23917   8.251   1.677   4.469 -1.2611  0.7075 -2.3421
  193DOPC  H13Y23918   8.384   1.792   4.511  0.2053 -0.1021 -0.7314
  193DOPC  C31423919   8.191   1.893   4.457  0.5492  0.3085 -0.0593
  193DOPC  H14X23920   8.227   1.993   4.424  0.1531  0.8274  1.0433
  193DOPC  H14Y23921   8.092   1.884   4.410  0.5004  1.0813 -0.1166
  193DOPC  C31523922   8.151   1.915   4.606  0.5541 -0.6873 -0.1011
  193DOPC  H15X23923   8.244   1.924   4.666  0.2991 -1.6386  0.4590
  193DOPC  H15Y23924   8.098   1.823   4.637  1.0488 -1.0683 -0.3641
  193DOPC  C31623925   8.054   2.033   4.635  0.2430 -0.4983  0.1390
  193DOPC  H16X23926   7.965   2.046   4.571 -0.2895  0.3854  1.0350
  193DOPC  H16Y23927   8.019   2.016   4.739  1.4887  0.7843  0.8044
  193DOPC  C31723928   8.137   2.164   4.628  0.9090 -0.0419 -0.9948
  193DOPC  H17X23929   8.196   2.156   4.722  1.0899 -0.2412 -1.1249
  193DOPC  H17Y23930   8.212   2.160   4.546  0.7667  0.1180 -1.1341
  193DOPC  C31823931   8.044   2.288   4.638  0.1445  0.2617  0.0709
  193DOPC  H18X23932   8.102   2.380   4.615  1.4717 -1.0551 -2.2312
  193DOPC  H18Y23933   7.961   2.270   4.566  1.5444 -0.8955 -1.3431
  193DOPC  H18Z23934   7.989   2.294   4.734  0.8613 -0.0349  0.5092
  194DOPC     N23935   3.283   0.022   3.179 -0.5105  0.0451 -0.2968
  194DOPC   C1223936   3.194  -0.053   3.277 -0.4085  0.4102 -0.2075
  194DOPC  H12A23937   3.256  -0.119   3.335 -2.5693  0.3333  2.1899
  194DOPC  H12B23938   3.135  -0.118   3.215 -0.9849  0.4357  0.3035
  194DOPC   C1323939   3.380  -0.071   3.101  0.0027  0.3700  0.3287
  194DOPC  H13A23940   3.383  -0.171   3.141 -0.6572  0.1050 -0.2659
  194DOPC  H13B23941   3.362  -0.075   2.995  1.8384 -1.6146  0.0184
  194DOPC  H13C23942   3.480  -0.032   3.109  0.8332 -1.2254 -1.5197
  194DOPC   C1423943   3.372   0.113   3.255  0.6784 -0.1627 -0.2036
  194DOPC  H14A23944   3.459   0.061   3.293  1.1042  2.3266  2.5679
  194DOPC  H14B23945   3.403   0.200   3.198  1.1762  1.4520  2.3817
  194DOPC  H14C23946   3.321   0.156   3.339  0.5614 -0.2644 -0.2220
  194DOPC   C1523947   3.216   0.103   3.077 -0.2266 -0.1787 -0.3264
  194DOPC  H15A23948   3.157   0.178   3.128 -1.1800 -0.8571 -0.4162
  194DOPC  H15B23949   3.154   0.046   3.009  0.4136  0.0262 -1.1024
  194DOPC  H15C23950   3.290   0.155   3.018  0.7770 -4.0188 -2.7759
  194DOPC   C1123951   3.078   0.017   3.363  0.7056 -0.2865  0.5432
  194DOPC  H11A23952   3.041  -0.067   3.426 -1.1762  0.2001  0.1443
  194DOPC  H11B23953   3.129   0.087   3.432  1.4389  0.2299 -0.4936
  194DOPC     P23954   2.836   0.017   3.257 -0.4607  0.3478 -0.3209
  194DOPC   O1323955   2.866  -0.111   3.184  0.1057  0.1349  0.2020
  194DOPC   O1423956   2.753   0.115   3.178  0.0934  1.1257  0.3440
  194DOPC   O1223957   2.973   0.088   3.294  0.4056 -0.0313  0.8684
  194DOPC   O1123958   2.752  -0.010   3.392 -0.1605 -0.6891  0.5632
  194DOPC    C123959   2.737   0.109   3.479  0.2844  0.3047  0.7286
  194DOPC    HA23960   2.635   0.152   3.486 -0.1537 -0.6816  0.5464
  194DOPC    HB23961   2.806   0.192   3.450 -0.7334  0.7023 -0.6097
  194DOPC    C223962   2.776   0.090   3.632 -0.4798 -0.4947 -0.2908
  194DOPC    HS23963   2.886   0.077   3.639 -0.2037  1.9623  1.3369
  194DOPC   O2123964   2.706  -0.022   3.688  0.4853  0.1802 -0.2956
  194DOPC   C2123965   2.763  -0.139   3.664  0.3474 -0.1260 -0.0405
  194DOPC   O2223966   2.863  -0.162   3.604 -0.5592  0.3266  0.1673
  194DOPC   C2223967   2.682  -0.255   3.727 -0.4085  0.2392 -0.3926
  194DOPC   H2R23968   2.699  -0.352   3.676  0.4105  0.6789 -0.9858
  194DOPC   H2S23969   2.575  -0.235   3.706 -1.4516 -0.9997  3.0611
  194DOPC    C323970   2.744   0.227   3.700 -0.9978  0.8577  0.0344
  194DOPC    HX23971   2.634   0.241   3.698 -1.1889 -0.3943  0.6435
  194DOPC    HY23972   2.782   0.309   3.635 -1.2598  0.1374 -1.0547
  194DOPC   O3123973   2.806   0.234   3.838 -0.3454 -0.3769  0.1926
  194DOPC   C3123974   2.717   0.216   3.930  0.7356 -0.3949 -0.4122
  194DOPC   O3223975   2.599   0.180   3.912 -0.0673  0.5193 -0.2723
  194DOPC   C3223976   2.776   0.255   4.063 -0.5860 -0.7530 -0.4086
  194DOPC   H2X23977   2.885   0.236   4.074 -1.0664 -2.7325  1.4699
  194DOPC   H2Y23978   2.755   0.363   4.077  1.3955 -0.6081  2.0704
  194DOPC   C2323979   2.689  -0.270   3.880 -0.6110 -0.1303 -0.1879
  194DOPC   H3R23980   2.796  -0.272   3.911 -0.7654 -0.7733  0.3015
  194DOPC   H3S23981   2.645  -0.366   3.913 -1.7712  1.1113  2.1889
  194DOPC   C2423982   2.608  -0.169   3.964 -0.2236 -0.6706  0.0267
  194DOPC   H4R23983   2.505  -0.162   3.922 -0.9177  0.1963  1.7488
  194DOPC   H4S23984   2.651  -0.067   3.968 -0.8695 -0.4060  0.6586
  194DOPC   C2523985   2.612  -0.207   4.118 -1.0424 -0.3086  0.1096
  194DOPC   H5R23986   2.708  -0.194   4.172 -0.0773 -0.4722 -1.5111
  194DOPC   H5S23987   2.602  -0.317   4.129 -2.2227 -0.1100  1.3521
  194DOPC   C2623988   2.496  -0.148   4.191 -0.3740 -0.0418  0.1522
  194DOPC   H6R23989   2.413  -0.157   4.118 -0.7570 -0.3789  0.6225
  194DOPC   H6S23990   2.499  -0.038   4.204 -1.8186 -0.1903  2.1979
  194DOPC   C2723991   2.456  -0.215   4.325  0.2527  0.4323 -0.1012
  194DOPC   H7R23992   2.539  -0.193   4.395 -0.3850  1.4548  0.3447
  194DOPC   H7S23993   2.460  -0.325   4.307 -3.1867  0.1159  0.2703
  194DOPC   C2823994   2.314  -0.199   4.387  0.1929  0.1994  0.0580
  194DOPC   H8R23995   2.299  -0.280   4.462 -1.2961  0.9133  0.5629
  194DOPC   H8S23996   2.242  -0.228   4.308  1.8064 -1.1389 -0.9828
  194DOPC   C2923997   2.280  -0.061   4.445 -0.3058  0.3210  0.3638
  194DOPC   H9R23998   2.250   0.020   4.377 -0.1037  0.6983  0.7126
  194DOPC  C21023999   2.318  -0.022   4.563 -0.1544 -0.3418  0.3532
  194DOPC  H10R24000   2.281   0.077   4.594  0.4959 -0.3324  1.1468
  194DOPC  C21124001   2.389  -0.104   4.665  0.1931 -0.3116 -0.3501
  194DOPC  H11R24002   2.464  -0.039   4.715  1.1865 -0.3981 -1.6761
  194DOPC  H11S24003   2.436  -0.199   4.631 -2.9032 -2.3568  0.6599
  194DOPC  C21224004   2.283  -0.144   4.768  0.2541  0.2989  0.4576
  194DOPC  H12R24005   2.201  -0.197   4.714 -1.0004 -1.5150  3.8409
  194DOPC  H12S24006   2.237  -0.054   4.813 -0.1164  1.5760 -2.2988
  194DOPC  C21324007   2.320  -0.233   4.882 -0.3186 -0.0310  0.2639
  194DOPC  H13R24008   2.234  -0.242   4.953 -0.8520 -1.2920 -0.5113
  194DOPC  H13S24009   2.408  -0.199   4.941  0.2279 -1.4612  0.2980
  194DOPC  C21424010   2.354  -0.381   4.846  0.4677 -0.3013  0.0627
  194DOPC  H14R24011   2.406  -0.377   4.748 -0.0414 -1.4422 -0.2684
  194DOPC  H14S24012   2.263  -0.432   4.809  0.7438 -1.2648  0.6603
  194DOPC  C21524013   2.429  -0.459   4.953  0.0623 -0.9222  0.8292
  194DOPC  H15R24014   2.512  -0.389   4.979  1.0444 -2.3263  1.6460
  194DOPC  H15S24015   2.467  -0.552   4.904 -1.6764 -0.3691 -1.7776
  194DOPC  C21624016   2.354  -0.502   5.082  0.2661  0.1620  0.3133
  194DOPC  H16R24017   2.277  -0.576   5.052  1.1790 -1.2809  1.4033
  194DOPC  H16S24018   2.302  -0.419   5.133 -1.2598 -0.8896  0.5502
  194DOPC  C21724019   2.449  -0.582   5.176  0.1327  0.6846 -0.2003
  194DOPC  H17R24020   2.539  -0.521   5.195  0.3938  0.2904 -0.1712
  194DOPC  H17S24021   2.486  -0.674   5.126  3.2188  0.8626  1.5163
  194DOPC  C21824022   2.383  -0.615   5.310 -0.4856  0.5317 -0.7730
  194DOPC  H18R24023   2.371  -0.520   5.367  3.5692  0.3038  0.8014
  194DOPC  H18S24024   2.445  -0.678   5.378  1.3097  1.8542 -1.1156
  194DOPC  H18T24025   2.283  -0.659   5.291 -1.2605  1.3086  1.1546
  194DOPC   C3324026   2.710   0.167   4.171 -0.3776 -0.3011 -0.0876
  194DOPC   H3X24027   2.747   0.062   4.166 -4.3424 -1.9769  1.4231
  194DOPC   H3Y24028   2.599   0.161   4.174 -0.3980 -1.2914 -1.5780
  194DOPC   C3424029   2.741   0.220   4.312  0.4612  0.4609  0.1983
  194DOPC   H4X24030   2.697   0.320   4.329  1.8107  1.1379 -0.1357
  194DOPC   H4Y24031   2.849   0.242   4.318  0.8152 -1.3249  1.0360
  194DOPC   C3524032   2.698   0.132   4.429 -0.6201  0.1929  0.2312
  194DOPC   H5X24033   2.775   0.052   4.437  0.8560  1.5876  0.6653
  194DOPC   H5Y24034   2.595   0.095   4.410  0.1811 -1.7961 -0.4469
  194DOPC   C3624035   2.712   0.200   4.570  0.2168  0.4503  0.8023
  194DOPC   H6X24036   2.627   0.271   4.564 -0.4826 -0.4916 -1.4406
  194DOPC   H6Y24037   2.692   0.126   4.650 -0.8590 -0.4843 -0.3031
  194DOPC   C3724038   2.847   0.264   4.610  0.3924 -0.0607  0.8269
  194DOPC   H7X24039   2.936   0.201   4.589  1.8983  1.7518  1.5992
  194DOPC   H7Y24040   2.865   0.351   4.544  1.4840  0.4827  1.8100
  194DOPC   C3824041   2.854   0.313   4.755 -0.1867  0.2121  0.2301
  194DOPC   H8X24042   2.840   0.222   4.816  2.0666 -0.2629  0.1361
  194DOPC   H8Y24043   2.773   0.385   4.781  1.2016  1.3969  1.5270
  194DOPC   C3924044   2.989   0.362   4.799 -0.0807 -0.3270 -0.1654
  194DOPC   H9X24045   3.041   0.307   4.879  0.0737  1.2702  0.8698
  194DOPC  C31024046   3.041   0.483   4.776  0.1359 -1.0868  0.3855
  194DOPC  H10X24047   3.147   0.498   4.801  1.1333 -0.6441 -3.5599
  194DOPC  C31124048   2.983   0.583   4.675 -0.2465 -0.9196  0.1202
  194DOPC  H11X24049   2.877   0.611   4.694  0.2671 -0.0440  2.0202
  194DOPC  H11Y24050   2.994   0.541   4.573  0.8056 -0.7076  0.1345
  194DOPC  C31224051   3.059   0.722   4.673  0.5226  0.4139 -0.0218
  194DOPC  H12X24052   3.092   0.743   4.777  0.8072  0.3944 -0.1071
  194DOPC  H12Y24053   2.988   0.795   4.629 -0.0735 -2.1626 -3.7816
  194DOPC  C31324054   3.177   0.737   4.573 -0.5087 -0.0775 -0.1710
  194DOPC  H13X24055   3.257   0.673   4.617  1.0569  2.1535  0.4178
  194DOPC  H13Y24056   3.144   0.695   4.476  1.9082 -0.5651 -0.8367
  194DOPC  C31424057   3.240   0.869   4.555 -0.3494  0.4686 -0.1302
  194DOPC  H14X24058   3.162   0.941   4.525 -1.6544 -0.7567  0.1761
  194DOPC  H14Y24059   3.279   0.908   4.652  1.3181 -1.3948  0.0163
  194DOPC  C31524060   3.347   0.867   4.449 -0.3429 -0.2870  0.4048
  194DOPC  H15X24061   3.385   0.968   4.421  1.8522 -0.4966  2.2948
  194DOPC  H15Y24062   3.308   0.836   4.350 -0.8940 -1.4677  0.9753
  194DOPC  C31624063   3.475   0.780   4.494 -0.2370  0.6600 -0.2442
  194DOPC  H16X24064   3.534   0.824   4.577  2.0182  1.2811 -2.0691
  194DOPC  H16Y24065   3.445   0.676   4.519 -1.9974  0.4430 -2.8513
  194DOPC  C31724066   3.585   0.770   4.383  0.0001  0.1832  0.3202
  194DOPC  H17X24067   3.551   0.767   4.277  2.0387  6.6772 -0.9659
  194DOPC  H17Y24068   3.652   0.856   4.400  0.4034 -0.0990  0.1909
  194DOPC  C31824069   3.677   0.659   4.410  0.3241 -0.1493 -0.9314
  194DOPC  H18X24070   3.638   0.561   4.374 -0.8240  0.1291 -0.4706
  194DOPC  H18Y24071   3.772   0.686   4.359  0.3817  2.1980  0.3011
  194DOPC  H18Z24072   3.697   0.655   4.519 -0.5452 -0.2829 -0.7732
  195DOPC     N24073   5.807   6.414   2.514  0.3571 -0.2552 -0.0776
  195DOPC   C1224074   5.807   6.378   2.662  0.3927  0.7591 -0.4392
  195DOPC  H12A24075   5.907   6.353   2.693 -0.0833  0.2275  0.6985
  195DOPC  H12B24076   5.744   6.291   2.672  0.3869  1.0316  2.7569
  195DOPC   C1324077   5.666   6.426   2.463  0.5621 -0.5676  0.0902
  195DOPC  H13A24078   5.661   6.435   2.355 -3.2216  0.3078  0.1940
  195DOPC  H13B24079   5.593   6.348   2.478 -0.9296  0.4530 -1.4688
  195DOPC  H13C24080   5.620   6.517   2.499  1.1999  0.1247 -0.8062
  195DOPC   C1424081   5.883   6.303   2.439  0.4845 -0.0728  0.4357
  195DOPC  H14A24082   5.831   6.209   2.439  0.5408 -0.1070 -0.3387
  195DOPC  H14B24083   5.901   6.324   2.335  0.3930  0.4720  0.5224
  195DOPC  H14C24084   5.981   6.289   2.482 -0.0716 -1.1018  1.4347
  195DOPC   C1524085   5.887   6.542   2.484 -0.0845 -0.2057 -0.0873
  195DOPC  H15A24086   5.851   6.618   2.551 -0.1572  0.4246 -0.8337
  195DOPC  H15B24087   5.877   6.551   2.377 -0.0956  0.8632 -0.0070
  195DOPC  H15C24088   5.992   6.535   2.510 -0.1727  1.9491  1.0217
  195DOPC   C1124089   5.760   6.491   2.757 -0.5908 -0.2678 -0.3554
  195DOPC  H11A24090   5.759   6.447   2.859  2.7897 -1.0212 -0.5314
  195DOPC  H11B24091   5.842   6.566   2.759  0.2837 -1.2132  0.2688
  195DOPC     P24092   5.500   6.510   2.785  0.2935 -0.2938  0.0882
  195DOPC   O1324093   5.482   6.364   2.761  0.3539  0.0920  0.2305
  195DOPC   O1424094   5.400   6.599   2.722  0.6360 -0.5323  0.1778
  195DOPC   O1224095   5.640   6.556   2.722 -0.6862  0.0687  0.8597
  195DOPC   O1124096   5.507   6.543   2.941 -0.0836 -0.3824 -0.2435
  195DOPC    C124097   5.546   6.673   2.977 -0.8659 -0.4423 -0.0109
  195DOPC    HA24098   5.467   6.748   2.956  1.1891  1.5830 -0.9591
  195DOPC    HB24099   5.634   6.721   2.929 -2.0404 -0.9719 -2.8680
  195DOPC    C224100   5.581   6.676   3.127  0.3728  0.0325  0.3049
  195DOPC    HS24101   5.621   6.777   3.152  0.0795  0.2417 -0.0566
  195DOPC   O2124102   5.669   6.566   3.169  0.4701 -0.0063  0.4518
  195DOPC   C2124103   5.796   6.578   3.123  0.9232  0.7534  0.4795
  195DOPC   O2224104   5.833   6.668   3.050  0.3156 -0.7945 -0.1249
  195DOPC   C2224105   5.876   6.458   3.181  0.0763  0.3312 -0.1964
  195DOPC   H2R24106   5.986   6.472   3.170  0.4051 -1.8727 -0.1015
  195DOPC   H2S24107   5.851   6.362   3.133  1.8857 -1.3993  2.0635
  195DOPC    C324108   5.446   6.668   3.203 -0.5752  0.5626  0.1362
  195DOPC    HX24109   5.392   6.574   3.182 -1.3422  1.0824 -0.2717
  195DOPC    HY24110   5.381   6.749   3.164  1.6914  1.7507 -1.4133
  195DOPC   O3124111   5.486   6.668   3.336 -0.1823 -0.8835 -0.0568
  195DOPC   C3124112   5.380   6.671   3.420  0.0925 -0.2835  0.2984
  195DOPC   O3224113   5.266   6.665   3.389  0.5027 -0.3590  0.1742
  195DOPC   C3224114   5.442   6.688   3.562  0.2729  0.6448  0.0795
  195DOPC   H2X24115   5.489   6.596   3.602 -1.5364  1.1530  3.7933
  195DOPC   H2Y24116   5.529   6.757   3.558  0.4341  0.6024  1.9870
  195DOPC   C2324117   5.838   6.438   3.335 -0.8955 -0.7660  0.2770
  195DOPC   H3R24118   5.875   6.340   3.371 -0.0710 -0.8274 -0.6909
  195DOPC   H3S24119   5.728   6.440   3.355 -1.1995 -1.7061 -1.0927
  195DOPC   C2424120   5.901   6.548   3.425  0.5589  0.1902  0.0460
  195DOPC   H4R24121   5.831   6.633   3.407  1.9087  1.2582 -0.3424
  195DOPC   H4S24122   5.992   6.589   3.377  0.4856  0.3352  0.0292
  195DOPC   C2524123   5.906   6.514   3.574 -0.0125  0.4295 -0.0286
  195DOPC   H5R24124   5.977   6.578   3.630  0.3638 -0.2278  0.2677
  195DOPC   H5S24125   5.947   6.411   3.585 -1.5469 -0.1814  0.1593
  195DOPC   C2624126   5.772   6.524   3.642  0.0607  0.0179 -0.3994
  195DOPC   H6R24127   5.707   6.445   3.599 -1.0139  1.3010 -1.2296
  195DOPC   H6S24128   5.720   6.620   3.621 -1.7724 -0.8022  0.1515
  195DOPC   C2724129   5.787   6.516   3.797  0.0303  0.0797 -0.9330
  195DOPC   H7R24130   5.858   6.597   3.826  1.5970 -1.7614  0.6360
  195DOPC   H7S24131   5.833   6.421   3.832 -0.4588  0.1722 -0.0060
  195DOPC   C2824132   5.648   6.535   3.863 -0.7257  0.1890 -0.7299
  195DOPC   H8R24133   5.584   6.447   3.840  1.0931 -1.3571 -0.0847
  195DOPC   H8S24134   5.602   6.620   3.808  0.0652  0.6899 -0.6237
  195DOPC   C2924135   5.666   6.573   4.013 -0.0156 -0.0501 -0.3781
  195DOPC   H9R24136   5.741   6.651   4.028  0.7492 -0.4239 -2.0005
  195DOPC  C21024137   5.606   6.519   4.118  0.1381  0.5239  0.1193
  195DOPC  H10R24138   5.618   6.564   4.218  3.1082  1.2123 -0.4342
  195DOPC  C21124139   5.516   6.392   4.122  0.1327  0.1215  0.3815
  195DOPC  H11R24140   5.479   6.383   4.018  1.2232 -0.9731  0.0651
  195DOPC  H11S24141   5.425   6.406   4.185 -0.6543  0.3668 -0.7701
  195DOPC  C21224142   5.573   6.264   4.184  0.0487  0.5294  0.1777
  195DOPC  H12R24143   5.582   6.269   4.294  1.6142 -1.8673  0.2525
  195DOPC  H12S24144   5.676   6.245   4.147  0.1383  1.1970  0.0793
  195DOPC  C21324145   5.493   6.136   4.149 -0.2611 -0.1877  0.4909
  195DOPC  H13R24146   5.510   6.108   4.043  1.4924  1.4628  0.2805
  195DOPC  H13S24147   5.385   6.163   4.149 -0.1926  0.1263 -0.4775
  195DOPC  C21424148   5.507   6.021   4.245 -0.4943  0.1966  0.1595
  195DOPC  H14R24149   5.422   5.950   4.239 -1.0756  0.9158 -0.2244
  195DOPC  H14S24150   5.519   6.046   4.352 -1.8754  0.6958  0.2103
  195DOPC  C21524151   5.644   5.951   4.222  0.3256 -0.1367  0.1667
  195DOPC  H15R24152   5.734   6.010   4.249 -0.5512  0.6362  1.5032
  195DOPC  H15S24153   5.662   5.917   4.118  2.1649  0.0674  0.3941
  195DOPC  C21624154   5.660   5.823   4.306 -0.1336 -0.2058  0.4041
  195DOPC  H16R24155   5.629   5.833   4.412 -0.0051 -1.5464  0.5793
  195DOPC  H16S24156   5.768   5.798   4.316  0.4508  1.4297 -1.2789
  195DOPC  C21724157   5.595   5.696   4.262 -0.4294  0.2372  0.4773
  195DOPC  H17R24158   5.484   5.695   4.269 -0.5508 -2.3495 -0.6105
  195DOPC  H17S24159   5.622   5.620   4.338 -0.3137 -0.5470 -0.3274
  195DOPC  C21824160   5.638   5.642   4.132 -0.4975 -0.8410  0.0107
  195DOPC  H18R24161   5.598   5.690   4.041  1.5949  0.3776 -0.3175
  195DOPC  H18S24162   5.642   5.531   4.124  1.3041 -0.7735 -0.6201
  195DOPC  H18T24163   5.746   5.663   4.114 -1.1784  0.9949 -2.5218
  195DOPC   C3324164   5.341   6.732   3.665 -0.0625  0.1843 -0.1075
  195DOPC   H3X24165   5.290   6.829   3.642  1.8001  1.8895  2.4072
  195DOPC   H3Y24166   5.391   6.752   3.762  1.1214 -0.7502 -0.5135
  195DOPC   C3424167   5.236   6.627   3.709  0.1709 -0.0256  0.5761
  195DOPC   H4X24168   5.290   6.531   3.724  2.5928  1.0426 -0.8047
  195DOPC   H4Y24169   5.164   6.624   3.623  0.0046  0.6023  0.6904
  195DOPC   C3524170   5.165   6.665   3.838  0.3169 -0.2302 -0.0733
  195DOPC   H5X24171   5.061   6.628   3.851  0.1761 -0.1191 -0.8437
  195DOPC   H5Y24172   5.152   6.775   3.838  2.0553 -0.0020 -1.0971
  195DOPC   C3624173   5.250   6.636   3.969 -0.5723  0.5250  0.0675
  195DOPC   H6X24174   5.247   6.533   4.009  2.0575  0.6544  0.7596
  195DOPC   H6Y24175   5.358   6.647   3.944  0.0012 -1.1103  1.6103
  195DOPC   C3724176   5.213   6.731   4.085 -0.1152  0.1979 -0.4327
  195DOPC   H7X24177   5.239   6.834   4.055 -0.8970  1.3966  2.6299
  195DOPC   H7Y24178   5.104   6.726   4.103  0.2747 -2.1586  1.9336
  195DOPC   C3824179   5.271   6.694   4.221  0.0828 -0.3666  0.1176
  195DOPC   H8X24180   5.381   6.696   4.208  0.2342  1.9485  1.2738
  195DOPC   H8Y24181   5.234   6.596   4.258  2.2871 -0.3533  2.6542
  195DOPC   C3924182   5.245   6.800   4.320  0.0422 -0.6070 -0.5395
  195DOPC   H9X24183   5.199   6.894   4.286  0.0122 -1.0814 -1.8622
  195DOPC  C31024184   5.269   6.786   4.456  0.0295 -0.8904  0.2734
  195DOPC  H10X24185   5.244   6.873   4.519 -0.5017  0.4411 -1.7019
  195DOPC  C31124186   5.302   6.655   4.522  0.0849  0.5706  0.1116
  195DOPC  H11X24187   5.258   6.572   4.463  0.8676  1.4174 -1.7550
  195DOPC  H11Y24188   5.263   6.643   4.625 -1.2830 -3.5957 -0.6909
  195DOPC  C31224189   5.457   6.614   4.515  0.2676  0.0043 -0.2341
  195DOPC  H12X24190   5.511   6.653   4.605 -0.8680  1.2364 -0.0481
  195DOPC  H12Y24191   5.510   6.646   4.423  1.1216  1.5813  0.7478
  195DOPC  C31324192   5.465   6.464   4.524 -0.3113  0.5664 -0.7530
  195DOPC  H13X24193   5.437   6.432   4.627  1.9722  1.4990  0.2350
  195DOPC  H13Y24194   5.403   6.406   4.453  1.3335 -2.6533  0.2636
  195DOPC  C31424195   5.616   6.427   4.518  0.0740 -0.1684 -0.1944
  195DOPC  H14X24196   5.662   6.422   4.416 -0.3579  1.2887 -0.4918
  195DOPC  H14Y24197   5.676   6.499   4.578 -0.3053  0.1938 -0.2477
  195DOPC  C31524198   5.645   6.291   4.589  0.3887 -0.0585 -0.2149
  195DOPC  H15X24199   5.574   6.217   4.547 -1.7468  1.1409  1.0864
  195DOPC  H15Y24200   5.625   6.294   4.698  0.7870 -2.2944 -0.0195
  195DOPC  C31624201   5.792   6.243   4.570  0.6086  0.1341  0.6433
  195DOPC  H16X24202   5.814   6.252   4.462  2.6620  0.6517  1.0575
  195DOPC  H16Y24203   5.853   6.323   4.618  0.4058  0.1799  0.8269
  195DOPC  C31724204   5.830   6.112   4.636  1.2532 -0.4332 -0.1438
  195DOPC  H17X24205   5.938   6.093   4.616  1.5875  1.0580  0.1171
  195DOPC  H17Y24206   5.817   6.114   4.746  0.5188 -3.1639 -0.0991
  195DOPC  C31824207   5.755   5.991   4.581 -0.0574  0.3560  0.5698
  195DOPC  H18X24208   5.650   5.994   4.615 -0.9311 -0.0181 -1.8718
  195DOPC  H18Y24209   5.767   5.998   4.470  1.9542 -0.5688  0.6764
  195DOPC  H18Z24210   5.794   5.894   4.618  0.2034 -0.2408 -1.1529
  196DOPC     N24211   0.673   0.545   2.852 -0.0455  0.2282  0.2364
  196DOPC   C1224212   0.618   0.620   2.971 -0.9910 -0.9466 -0.3615
  196DOPC  H12A24213   0.563   0.705   2.931 -3.0434 -2.1820 -0.3404
  196DOPC  H12B24214   0.706   0.665   3.015 -1.3321  0.0247 -0.6315
  196DOPC   C1324215   0.773   0.442   2.897 -0.1469 -0.3939 -0.2435
  196DOPC  H13A24216   0.719   0.385   2.971  0.0302  1.3146  1.2935
  196DOPC  H13B24217   0.808   0.390   2.810  1.3261 -1.4392  0.9293
  196DOPC  H13C24218   0.859   0.484   2.947 -1.1250  1.5264 -0.0479
  196DOPC   C1424219   0.731   0.640   2.753  0.4213 -0.4833 -0.3823
  196DOPC  H14A24220   0.660   0.718   2.732  0.1893 -0.1268  1.5450
  196DOPC  H14B24221   0.821   0.689   2.787  0.0434  0.7504 -1.0932
  196DOPC  H14C24222   0.768   0.608   2.656  2.3642  0.7911 -0.1266
  196DOPC   C1524223   0.560   0.473   2.792  0.4282 -0.5056  0.7870
  196DOPC  H15A24224   0.519   0.402   2.861  0.1348 -0.3051  0.8222
  196DOPC  H15B24225   0.592   0.407   2.713  2.0173  0.6124  0.4463
  196DOPC  H15C24226   0.481   0.542   2.764  1.6363  1.8175  2.7892
  196DOPC   C1124227   0.535   0.538   3.070  0.1202 -0.4819 -0.3810
  196DOPC  H11A24228   0.485   0.605   3.144 -0.0077 -0.2557 -0.6735
  196DOPC  H11B24229   0.450   0.489   3.018 -0.2860 -1.5695  1.1956
  196DOPC     P24230   0.694   0.453   3.263 -0.3789  0.2200 -0.4986
  196DOPC   O1324231   0.831   0.502   3.233 -0.1339 -0.3700 -0.1817
  196DOPC   O1424232   0.680   0.323   3.332 -0.8143 -0.1007  0.0699
  196DOPC   O1224233   0.613   0.443   3.130  0.4947 -0.6494  0.4892
  196DOPC   O1124234   0.613   0.559   3.346 -0.8942  0.1858 -0.3063
  196DOPC    C124235   0.690   0.657   3.426  0.1302 -0.1191 -0.3448
  196DOPC    HA24236   0.631   0.746   3.455 -0.5447 -0.7517  0.2522
  196DOPC    HB24237   0.777   0.698   3.370  0.7619 -0.3885  0.4251
  196DOPC    C224238   0.745   0.606   3.557  0.2601  0.1724 -0.0968
  196DOPC    HS24239   0.828   0.540   3.522 -1.6115 -1.4372 -1.7591
  196DOPC   O2124240   0.642   0.535   3.623 -0.3048  0.0902 -0.1999
  196DOPC   C2124241   0.679   0.429   3.691 -0.1545 -0.7895  0.1289
  196DOPC   O2224242   0.789   0.386   3.713 -0.0365 -0.4422  0.5264
  196DOPC   C2224243   0.552   0.371   3.752 -0.1972  0.1817  0.4850
  196DOPC   H2R24244   0.504   0.302   3.679  0.0991  1.4478 -0.9481
  196DOPC   H2S24245   0.476   0.450   3.769 -0.5781 -0.0780  0.0245
  196DOPC    C324246   0.802   0.728   3.639  0.3990  0.9278  0.0788
  196DOPC    HX24247   0.720   0.803   3.650  1.4300  2.2909 -1.0546
  196DOPC    HY24248   0.887   0.772   3.583 -0.1993  1.6322 -0.3055
  196DOPC   O3124249   0.833   0.678   3.773 -0.3438  0.0027 -0.0730
  196DOPC   C3124250   0.925   0.745   3.832 -0.1680  0.2993 -0.1990
  196DOPC   O3224251   0.998   0.832   3.782  0.8009  0.5188  0.0545
  196DOPC   C3224252   0.935   0.702   3.976  0.2469 -0.5520 -0.4451
  196DOPC   H2X24253   0.857   0.624   3.993  0.4628 -0.5530  0.5636
  196DOPC   H2Y24254   1.031   0.647   3.986 -0.2891 -1.5866 -0.8152
  196DOPC   C2324255   0.575   0.299   3.889  0.1002 -0.0602 -0.5438
  196DOPC   H3R24256   0.656   0.350   3.946  1.7977 -0.1422 -2.7531
  196DOPC   H3S24257   0.604   0.194   3.868  0.9637 -0.0148  0.3357
  196DOPC   C2424258   0.452   0.303   3.978 -0.4713  0.1746 -0.3443
  196DOPC   H4R24259   0.373   0.244   3.926  1.2323 -2.9525  0.3966
  196DOPC   H4S24260   0.427   0.410   3.992  2.5272  0.7635  1.2516
  196DOPC   C2524261   0.488   0.233   4.109 -0.1873  0.6491 -0.3201
  196DOPC   H5R24262   0.571   0.289   4.158 -0.8575 -1.2858  3.4607
  196DOPC   H5S24263   0.512   0.126   4.090  0.0344  0.7282 -0.4840
  196DOPC   C2624264   0.368   0.238   4.208  0.1126  0.5390  0.2063
  196DOPC   H6R24265   0.282   0.192   4.155  1.4980 -1.2705 -0.5798
  196DOPC   H6S24266   0.347   0.342   4.242  0.2370  0.1636  1.5023
  196DOPC   C2724267   0.391   0.176   4.344  0.1192  0.7736  0.0175
  196DOPC   H7R24268   0.475   0.231   4.392  0.3550 -0.5973  1.2310
  196DOPC   H7S24269   0.426   0.072   4.326  0.6201  0.9333  0.0372
  196DOPC   C2824270   0.268   0.184   4.437 -0.0403  0.4922  0.9240
  196DOPC   H8R24271   0.183   0.131   4.390  1.1287 -1.8141  1.2671
  196DOPC   H8S24272   0.242   0.290   4.458 -0.1402  0.6834 -0.0949
  196DOPC   C2924273   0.295   0.111   4.562 -0.0235 -0.0205  0.6295
  196DOPC   H9R24274   0.338   0.012   4.545 -1.2853 -0.9123  2.3329
  196DOPC  C21024275   0.288   0.144   4.690  0.9795 -0.4276  0.0221
  196DOPC  H10R24276   0.297   0.069   4.770  0.6177 -0.7147 -0.2068
  196DOPC  C21124277   0.246   0.278   4.734  0.8299 -0.6580 -0.2181
  196DOPC  H11R24278   0.224   0.279   4.843 -0.2312  0.5093 -0.4177
  196DOPC  H11S24279   0.151   0.315   4.690  1.4013  0.0822 -0.8606
  196DOPC  C21224280   0.348   0.389   4.712 -0.2339  0.3944  1.2011
  196DOPC  H12R24281   0.377   0.410   4.607  0.0816 -0.5614  1.0930
  196DOPC  H12S24282   0.442   0.351   4.757 -1.6277 -1.0892  3.0094
  196DOPC  C21324283   0.318   0.514   4.792  0.5616  0.6105 -0.2162
  196DOPC  H13R24284   0.314   0.480   4.898  2.9573 -0.9695 -0.5617
  196DOPC  H13S24285   0.223   0.557   4.754 -0.9544 -3.2756 -1.2009
  196DOPC  C21424286   0.430   0.615   4.785 -0.0530  0.7050 -0.4109
  196DOPC  H14R24287   0.446   0.637   4.677 -2.2021 -1.6814 -1.3146
  196DOPC  H14S24288   0.520   0.581   4.840 -0.3732 -0.8562 -0.8232
  196DOPC  C21524289   0.393   0.746   4.854 -0.8986  0.1830 -0.0403
  196DOPC  H15R24290   0.362   0.735   4.960  2.2747  2.6610  1.3139
  196DOPC  H15S24291   0.300   0.786   4.808 -0.7584 -0.7911 -1.2169
  196DOPC  C21624292   0.521   0.839   4.847 -0.5422 -0.0695 -0.3279
  196DOPC  H16R24293   0.603   0.800   4.910  1.7537  1.0246 -2.4643
  196DOPC  H16S24294   0.479   0.939   4.874 -0.4747  0.0601 -0.6875
  196DOPC  C21724295   0.583   0.871   4.705 -0.1616 -0.2632  0.2103
  196DOPC  H17R24296   0.610   0.774   4.658  1.2393  0.3428 -0.3008
  196DOPC  H17S24297   0.666   0.945   4.713 -2.2709  2.1228  1.8031
  196DOPC  C21824298   0.492   0.956   4.617 -0.3167 -0.2124  0.3072
  196DOPC  H18R24299   0.534   0.992   4.521  0.7372 -0.8416  0.5272
  196DOPC  H18S24300   0.453   1.046   4.669 -3.4730  0.0269 -2.1325
  196DOPC  H18T24301   0.398   0.899   4.598  0.5111 -1.8919  1.0706
  196DOPC   C3324302   0.919   0.810   4.091  0.2021  0.5239 -0.1597
  196DOPC   H3X24303   0.821   0.858   4.071 -0.2020 -0.7952 -1.5921
  196DOPC   H3Y24304   0.997   0.882   4.055 -1.1948  1.0611 -2.3236
  196DOPC   C3424305   0.962   0.761   4.235 -0.0567 -1.2764  0.0666
  196DOPC   H4X24306   1.067   0.727   4.224  1.8537  3.4077  1.3290
  196DOPC   H4Y24307   0.891   0.689   4.281  0.9770 -1.5911  1.2136
  196DOPC   C3524308   0.976   0.889   4.329 -0.0316 -1.0083 -0.4094
  196DOPC   H5X24309   0.899   0.970   4.321  0.5328 -0.3977  0.2465
  196DOPC   H5Y24310   1.075   0.932   4.303 -0.8403  0.7975 -0.7099
  196DOPC   C3624311   0.981   0.848   4.481  0.5192 -0.2975  0.5138
  196DOPC   H6X24312   0.883   0.804   4.510  0.6528 -1.4244 -0.6665
  196DOPC   H6Y24313   1.059   0.771   4.495  0.0134 -1.2468 -1.5497
  196DOPC   C3724314   1.007   0.967   4.567  0.3275  0.6344  0.1096
  196DOPC   H7X24315   1.084   1.027   4.512 -0.0880  0.1973 -0.9632
  196DOPC   H7Y24316   0.919   1.034   4.559  2.0401  2.8375 -1.6688
  196DOPC   C3824317   1.051   0.948   4.708 -0.0320  0.3132  0.4840
  196DOPC   H8X24318   1.139   0.882   4.720 -0.4901 -0.5241 -0.5880
  196DOPC   H8Y24319   0.966   0.890   4.752 -0.4145  1.4388  1.2651
  196DOPC   C3924320   1.074   1.082   4.776 -0.4874 -0.0270 -0.6359
  196DOPC   H9X24321   1.180   1.111   4.771 -0.6662  0.6133 -0.7596
  196DOPC  C31024322   0.980   1.156   4.840  0.4910  0.2956  0.1459
  196DOPC  H10X24323   1.009   1.247   4.895 -1.2297  0.1227  1.3994
  196DOPC  C31124324   0.835   1.132   4.885 -1.5140  0.3673  0.4092
  196DOPC  H11X24325   0.797   1.030   4.867 -0.6152  0.0382  0.3258
  196DOPC  H11Y24326   0.771   1.199   4.824  1.1418  1.5930 -1.2165
  196DOPC  C31224327   0.813   1.160   5.030  0.1587  0.0423  0.0182
  196DOPC  H12X24328   0.892   1.121   5.097 -0.9029 -1.2570  0.5623
  196DOPC  H12Y24329   0.731   1.097   5.070 -0.3827  0.8041  0.1320
  196DOPC  C31324330   0.781   1.302   5.064 -0.3958  0.2946 -0.2427
  196DOPC  H13X24331   0.858   1.373   5.028 -0.2334 -0.5518 -1.6247
  196DOPC  H13Y24332   0.690   1.331   5.007 -1.1200  0.3570  0.9126
  196DOPC  C31424333   0.760   1.326   5.217  0.1707  0.2811  0.2610
  196DOPC  H14X24334   0.706   1.247   5.274 -1.3482  1.9382  1.2247
  196DOPC  H14Y24335   0.855   1.340   5.272  0.0307  1.4106  0.2280
  196DOPC  C31524336   0.674   1.451   5.245  0.5869 -0.7144  0.2071
  196DOPC  H15X24337   0.572   1.436   5.204  0.2832  0.4811  0.4754
  196DOPC  H15Y24338   0.736   1.531   5.198  0.4938  0.8874  2.5997
  196DOPC  C31624339   0.652   1.478   5.400 -0.0437  0.7346  0.3712
  196DOPC  H16X24340   0.619   1.380   5.441  0.5250  0.3737 -0.0102
  196DOPC  H16Y24341   0.753   1.486   5.446  0.5135 -0.8339 -0.5000
  196DOPC  C31724342   0.576   1.607   5.424  0.4346  0.1480 -0.0189
  196DOPC  H17X24343   0.633   1.684   5.368 -2.7936  1.6481 -1.5024
  196DOPC  H17Y24344   0.482   1.593   5.367  1.0681  2.2499 -1.7110
  196DOPC  C31824345   0.554   1.644   5.570 -0.2105  0.5081 -0.1250
  196DOPC  H18X24346   0.506   1.557   5.621  2.5550 -1.0485  0.0079
  196DOPC  H18Y24347   0.650   1.662   5.623 -1.4343  3.1615  1.4047
  196DOPC  H18Z24348   0.488   1.733   5.576 -0.2892  0.4005  0.8726
  197DOPC     N24349   1.178   6.191   3.345 -0.1434  0.3151 -0.0068
  197DOPC   C1224350   1.323   6.184   3.322 -0.3508  0.5967 -0.7875
  197DOPC  H12A24351   1.346   6.117   3.240  0.3708 -0.3842  0.1806
  197DOPC  H12B24352   1.367   6.134   3.407 -3.4031 -0.9813 -0.0018
  197DOPC   C1324353   1.143   6.251   3.476 -0.0375 -0.1239  0.0829
  197DOPC  H13A24354   1.041   6.230   3.505 -0.9457  1.1635 -1.8972
  197DOPC  H13B24355   1.213   6.210   3.547  0.8810 -0.8093 -1.1849
  197DOPC  H13C24356   1.156   6.358   3.469  1.1262 -0.2973 -0.6651
  197DOPC   C1424357   1.128   6.048   3.354 -0.6775 -0.2052 -0.5003
  197DOPC  H14A24358   1.022   6.058   3.367 -0.8662  0.6352 -2.3399
  197DOPC  H14B24359   1.141   5.985   3.268  0.4918 -2.0011  0.9141
  197DOPC  H14C24360   1.155   5.999   3.446 -2.1762  0.6742  0.4366
  197DOPC   C1524361   1.112   6.254   3.225 -0.5114 -0.3450 -0.4535
  197DOPC  H15A24362   1.112   6.180   3.146 -1.4933 -0.2384 -0.5657
  197DOPC  H15B24363   1.164   6.347   3.206 -0.7970 -0.3596 -1.3735
  197DOPC  H15C24364   1.007   6.272   3.247 -0.7738 -2.2878  0.0995
  197DOPC   C1124365   1.393   6.318   3.296  0.3180 -0.2453 -0.4519
  197DOPC  H11A24366   1.501   6.302   3.275  0.5891 -0.4437  0.9676
  197DOPC  H11B24367   1.354   6.368   3.205 -1.3853  0.3168  0.5442
  197DOPC     P24368   1.485   6.379   3.523 -0.0645 -0.0623  0.1921
  197DOPC   O1324369   1.528   6.243   3.531 -0.1915 -0.2955  0.1464
  197DOPC   O1424370   1.420   6.427   3.644 -0.0766 -0.3241 -0.1439
  197DOPC   O1224371   1.382   6.405   3.409 -0.3090  0.3447 -0.2003
  197DOPC   O1124372   1.607   6.472   3.490 -0.0120  0.4506 -0.6998
  197DOPC    C124373   1.744   6.426   3.520 -0.3203  0.3378 -0.2956
  197DOPC    HA24374   1.811   6.459   3.438 -0.3873  0.2894 -0.3688
  197DOPC    HB24375   1.756   6.317   3.534 -1.1462  0.2878  0.0814
  197DOPC    C224376   1.794   6.497   3.653 -0.1447  0.1747 -0.3182
  197DOPC    HS24377   1.892   6.462   3.692 -0.6578 -0.0506  0.8066
  197DOPC   O2124378   1.703   6.482   3.761  0.1805 -0.1828  0.6659
  197DOPC   C2124379   1.706   6.358   3.818 -0.3267  0.5067  0.1279
  197DOPC   O2224380   1.770   6.259   3.779  0.3510  0.3845  0.3386
  197DOPC   C2224381   1.600   6.361   3.930  0.8733  0.0079  0.5448
  197DOPC   H2R24382   1.553   6.261   3.935  0.2486  0.2163 -0.7640
  197DOPC   H2S24383   1.527   6.441   3.903  1.7211  0.6123  0.0004
  197DOPC    C324384   1.796   6.653   3.623 -0.3390 -0.0237  0.0627
  197DOPC    HX24385   1.695   6.684   3.589 -1.5724 -0.8581  2.6687
  197DOPC    HY24386   1.852   6.667   3.528 -0.5716  2.6085  0.2382
  197DOPC   O3124387   1.843   6.731   3.732 -0.1219 -0.5202 -0.5744
  197DOPC   C3124388   1.976   6.763   3.748 -0.0472 -0.5765  0.0683
  197DOPC   O3224389   2.064   6.728   3.671 -0.1885  0.7828  0.0273
  197DOPC   C3224390   1.996   6.842   3.883 -0.3547  0.5568  0.4468
  197DOPC   H2X24391   2.009   6.946   3.847 -1.3724  0.1677 -1.2098
  197DOPC   H2Y24392   1.911   6.836   3.954 -2.7563 -1.3804 -2.3518
  197DOPC   C2324393   1.661   6.398   4.070  0.1494  0.4805  0.2309
  197DOPC   H3R24394   1.740   6.323   4.089  0.5325  0.7198 -0.3948
  197DOPC   H3S24395   1.582   6.379   4.146  1.0234  0.0059  1.0384
  197DOPC   C2424396   1.713   6.540   4.088  0.4614 -0.3837 -0.1059
  197DOPC   H4R24397   1.644   6.600   4.026  2.6913  0.4050 -1.9988
  197DOPC   H4S24398   1.813   6.565   4.047 -0.6892  0.7691 -2.3529
  197DOPC   C2524399   1.724   6.581   4.231 -0.2805 -0.9762 -1.1396
  197DOPC   H5R24400   1.624   6.570   4.277 -2.5729  0.0380 -5.3479
  197DOPC   H5S24401   1.727   6.692   4.227  0.0743 -0.9596 -0.5927
  197DOPC   C2624402   1.838   6.520   4.314  0.6788  0.0099  0.2197
  197DOPC   H6R24403   1.938   6.547   4.275 -0.3277  1.4861 -1.5473
  197DOPC   H6S24404   1.830   6.410   4.305 -0.4938  0.1587 -1.0598
  197DOPC   C2724405   1.825   6.559   4.463  0.3480  0.9126 -0.2800
  197DOPC   H7R24406   1.730   6.515   4.502  1.1638  0.1607  0.9199
  197DOPC   H7S24407   1.820   6.668   4.483 -0.0440  0.4754  2.4424
  197DOPC   C2824408   1.940   6.514   4.552 -0.2530 -0.7384 -0.4114
  197DOPC   H8R24409   1.927   6.404   4.550 -0.1488 -0.7445 -1.5215
  197DOPC   H8S24410   1.929   6.545   4.658  2.8857 -1.8067  0.3173
  197DOPC   C2924411   2.084   6.556   4.522  0.9183 -0.5660 -0.0841
  197DOPC   H9R24412   2.100   6.665   4.518 -0.6283 -0.3184 -0.0676
  197DOPC  C21024413   2.184   6.474   4.479  0.2936  0.4223  0.0999
  197DOPC  H10R24414   2.288   6.507   4.464  1.2029 -2.1955  0.1281
  197DOPC  C21124415   2.167   6.326   4.469  0.2193  0.9068 -0.0034
  197DOPC  H11R24416   2.062   6.296   4.453  0.3860  0.2567  0.1259
  197DOPC  H11S24417   2.195   6.278   4.565 -1.1604 -0.9739 -0.4994
  197DOPC  C21224418   2.243   6.280   4.347  0.1526 -0.5351 -0.4258
  197DOPC  H12R24419   2.343   6.326   4.336  0.2175 -0.8433 -1.1483
  197DOPC  H12S24420   2.196   6.337   4.264  1.5041  0.7668 -0.3289
  197DOPC  C21324421   2.270   6.131   4.346  0.6503 -0.2984  0.6962
  197DOPC  H13R24422   2.312   6.101   4.444  0.4054  0.1107  0.9295
  197DOPC  H13S24423   2.347   6.112   4.268 -0.1164  1.7292 -0.6678
  197DOPC  C21424424   2.145   6.051   4.323 -0.2836 -0.2325 -0.2215
  197DOPC  H14R24425   2.089   6.089   4.235  0.8257  2.3088  0.0624
  197DOPC  H14S24426   2.084   6.054   4.416  0.2787 -0.3903  0.1602
  197DOPC  C21524427   2.172   5.904   4.296 -0.1585  0.2316  0.0724
  197DOPC  H15R24428   2.080   5.846   4.316 -0.2279  0.8007  1.5031
  197DOPC  H15S24429   2.249   5.870   4.369  0.5051  0.2417 -0.6090
  197DOPC  C21624430   2.219   5.879   4.153 -0.1136  0.8909 -0.2347
  197DOPC  H16R24431   2.319   5.927   4.161 -0.5444  1.8396 -0.4159
  197DOPC  H16S24432   2.153   5.939   4.086 -0.9497  0.4546  0.1724
  197DOPC  C21724433   2.243   5.735   4.098  0.3518 -0.3038  0.2491
  197DOPC  H17R24434   2.141   5.690   4.098  0.1623  0.0988  1.5842
  197DOPC  H17S24435   2.314   5.677   4.161 -0.3668 -0.9738  0.4696
  197DOPC  C21824436   2.298   5.729   3.957  0.6264 -0.0205  0.3988
  197DOPC  H18R24437   2.308   5.623   3.928  0.6504 -0.7006  2.6801
  197DOPC  H18S24438   2.399   5.775   3.962  0.4711  0.4780 -0.7921
  197DOPC  H18T24439   2.232   5.794   3.895 -0.5113  0.0563  1.6475
  197DOPC   C3324440   2.129   6.812   3.958  0.9978 -0.3740 -0.3292
  197DOPC   H3X24441   2.157   6.905   4.011  2.4123 -0.8186 -0.2628
  197DOPC   H3Y24442   2.204   6.808   3.876  0.4700  1.7465 -1.0032
  197DOPC   C3424443   2.120   6.688   4.050 -0.1316 -0.5177  0.2572
  197DOPC   H4X24444   2.056   6.615   3.997  0.6175 -1.0540  0.0744
  197DOPC   H4Y24445   2.074   6.714   4.148 -1.0604 -1.2259  0.0210
  197DOPC   C3524446   2.253   6.617   4.058 -0.8072  0.1998 -0.0766
  197DOPC   H5X24447   2.295   6.594   3.957  3.0730  2.2668  0.8799
  197DOPC   H5Y24448   2.230   6.517   4.099 -1.0272 -0.1143 -0.9394
  197DOPC   C3624449   2.365   6.679   4.142 -0.2685  0.6793  0.3592
  197DOPC   H6X24450   2.410   6.760   4.080 -0.8350  1.5459  1.0510
  197DOPC   H6Y24451   2.327   6.744   4.224 -0.6078  1.4975 -0.4267
  197DOPC   C3724452   2.485   6.584   4.173 -0.3194  0.1020  0.0347
  197DOPC   H7X24453   2.433   6.497   4.218 -1.6279  1.1642  0.6566
  197DOPC   H7Y24454   2.523   6.555   4.073  0.4448  2.3337 -0.3897
  197DOPC   C3824455   2.597   6.655   4.254 -0.1641 -0.2810  0.5560
  197DOPC   H8X24456   2.635   6.745   4.201 -1.4133  1.5460  2.5926
  197DOPC   H8Y24457   2.679   6.581   4.251  2.0790  2.0684 -1.7237
  197DOPC   C3924458   2.545   6.674   4.397 -0.2200  0.3462  0.0669
  197DOPC   H9X24459   2.474   6.756   4.415  0.2478  0.8151 -0.1747
  197DOPC  C31024460   2.560   6.600   4.510  0.2408  0.5628  0.2253
  197DOPC  H10X24461   2.522   6.632   4.609 -0.2483 -0.3357  0.3359
  197DOPC  C31124462   2.648   6.478   4.527  0.3240 -0.0455 -0.1818
  197DOPC  H11X24463   2.743   6.506   4.577 -0.6350  0.8359  1.2315
  197DOPC  H11Y24464   2.682   6.447   4.425  0.7727  1.5458 -0.5391
  197DOPC  C31224465   2.565   6.373   4.600  0.6341  0.2007  0.3325
  197DOPC  H12X24466   2.476   6.358   4.536  0.6102  0.3876  0.3226
  197DOPC  H12Y24467   2.544   6.408   4.703 -1.2278 -0.2232  0.1189
  197DOPC  C31324468   2.649   6.244   4.619 -0.4213  0.3492  0.0794
  197DOPC  H13X24469   2.734   6.263   4.688 -0.0288 -0.6663 -0.1129
  197DOPC  H13Y24470   2.576   6.185   4.680 -0.6659  1.0254  0.4585
  197DOPC  C31424471   2.703   6.187   4.490  0.1843  0.5048 -0.1711
  197DOPC  H14X24472   2.622   6.176   4.414  0.4036 -0.8653 -0.2339
  197DOPC  H14Y24473   2.781   6.257   4.452  1.1351 -1.6264 -2.4840
  197DOPC  C31524474   2.762   6.045   4.507 -0.6072  0.7758 -0.5392
  197DOPC  H15X24475   2.705   5.981   4.577  0.8890 -1.0154 -0.8848
  197DOPC  H15Y24476   2.864   6.054   4.551 -0.5445 -2.1005  0.1288
  197DOPC  C31624477   2.767   5.957   4.374  0.5318  0.2756  0.0338
  197DOPC  H16X24478   2.830   6.008   4.298 -1.2406  3.5476  0.5852
  197DOPC  H16Y24479   2.811   5.860   4.406 -3.4332 -2.0459 -0.8800
  197DOPC  C31724480   2.625   5.918   4.322  0.2910  0.2613  0.0665
  197DOPC  H17X24481   2.563   5.877   4.404 -1.2342  2.0934 -0.1089
  197DOPC  H17Y24482   2.568   6.004   4.281  0.3808 -0.7042 -2.2542
  197DOPC  C31824483   2.632   5.812   4.208  0.2678  0.1820 -0.2237
  197DOPC  H18X24484   2.676   5.872   4.125 -1.6100  0.7442 -0.8614
  197DOPC  H18Y24485   2.696   5.724   4.228  2.1644  1.3272 -0.9180
  197DOPC  H18Z24486   2.533   5.784   4.167  1.1960 -0.1038 -2.3896
  198DOPC     N24487   0.092   7.056   3.092 -0.0113  0.2432 -0.2079
  198DOPC   C1224488  -0.021   6.952   3.068 -0.7941  0.1139  0.4586
  198DOPC  H12A24489  -0.116   6.998   3.089  0.0399  2.4741 -0.5845
  198DOPC  H12B24490  -0.010   6.872   3.140  0.3780  0.2694  0.4655
  198DOPC   C1324491   0.083   7.171   3.000 -0.1412 -0.7355 -0.3355
  198DOPC  H13A24492   0.094   7.146   2.895  0.9371  2.0594 -0.9929
  198DOPC  H13B24493  -0.010   7.226   3.006 -0.4148 -1.2402  0.0203
  198DOPC  H13C24494   0.146   7.257   3.019  0.0444 -0.5841 -1.5014
  198DOPC   C1424495   0.231   6.997   3.081 -0.0671 -0.1612  0.0939
  198DOPC  H14A24496   0.304   7.060   3.130 -2.9712  2.6235  1.2056
  198DOPC  H14B24497   0.220   6.908   3.142 -2.5762  0.8961  1.3478
  198DOPC  H14C24498   0.259   6.984   2.978 -1.8885 -2.8146 -0.1754
  198DOPC   C1524499   0.075   7.111   3.231 -0.7456 -0.2591 -0.7787
  198DOPC  H15A24500  -0.021   7.162   3.237 -0.1885  0.6609  2.8909
  198DOPC  H15B24501   0.157   7.173   3.264 -0.3054 -0.6939 -1.0560
  198DOPC  H15C24502   0.058   7.037   3.308  0.2135  1.2401  0.9521
  198DOPC   C1124503  -0.027   6.903   2.919  0.0582 -0.4342  0.2538
  198DOPC  H11A24504  -0.064   6.990   2.861  0.9501 -0.5424 -0.5095
  198DOPC  H11B24505   0.076   6.881   2.883  0.3896  1.0023  0.2279
  198DOPC     P24506  -0.261   6.787   2.901  0.4251  0.0424 -0.3640
  198DOPC   O1324507  -0.324   6.669   2.949  0.4177 -0.2526  0.0174
  198DOPC   O1424508  -0.285   6.835   2.766 -0.4649  0.0240  0.2790
  198DOPC   O1224509  -0.105   6.783   2.920  0.2705  0.1186 -0.4614
  198DOPC   O1124510  -0.298   6.904   2.998  0.1191 -0.1157 -0.1821
  198DOPC    C124511  -0.429   6.912   3.057 -1.1554 -0.2929  0.1393
  198DOPC    HA24512  -0.507   6.863   2.996 -2.5150  3.2866 -1.2533
  198DOPC    HB24513  -0.450   7.021   3.057  2.3039  0.4948 -0.1166
  198DOPC    C224514  -0.432   6.862   3.207  0.1387  0.0368  0.5676
  198DOPC    HS24515  -0.356   6.924   3.258 -1.6894  0.7459  2.5640
  198DOPC   O2124516  -0.409   6.723   3.211 -0.0047 -0.7794 -0.2316
  198DOPC   C2124517  -0.337   6.687   3.319 -0.1467 -0.1852  0.1208
  198DOPC   O2224518  -0.290   6.765   3.402  0.2200 -0.1395 -0.2228
  198DOPC   C2224519  -0.324   6.536   3.315 -0.7196  0.1318 -0.0319
  198DOPC   H2R24520  -0.248   6.512   3.238 -0.6571  0.3023 -0.0249
  198DOPC   H2S24521  -0.420   6.488   3.285 -1.2255  0.0037  1.6991
  198DOPC    C324522  -0.569   6.896   3.260  0.6838  0.7445  0.1821
  198DOPC    HX24523  -0.640   6.839   3.197  1.4265 -0.8463  0.7393
  198DOPC    HY24524  -0.594   7.004   3.246 -1.0186  0.1993 -1.2929
  198DOPC   O3124525  -0.581   6.847   3.393 -0.7036 -0.1041  0.3248
  198DOPC   C3124526  -0.512   6.917   3.482 -0.3825 -0.3212 -0.2059
  198DOPC   O3224527  -0.443   7.015   3.458 -0.2702  0.0549  0.4764
  198DOPC   C3224528  -0.531   6.850   3.620 -0.4262 -0.0858 -0.6555
  198DOPC   H2X24529  -0.640   6.843   3.640 -0.2988 -0.5235 -0.0927
  198DOPC   H2Y24530  -0.489   6.748   3.608  2.6175  0.8393  1.0686
  198DOPC   C2324531  -0.270   6.474   3.443  0.0896 -0.1492  0.0111
  198DOPC   H3R24532  -0.166   6.513   3.447 -1.5262  4.9000 -0.4513
  198DOPC   H3S24533  -0.257   6.365   3.424  2.3990  0.0814 -0.1050
  198DOPC   C2424534  -0.338   6.509   3.577 -0.7378  0.4894 -0.0231
  198DOPC   H4R24535  -0.441   6.466   3.579  0.0998 -1.6355  2.1714
  198DOPC   H4S24536  -0.332   6.616   3.605 -0.2237  0.5310 -0.2864
  198DOPC   C2524537  -0.273   6.429   3.696  1.2629 -0.1895 -0.1855
  198DOPC   H5R24538  -0.163   6.430   3.683  1.1536  1.2871 -1.3321
  198DOPC   H5S24539  -0.311   6.326   3.678 -1.0839  0.2695  1.6406
  198DOPC   C2624540  -0.321   6.471   3.834 -0.0334 -0.1137  0.2497
  198DOPC   H6R24541  -0.430   6.483   3.820 -0.3295  1.2906  3.0805
  198DOPC   H6S24542  -0.286   6.574   3.860  1.0195 -0.1756 -0.7980
  198DOPC   C2724543  -0.271   6.384   3.944 -0.1175  0.4901 -0.2064
  198DOPC   H7R24544  -0.161   6.401   3.945  0.0719 -0.7142 -0.1209
  198DOPC   H7S24545  -0.294   6.276   3.938 -0.0344  0.3418  1.6429
  198DOPC   C2824546  -0.309   6.444   4.081  0.0589 -0.9678 -0.2714
  198DOPC   H8R24547  -0.294   6.553   4.063  3.8886 -1.4140 -0.7402
  198DOPC   H8S24548  -0.234   6.413   4.157  1.5451  2.8139  0.0522
  198DOPC   C2924549  -0.448   6.396   4.126  0.0415 -0.2336 -0.1155
  198DOPC   H9R24550  -0.518   6.385   4.041 -0.5690 -3.1350  0.6455
  198DOPC  C21024551  -0.481   6.378   4.257  0.0691  0.2335 -0.1456
  198DOPC  H10R24552  -0.579   6.329   4.270  0.0519 -0.1164 -1.4618
  198DOPC  C21124553  -0.399   6.395   4.378  0.0889 -0.6446 -1.0257
  198DOPC  H11R24554  -0.458   6.429   4.466  1.0271 -2.0903  0.2098
  198DOPC  H11S24555  -0.329   6.479   4.362 -2.7836  2.5323  1.5028
  198DOPC  C21224556  -0.327   6.269   4.422 -0.2511 -1.0730 -0.0953
  198DOPC  H12R24557  -0.294   6.211   4.333  0.9712  1.3283 -1.3047
  198DOPC  H12S24558  -0.391   6.211   4.492  2.9044 -3.3254  1.1670
  198DOPC  C21324559  -0.212   6.315   4.513  0.3065  0.4843  0.1628
  198DOPC  H13R24560  -0.249   6.388   4.588  0.4676  1.3768 -0.6211
  198DOPC  H13S24561  -0.132   6.346   4.443 -0.4514  2.2988  0.0606
  198DOPC  C21424562  -0.139   6.191   4.579  0.2361  0.5049 -0.6627
  198DOPC  H14R24563  -0.032   6.214   4.595  0.4093 -0.2633 -0.6550
  198DOPC  H14S24564  -0.141   6.098   4.519 -0.7930  0.2414 -0.2450
  198DOPC  C21524565  -0.210   6.170   4.717  0.1024  0.1635  0.0997
  198DOPC  H15R24566  -0.308   6.119   4.710 -0.4429  0.9598  1.4419
  198DOPC  H15S24567  -0.221   6.275   4.752 -0.5361  0.1619 -0.0874
  198DOPC  C21624568  -0.125   6.099   4.826 -0.2051 -0.9191 -0.3963
  198DOPC  H16R24569  -0.044   6.165   4.863 -2.9404  1.2191  2.3423
  198DOPC  H16S24570  -0.084   6.003   4.790  0.7863 -1.4151  1.9151
  198DOPC  C21724571  -0.204   6.073   4.954  0.3426  0.0956 -0.2317
  198DOPC  H17R24572  -0.294   6.009   4.942 -0.8603  1.1501  2.3756
  198DOPC  H17S24573  -0.237   6.172   4.990 -1.3839 -0.8363  0.8852
  198DOPC  C21824574  -0.122   5.997   5.061 -0.1483 -0.3725 -0.1433
  198DOPC  H18R24575  -0.030   6.059   5.074 -1.4760  1.6724 -0.0996
  198DOPC  H18S24576  -0.094   5.895   5.028 -2.2352 -0.2883 -2.4310
  198DOPC  H18T24577  -0.175   6.009   5.158 -1.0870  3.3313 -0.9239
  198DOPC   C3324578  -0.456   6.928   3.739  0.3392  0.6422  0.0591
  198DOPC   H3X24579  -0.467   7.038   3.727  2.6330  0.8851 -0.5069
  198DOPC   H3Y24580  -0.346   6.909   3.739  0.0663 -1.4636  2.7610
  198DOPC   C3424581  -0.521   6.887   3.872 -0.0590 -0.4298 -0.3185
  198DOPC   H4X24582  -0.499   6.781   3.897  1.7234  0.1339  0.6867
  198DOPC   H4Y24583  -0.631   6.891   3.860  0.0717  0.1971 -1.4160
  198DOPC   C3524584  -0.480   6.984   3.987 -0.3884 -0.6766 -0.1461
  198DOPC   H5X24585  -0.522   7.086   3.971  0.6600 -0.3600 -0.9870
  198DOPC   H5Y24586  -0.370   6.997   3.994 -0.4199  1.2118 -2.0848
  198DOPC   C3624587  -0.542   6.944   4.122 -0.2790 -0.9351  0.4212
  198DOPC   H6X24588  -0.497   7.016   4.194  4.1988 -2.7040 -0.2915
  198DOPC   H6Y24589  -0.649   6.963   4.143 -1.2771 -3.8866 -1.4349
  198DOPC   C3724590  -0.506   6.800   4.171 -0.6916 -0.2784 -0.5076
  198DOPC   H7X24591  -0.523   6.723   4.093 -2.4502  1.2354 -1.7062
  198DOPC   H7Y24592  -0.400   6.786   4.202 -1.3575 -1.4321  1.4747
  198DOPC   C3824593  -0.590   6.763   4.303  0.2613 -0.4160 -0.0131
  198DOPC   H8X24594  -0.595   6.652   4.309  5.1731 -0.9160 -1.0677
  198DOPC   H8Y24595  -0.698   6.790   4.303  0.6665  1.3737 -0.0520
  198DOPC   C3924596  -0.523   6.811   4.431 -0.0422  0.8144 -0.0538
  198DOPC   H9X24597  -0.422   6.768   4.441  0.0107  1.0029  0.2264
  198DOPC  C31024598  -0.572   6.896   4.524 -0.0821 -0.4633 -0.3778
  198DOPC  H10X24599  -0.513   6.942   4.605 -0.9232  2.6578 -1.3999
  198DOPC  C31124600  -0.705   6.951   4.525  0.5861  0.3036  0.2333
  198DOPC  H11X24601  -0.742   6.950   4.420  3.8313  0.0170 -1.0353
  198DOPC  H11Y24602  -0.710   7.053   4.567 -0.6921  0.4638 -0.2572
  198DOPC  C31224603  -0.792   6.856   4.612  0.0569 -0.2623  0.1062
  198DOPC  H12X24604  -0.753   6.847   4.716 -2.7354  0.7167  1.3585
  198DOPC  H12Y24605  -0.793   6.756   4.566  1.4858  0.0666 -0.6771
  198DOPC  C31324606  -0.935   6.915   4.637 -0.1244 -0.0461 -0.4862
  198DOPC  H13X24607  -0.914   7.006   4.697  1.3408 -1.7551  1.7997
  198DOPC  H13Y24608  -0.982   6.951   4.543 -0.8773  1.7301  0.5243
  198DOPC  C31424609  -1.028   6.824   4.713  0.0090 -0.5569 -0.9730
  198DOPC  H14X24610  -0.964   6.763   4.781  0.3909  0.1134 -0.7149
  198DOPC  H14Y24611  -1.087   6.894   4.776 -0.3896  0.0998 -2.0447
  198DOPC  C31524612  -1.123   6.745   4.614  0.1222  0.3986 -0.2745
  198DOPC  H15X24613  -1.060   6.672   4.559 -2.1852 -1.4250 -0.6521
  198DOPC  H15Y24614  -1.171   6.816   4.544 -1.9854  0.6397  1.3015
  198DOPC  C31624615  -1.237   6.677   4.688  0.7551 -0.3629  0.2962
  198DOPC  H16X24616  -1.264   6.590   4.624 -1.8946 -0.6220  1.6040
  198DOPC  H16Y24617  -1.201   6.627   4.781 -0.6504 -3.0635 -0.4932
  198DOPC  C31724618  -1.353   6.778   4.704  0.7276  0.2273  0.1219
  198DOPC  H17X24619  -1.331   6.861   4.775  0.5095  0.4070 -0.0184
  198DOPC  H17Y24620  -1.378   6.817   4.603  0.3732  1.3251  0.6136
  198DOPC  C31824621  -1.477   6.711   4.764  0.7504 -0.8233  0.5514
  198DOPC  H18X24622  -1.568   6.771   4.742  1.7934  0.7172  0.2981
  198DOPC  H18Y24623  -1.501   6.610   4.723  0.4779  0.2707 -2.2079
  198DOPC  H18Z24624  -1.468   6.695   4.873  0.4967 -0.6287  0.6017
  199DOPC     N24625   5.805   7.134   2.323 -0.2573  0.6515 -0.3275
  199DOPC   C1224626   5.906   7.140   2.433 -0.8169 -0.5922  0.2264
  199DOPC  H12A24627   5.975   7.059   2.412 -1.5073 -1.3137  0.7360
  199DOPC  H12B24628   5.859   7.127   2.529  0.8524 -0.2293  1.1387
  199DOPC   C1324629   5.730   7.000   2.324  0.1034  0.8152  0.1743
  199DOPC  H13A24630   5.796   6.915   2.322 -0.0618  0.6475  1.1635
  199DOPC  H13B24631   5.661   6.986   2.406 -1.2969 -1.5194 -1.2764
  199DOPC  H13C24632   5.674   6.991   2.232  1.6474 -0.8487 -0.6526
  199DOPC   C1424633   5.861   7.156   2.186  1.3179  0.6942  0.3096
  199DOPC  H14A24634   5.776   7.157   2.119  1.9147  0.8505 -0.4494
  199DOPC  H14B24635   5.911   7.247   2.158 -2.0740  1.6079 -3.8270
  199DOPC  H14C24636   5.923   7.071   2.165  1.6521  0.4635  2.0576
  199DOPC   C1524637   5.703   7.237   2.347  0.3798  0.4539 -0.6324
  199DOPC  H15A24638   5.644   7.213   2.435 -0.3724  1.5771 -0.8099
  199DOPC  H15B24639   5.630   7.245   2.269 -1.0379 -0.8307  0.4990
  199DOPC  H15C24640   5.757   7.330   2.355 -1.4239  1.4160  1.3491
  199DOPC   C1124641   5.970   7.279   2.464 -0.0669 -0.4258 -0.2809
  199DOPC  H11A24642   6.052   7.269   2.538  1.9216  0.1659 -2.2760
  199DOPC  H11B24643   6.032   7.318   2.380  0.5123 -0.1123  0.2818
  199DOPC     P24644   5.823   7.365   2.654  0.1244  0.0126  0.2295
  199DOPC   O1324645   5.795   7.222   2.690 -0.5771  0.0027  0.2850
  199DOPC   O1424646   5.709   7.453   2.672  0.3986 -0.1417  0.1126
  199DOPC   O1224647   5.883   7.380   2.512 -0.2596  0.2903  0.0571
  199DOPC   O1124648   5.952   7.402   2.740  0.2378 -0.5049  0.1261
  199DOPC    C124649   5.989   7.531   2.791 -0.1374 -0.0875 -0.3128
  199DOPC    HA24650   5.909   7.607   2.777  0.6273  0.7008 -0.4748
  199DOPC    HB24651   6.078   7.571   2.739  1.4000 -1.4711  1.1093
  199DOPC    C224652   6.026   7.536   2.947  1.2155 -0.2107  0.4795
  199DOPC    HS24653   6.014   7.640   2.987  0.0186 -0.5034  0.9347
  199DOPC   O2124654   6.150   7.479   2.968 -0.0068 -0.3425  0.0409
  199DOPC   C2124655   6.218   7.542   3.064 -0.0433 -0.1756  0.0157
  199DOPC   O2224656   6.188   7.642   3.127  0.0452 -0.2732  0.3761
  199DOPC   C2224657   6.344   7.458   3.097 -0.3908 -0.1775  0.7144
  199DOPC   H2R24658   6.388   7.433   2.998  0.4500  0.7654  0.8351
  199DOPC   H2S24659   6.308   7.365   3.146 -1.7003  1.1377  2.4226
  199DOPC    C324660   5.914   7.452   3.022  0.3802  0.0309  0.0011
  199DOPC    HX24661   5.923   7.344   2.998 -1.0413  0.2071 -1.5089
  199DOPC    HY24662   5.818   7.476   2.973  0.1405 -1.4916 -0.3222
  199DOPC   O3124663   5.912   7.485   3.160  1.0278  0.4464  0.7268
  199DOPC   C3124664   5.969   7.403   3.242 -0.2305  0.7459  0.5053
  199DOPC   O3224665   6.024   7.295   3.216  0.2308  0.0618 -0.0002
  199DOPC   C3224666   5.941   7.454   3.388 -0.2003 -0.0249 -0.1254
  199DOPC   H2X24667   5.952   7.565   3.391 -0.6694  0.0129  0.7855
  199DOPC   H2Y24668   5.833   7.428   3.398 -0.0333 -1.5306 -1.8981
  199DOPC   C2324669   6.442   7.527   3.198  0.0524  0.3052 -0.7187
  199DOPC   H3R24670   6.482   7.626   3.166  0.1249  0.5988  0.2360
  199DOPC   H3S24671   6.533   7.463   3.202 -0.3417 -0.2239  0.3239
  199DOPC   C2424672   6.381   7.538   3.342 -0.7587  0.1817  1.2672
  199DOPC   H4R24673   6.313   7.451   3.355  2.1472 -2.1633  1.7605
  199DOPC   H4S24674   6.330   7.637   3.340 -0.7294  0.2584  2.9859
  199DOPC   C2524675   6.483   7.549   3.455 -0.4417  0.3475  0.5148
  199DOPC   H5R24676   6.515   7.655   3.456  1.3478 -0.0880 -1.9690
  199DOPC   H5S24677   6.573   7.487   3.434 -0.8919  0.1146 -0.8298
  199DOPC   C2624678   6.442   7.517   3.603  0.3126  1.0705 -0.5569
  199DOPC   H6R24679   6.405   7.412   3.607 -2.0471  1.8577  1.7937
  199DOPC   H6S24680   6.354   7.581   3.629 -0.7142 -0.0645 -1.1277
  199DOPC   C2724681   6.553   7.539   3.709  0.2407 -0.0505  0.4895
  199DOPC   H7R24682   6.589   7.643   3.702 -0.6308  0.1680 -1.3896
  199DOPC   H7S24683   6.636   7.471   3.680  0.6119  0.9849 -0.9720
  199DOPC   C2824684   6.505   7.498   3.843 -0.4982  0.0908 -0.3309
  199DOPC   H8R24685   6.470   7.393   3.853 -1.9983  0.6553  0.5996
  199DOPC   H8S24686   6.418   7.556   3.882 -1.2544 -0.9813 -0.3849
  199DOPC   C2924687   6.630   7.514   3.931  0.0287 -0.1359  0.3719
  199DOPC   H9R24688   6.643   7.614   3.975 -1.5105  0.7522 -1.0855
  199DOPC  C21024689   6.729   7.425   3.952  0.3665  0.3615 -0.8392
  199DOPC  H10R24690   6.817   7.446   4.015 -0.2277 -3.2031  1.4515
  199DOPC  C21124691   6.718   7.283   3.899  0.1551 -0.2888  0.4777
  199DOPC  H11R24692   6.808   7.260   3.839 -1.4768 -2.0627 -1.4144
  199DOPC  H11S24693   6.628   7.260   3.840  0.6496 -0.6922 -0.1308
  199DOPC  C21224694   6.723   7.178   4.011  0.0459  0.0011 -0.2874
  199DOPC  H12R24695   6.645   7.194   4.089 -0.3089 -0.2824 -0.5828
  199DOPC  H12S24696   6.823   7.184   4.060  0.1884 -1.3101 -0.4003
  199DOPC  C21324697   6.703   7.034   3.961  0.1462  0.4915 -1.2165
  199DOPC  H13R24698   6.788   7.003   3.896  2.0139 -2.4463  2.2245
  199DOPC  H13S24699   6.613   7.030   3.896  0.9870 -3.1388 -2.3702
  199DOPC  C21424700   6.692   6.931   4.068 -0.4589 -0.0602  0.5354
  199DOPC  H14R24701   6.600   6.958   4.122 -1.2232 -0.6066 -0.4551
  199DOPC  H14S24702   6.775   6.943   4.141 -0.1713  1.2204  0.0251
  199DOPC  C21524703   6.696   6.793   4.015  0.1390 -0.2387  0.0453
  199DOPC  H15R24704   6.610   6.784   3.944  0.5573  2.7366 -0.9469
  199DOPC  H15S24705   6.678   6.712   4.089  2.5337 -0.9753 -0.0992
  199DOPC  C21624706   6.827   6.743   3.943  0.6799 -0.1590 -0.6315
  199DOPC  H16R24707   6.913   6.776   4.005 -0.2439 -0.1354  0.6944
  199DOPC  H16S24708   6.826   6.801   3.849 -2.0939 -1.4552 -1.4949
  199DOPC  C21724709   6.823   6.592   3.911  0.1250  0.5972 -0.4567
  199DOPC  H17R24710   6.732   6.563   3.856  0.6109 -0.7414 -0.5793
  199DOPC  H17S24711   6.824   6.526   4.000  2.4897 -0.7870 -1.4075
  199DOPC  C21824712   6.936   6.551   3.822 -1.0844  0.0169  0.0483
  199DOPC  H18R24713   6.957   6.443   3.834 -1.1739  0.0842  0.8575
  199DOPC  H18S24714   7.024   6.610   3.856 -0.6182 -0.5058 -0.2347
  199DOPC  H18T24715   6.914   6.576   3.716 -0.4288 -1.0626 -0.3611
  199DOPC   C3324716   6.010   7.373   3.503 -0.3395 -0.0174  0.9251
  199DOPC   H3X24717   6.121   7.377   3.491  0.2666 -0.2608  4.9669
  199DOPC   H3Y24718   5.990   7.265   3.489 -1.6919  0.3913 -0.5716
  199DOPC   C3424719   5.967   7.426   3.641  0.2503  0.3706 -0.5340
  199DOPC   H4X24720   5.876   7.381   3.685  1.2523 -2.6096 -1.3149
  199DOPC   H4Y24721   5.951   7.534   3.619 -1.1393  0.2333 -0.2699
  199DOPC   C3524722   6.080   7.417   3.748 -0.0633 -0.2587 -0.2278
  199DOPC   H5X24723   6.167   7.474   3.710  1.5106 -2.0620  0.5068
  199DOPC   H5Y24724   6.126   7.317   3.762  2.2256  0.9830  2.1164
  199DOPC   C3624725   6.035   7.471   3.879 -0.2742  0.5677 -0.6520
  199DOPC   H6X24726   6.020   7.581   3.876 -0.2137  0.5680 -0.9587
  199DOPC   H6Y24727   5.942   7.420   3.914  0.8826 -1.1104  0.1156
  199DOPC   C3724728   6.139   7.459   3.996  0.3399 -0.0688  0.5047
  199DOPC   H7X24729   6.238   7.501   3.966 -1.3885  3.2426 -1.1142
  199DOPC   H7Y24730   6.109   7.520   4.084  1.9910  0.0251  1.0328
  199DOPC   C3824731   6.171   7.319   4.051 -0.0575  0.6309  0.4034
  199DOPC   H8X24732   6.249   7.319   4.130  0.8310 -0.2137 -0.4366
  199DOPC   H8Y24733   6.210   7.271   3.958  0.1081 -0.1872  0.8870
  199DOPC   C3924734   6.047   7.254   4.102  0.3790  0.4675 -0.2577
  199DOPC   H9X24735   5.970   7.232   4.027 -0.9500  0.1081  1.1567
  199DOPC  C31024736   6.002   7.252   4.228  0.3314 -0.0710 -0.2762
  199DOPC  H10X24737   5.904   7.209   4.252 -0.1846  1.7019  1.0059
  199DOPC  C31124738   6.075   7.290   4.349 -0.1656  0.2486  0.1660
  199DOPC  H11X24739   6.084   7.400   4.353  0.4802  0.5141 -4.1653
  199DOPC  H11Y24740   6.180   7.253   4.347 -0.0776  0.0098  3.4967
  199DOPC  C31224741   6.007   7.235   4.480 -0.4728  0.0769 -0.2143
  199DOPC  H12X24742   5.896   7.236   4.467 -0.4354 -0.2384 -0.5628
  199DOPC  H12Y24743   6.043   7.288   4.570 -1.0008 -1.4445  0.9454
  199DOPC  C31324744   6.038   7.091   4.510  0.3288 -0.1229  0.7554
  199DOPC  H13X24745   6.001   7.029   4.425 -2.8416 -1.3909  2.8530
  199DOPC  H13Y24746   6.146   7.068   4.503  0.1812 -0.7196  0.3491
  199DOPC  C31424747   5.975   7.048   4.640 -0.4256  0.5551  0.1266
  199DOPC  H14X24748   5.877   7.100   4.649 -0.6090  1.2472 -3.7882
  199DOPC  H14Y24749   5.966   6.937   4.638  0.1044  0.4867 -2.2678
  199DOPC  C31524750   6.058   7.089   4.762 -0.3362 -1.0214 -0.0700
  199DOPC  H15X24751   6.091   7.195   4.760 -1.3503 -0.7008 -0.3101
  199DOPC  H15Y24752   6.153   7.031   4.774  0.0745 -0.1582  1.0612
  199DOPC  C31624753   5.971   7.051   4.883  0.7595 -0.0287 -0.4490
  199DOPC  H16X24754   5.881   7.115   4.871  0.8860  0.2800  0.1904
  199DOPC  H16Y24755   5.940   6.945   4.869  0.7167 -0.1127  0.2293
  199DOPC  C31724756   6.035   7.068   5.026 -0.1915 -0.8341  0.1591
  199DOPC  H17X24757   6.037   7.175   5.057  1.7606 -1.3801  2.1769
  199DOPC  H17Y24758   5.968   7.012   5.094 -0.6603 -0.4523  0.0235
  199DOPC  C31824759   6.175   7.026   5.031 -0.1896 -0.2956 -0.2294
  199DOPC  H18X24760   6.217   7.041   5.133  0.6753 -0.9431 -0.4732
  199DOPC  H18Y24761   6.178   6.918   5.009 -0.0978 -0.6802  1.5249
  199DOPC  H18Z24762   6.244   7.077   4.960 -0.7992 -0.2252 -0.7785
  200DOPC     N24763   1.771   0.036   3.345  0.1613 -0.2597  0.0250
  200DOPC   C1224764   1.661   0.027   3.246  0.2081 -0.5116  0.0186
  200DOPC  H12A24765   1.584  -0.027   3.299 -2.1143  1.0185 -1.5849
  200DOPC  H12B24766   1.685  -0.038   3.162 -1.0038  0.0129 -0.7643
  200DOPC   C1324767   1.840  -0.098   3.364  0.5596  0.5695  0.4174
  200DOPC  H13A24768   1.922  -0.079   3.432 -1.3057  0.2719  2.9104
  200DOPC  H13B24769   1.773  -0.166   3.416  2.1023 -0.3026  1.3625
  200DOPC  H13C24770   1.878  -0.136   3.271  0.3641 -1.4585  1.1212
  200DOPC   C1424771   1.720   0.088   3.476 -0.7606  0.5724  0.4377
  200DOPC  H14A24772   1.670   0.182   3.460 -1.8177  0.0093  0.3046
  200DOPC  H14B24773   1.646   0.018   3.513 -2.7790  2.3452 -0.0373
  200DOPC  H14C24774   1.803   0.099   3.545  0.0045 -0.1058 -0.3483
  200DOPC   C1524775   1.871   0.130   3.296  0.4348  0.2110 -0.2012
  200DOPC  H15A24776   1.942   0.157   3.373  0.1303  1.7076 -0.4340
  200DOPC  H15B24777   1.824   0.215   3.251 -1.9494 -1.4909 -1.1159
  200DOPC  H15C24778   1.931   0.095   3.213  1.2992 -0.1067  0.5374
  200DOPC   C1124779   1.590   0.158   3.196 -0.5964 -0.1817 -0.1897
  200DOPC  H11A24780   1.665   0.217   3.140 -0.3732 -0.7893 -0.5357
  200DOPC  H11B24781   1.518   0.135   3.115  0.4341 -2.6357 -0.4925
  200DOPC     P24782   1.552   0.392   3.316  0.4247 -0.2749  0.1104
  200DOPC   O1324783   1.459   0.467   3.229  0.6014  0.0062 -0.2485
  200DOPC   O1424784   1.695   0.424   3.319  0.7239  0.7316  0.1697
  200DOPC   O1224785   1.529   0.233   3.307  0.0519 -0.2632 -0.5409
  200DOPC   O1124786   1.508   0.398   3.466 -0.9446 -0.5326 -0.9174
  200DOPC    C124787   1.371   0.385   3.510  0.0064 -0.1647 -0.0186
  200DOPC    HA24788   1.361   0.344   3.613  0.3549  0.4596  0.2661
  200DOPC    HB24789   1.320   0.314   3.441  0.0631 -0.1822 -0.0433
  200DOPC    C224790   1.306   0.528   3.519 -0.1014 -0.3409  0.1209
  200DOPC    HS24791   1.318   0.563   3.414  1.1015  1.7480  0.9000
  200DOPC   O2124792   1.381   0.605   3.614 -0.2440 -0.1280  0.4995
  200DOPC   C2124793   1.363   0.738   3.614  0.5040  0.9379  0.0481
  200DOPC   O2224794   1.302   0.793   3.528  0.4341  0.2195  0.5596
  200DOPC   C2224795   1.438   0.809   3.729 -0.6574 -0.1673  0.4441
  200DOPC   H2R24796   1.544   0.788   3.703 -0.2603  0.5666  1.4309
  200DOPC   H2S24797   1.411   0.748   3.818 -1.9606 -2.3423 -1.3384
  200DOPC    C324798   1.160   0.521   3.563  0.1197 -0.5672 -0.5856
  200DOPC    HX24799   1.093   0.501   3.476 -1.1624  1.0763 -0.0226
  200DOPC    HY24800   1.120   0.618   3.601 -0.7580 -0.8869 -0.6620
  200DOPC   O3124801   1.148   0.414   3.654  0.0545 -0.1388  0.0535
  200DOPC   C3124802   1.157   0.451   3.782 -0.3792  0.2699  0.4806
  200DOPC   O3224803   1.178   0.563   3.826  0.1693 -0.2673  0.3748
  200DOPC   C3224804   1.152   0.326   3.868  0.5340  0.4147  0.4169
  200DOPC   H2X24805   1.144   0.240   3.798 -1.2518  1.2786 -0.5154
  200DOPC   H2Y24806   1.248   0.314   3.922  1.7170  2.6141 -1.0681
  200DOPC   C2324807   1.406   0.956   3.765 -0.5957 -0.3748 -0.7572
  200DOPC   H3R24808   1.300   0.970   3.794 -0.3288  2.7120 -0.9292
  200DOPC   H3S24809   1.417   1.031   3.684  0.8413  0.2704  0.0054
  200DOPC   C2424810   1.479   1.010   3.887  0.6654  0.1299  1.0918
  200DOPC   H4R24811   1.585   0.976   3.890  0.5251 -0.5857 -0.6785
  200DOPC   H4S24812   1.440   0.957   3.977 -0.7694 -2.0519 -0.7316
  200DOPC   C2524813   1.468   1.163   3.904  0.2371  0.0839 -0.0347
  200DOPC   H5R24814   1.485   1.218   3.809  1.0291  1.9901  1.1545
  200DOPC   H5S24815   1.533   1.195   3.987 -0.1872 -1.7731  1.0636
  200DOPC   C2624816   1.320   1.207   3.945  0.1583  0.3721 -0.2320
  200DOPC   H6R24817   1.247   1.185   3.865  0.2023 -0.9701  0.0644
  200DOPC   H6S24818   1.315   1.314   3.973 -2.4951  0.2015  0.2081
  200DOPC   C2724819   1.247   1.141   4.068  0.5351  0.5584  0.4429
  200DOPC   H7R24820   1.327   1.136   4.145  0.3363 -0.8213  0.5883
  200DOPC   H7S24821   1.213   1.037   4.050 -0.0208  0.7868  0.1553
  200DOPC   C2824822   1.127   1.215   4.128  0.3006 -0.2759  0.3665
  200DOPC   H8R24823   1.156   1.318   4.158 -0.8763  0.4396 -0.8195
  200DOPC   H8S24824   1.081   1.167   4.216 -2.1140  1.6194  0.2435
  200DOPC   C2924825   1.028   1.230   4.014  0.1841  0.2995  0.0999
  200DOPC   H9R24826   1.065   1.273   3.920  3.2419  0.0077  1.0702
  200DOPC  C21024827   0.894   1.223   4.034  0.5736 -0.0682  0.2514
  200DOPC  H10R24828   0.828   1.254   3.951 -0.1500  0.1486  0.8939
  200DOPC  C21124829   0.822   1.181   4.163 -0.2480  0.1468  0.9533
  200DOPC  H11R24830   0.898   1.149   4.238  1.6246  2.8026  0.3259
  200DOPC  H11S24831   0.747   1.105   4.135 -0.0454  0.4753 -0.5767
  200DOPC  C21224832   0.736   1.296   4.220 -0.3162  0.2388  0.1980
  200DOPC  H12R24833   0.675   1.343   4.140 -0.2390 -0.1381 -0.0847
  200DOPC  H12S24834   0.807   1.376   4.251  1.3915 -0.9201 -0.5994
  200DOPC  C21324835   0.645   1.255   4.335  0.4269  0.4173 -0.1517
  200DOPC  H13R24836   0.705   1.173   4.381 -1.1563 -1.2184 -0.8687
  200DOPC  H13S24837   0.567   1.204   4.274 -0.5874  2.7198 -0.8757
  200DOPC  C21424838   0.595   1.361   4.428  0.1318  0.1170  0.1082
  200DOPC  H14R24839   0.526   1.431   4.377  0.9740 -0.0892 -1.3953
  200DOPC  H14S24840   0.687   1.413   4.463  0.3344  1.8422 -2.6950
  200DOPC  C21524841   0.515   1.293   4.541  0.4214 -0.2370 -0.7256
  200DOPC  H15R24842   0.580   1.225   4.601  1.8575  1.4594 -0.2460
  200DOPC  H15S24843   0.434   1.229   4.502  1.3920 -2.9277  1.3497
  200DOPC  C21624844   0.444   1.394   4.643 -0.4916 -0.3475  0.6451
  200DOPC  H16R24845   0.344   1.428   4.608  0.1377  0.3675 -0.4874
  200DOPC  H16S24846   0.506   1.485   4.651 -0.2613 -0.4578  0.1336
  200DOPC  C21724847   0.431   1.325   4.782 -0.8000 -0.0345 -0.1332
  200DOPC  H17R24848   0.530   1.285   4.812  0.0751  1.7485 -0.4942
  200DOPC  H17S24849   0.362   1.238   4.782  0.3206 -0.9509 -0.8218
  200DOPC  C21824850   0.385   1.425   4.889  0.3645 -0.2046 -0.6412
  200DOPC  H18R24851   0.440   1.520   4.870 -0.9571  0.0983 -3.5793
  200DOPC  H18S24852   0.412   1.386   4.989  2.2677  0.6556 -0.7675
  200DOPC  H18T24853   0.281   1.462   4.876  0.0867 -0.2016  1.3513
  200DOPC   C3324854   1.030   0.319   3.964  0.3290 -0.9321 -0.4963
  200DOPC   H3X24855   0.934   0.340   3.912  0.4374  0.7381 -0.0549
  200DOPC   H3Y24856   1.048   0.394   4.044  1.0810 -1.3094 -0.2979
  200DOPC   C3424857   1.004   0.181   4.029  0.2026  0.4057  0.0199
  200DOPC   H4X24858   1.073   0.144   4.108 -0.3160  0.6388  0.5989
  200DOPC   H4Y24859   1.029   0.112   3.946  2.2460  1.3494 -0.1951
  200DOPC   C3524860   0.857   0.173   4.074 -0.4510 -0.2661  0.5735
  200DOPC   H5X24861   0.791   0.210   3.993 -0.3899 -0.1888  0.5588
  200DOPC   H5Y24862   0.832   0.242   4.158 -0.7198  0.8675 -0.3998
  200DOPC   C3624863   0.809   0.037   4.111 -0.1099 -0.4042  0.8020
  200DOPC   H6X24864   0.700   0.026   4.096 -0.1503  1.4404 -0.5104
  200DOPC   H6Y24865   0.845  -0.033   4.032  0.9421  1.7611 -0.7218
  200DOPC   C3724866   0.859  -0.008   4.250  0.1375 -0.2184 -0.2331
  200DOPC   H7X24867   0.871  -0.116   4.225  0.1004  0.3778 -3.1854
  200DOPC   H7Y24868   0.957   0.042   4.266  0.5590 -1.1031  0.0240
  200DOPC   C3824869   0.762   0.029   4.363  0.8925 -0.1985  0.0615
  200DOPC   H8X24870   0.661  -0.005   4.333  1.7414 -1.2324 -1.8013
  200DOPC   H8Y24871   0.764   0.140   4.361 -0.2433 -0.1540  0.5827
  200DOPC   C3924872   0.806  -0.019   4.499  0.1989 -0.8575  0.2822
  200DOPC   H9X24873   0.906   0.020   4.522 -1.5453  3.6734  1.2388
  200DOPC  C31024874   0.745  -0.106   4.578 -0.4914 -0.3943  0.9769
  200DOPC  H10X24875   0.804  -0.160   4.654  1.4022  0.6486  0.3379
  200DOPC  C31124876   0.608  -0.170   4.548  0.3488  0.8128  0.1531
  200DOPC  H11X24877   0.605  -0.209   4.444  2.6371  0.1310  0.2865
  200DOPC  H11Y24878   0.540  -0.082   4.548  1.7569  1.9442 -0.2487
  200DOPC  C31224879   0.555  -0.279   4.643 -0.3685  0.2555 -1.3682
  200DOPC  H12X24880   0.622  -0.367   4.629  0.9839  1.1449 -0.6246
  200DOPC  H12Y24881   0.454  -0.312   4.612  0.2621 -2.0180 -1.1849
  200DOPC  C31324882   0.536  -0.227   4.790 -0.5790 -0.1721 -0.7578
  200DOPC  H13X24883   0.633  -0.179   4.817 -1.8520  1.7057  0.6906
  200DOPC  H13Y24884   0.469  -0.139   4.796 -1.4413 -0.6790 -2.1729
  200DOPC  C31424885   0.501  -0.330   4.894 -0.1880 -0.4320  0.5408
  200DOPC  H14X24886   0.406  -0.371   4.853  0.1449 -0.2169 -0.4802
  200DOPC  H14Y24887   0.578  -0.411   4.890 -0.8088 -0.9855 -1.6099
  200DOPC  C31524888   0.469  -0.266   5.026  0.2524  0.6127 -0.4224
  200DOPC  H15X24889   0.374  -0.209   5.025 -0.3797 -0.4050 -2.1071
  200DOPC  H15Y24890   0.561  -0.205   5.044 -0.1553  1.3105 -0.6503
  200DOPC  C31624891   0.445  -0.367   5.139  0.5463 -0.1075 -0.0938
  200DOPC  H16X24892   0.350  -0.425   5.130  1.0732 -1.5129  2.2951
  200DOPC  H16Y24893   0.519  -0.450   5.126  0.4192 -0.3622  0.7569
  200DOPC  C31724894   0.466  -0.298   5.277  0.4098 -0.1937 -0.4569
  200DOPC  H17X24895   0.563  -0.244   5.278 -2.0781  4.8191 -0.2952
  200DOPC  H17Y24896   0.389  -0.218   5.281  0.6791  0.0501 -0.0901
  200DOPC  C31824897   0.453  -0.385   5.407 -0.1312 -0.2173 -0.3019
  200DOPC  H18X24898   0.471  -0.330   5.501  1.3553  0.5156 -0.9941
  200DOPC  H18Y24899   0.347  -0.419   5.406  0.0058 -0.7313  1.0719
  200DOPC  H18Z24900   0.507  -0.482   5.406 -1.1593 -0.8922  1.9453
  201SOD    SOD24901   6.502   1.012   7.808  0.5639 -0.1386  0.0716
  202SOD    SOD24902   6.392   5.238   1.830  0.1944 -0.2625  0.4319
  203SOD    SOD24903   0.185   3.794   7.296 -0.0254 -0.1663 -0.1280
  204SOD    SOD24904   4.719   6.693   1.853 -0.1759  0.1631  0.1134
  205SOD    SOD24905   6.679   6.145   7.391 -0.0947 -0.6780 -0.1895
  206SOD    SOD24906   2.232   0.593   2.667  0.0287 -0.3351 -0.5435
  207SOD    SOD24907   7.044   3.329   1.813  0.3846  0.0576 -0.3535
  208SOD    SOD24908   3.907   1.682   7.501  0.1680 -0.0144  0.4633
  209SOD    SOD24909   2.673   3.784   1.892 -0.1874 -0.3497 -0.2301
  210SOD    SOD24910   2.502   6.056   8.518  0.1205  0.4490  0.2540
  211SOD    SOD24911   5.926   4.718   8.133 -0.6360  0.6690 -0.2070
  212SOD    SOD24912   7.053   5.932   8.698 -0.1140  0.0659 -0.2206
  213SOD    SOD24913   6.846   5.430   2.305 -0.2366  0.4514  0.5571
  214SOD    SOD24914   2.267   2.342   7.735 -0.1428  0.2511 -0.0742
  215SOD    SOD24915   2.893   5.537   7.215 -0.0777 -0.0407  0.2374
  216SOD    SOD24916   2.328   6.862   7.107 -0.3324 -0.0259 -0.3170
  217SOD    SOD24917   2.738   0.598   1.958  0.2315  0.2075 -0.0848
  218SOD    SOD24918   6.154   3.488   7.787 -0.2760  0.0974  0.2612
  219SOD    SOD24919   6.057   7.382   9.070 -0.4889  0.1689  0.0304
  220SOD    SOD24920   2.526   1.983   3.209  0.1390  0.4469 -0.3271
  221SOD    SOD24921   4.519   2.879   1.458 -0.1763 -0.0321 -0.3220
  222SOD    SOD24922   4.307   2.196   8.572 -0.2242 -0.4493 -0.1089
  223SOD    SOD24923   3.536   3.561   3.245  0.9563  0.0361 -0.1177
  224SOD    SOD24924   3.066   3.172   2.502 -0.2371  0.4614 -0.0448
  225SOD    SOD24925   0.821   6.488   2.340 -0.0342  0.1466  0.4528
  226SOD    SOD24926   0.805   0.344   8.512 -0.0298 -0.2569 -0.3146
  227CLA    CLA24927   3.321   2.340   0.859 -0.2292 -0.0513 -0.1566
  228CLA    CLA24928   0.734   4.988   1.795 -0.1176  0.2800  0.0619
  229CLA    CLA24929   4.080   1.618   2.129 -0.4314 -0.2523  0.0607
  230CLA    CLA24930   2.326   5.596   9.253 -0.0654  0.2833  0.0992
  231CLA    CLA24931   4.961   3.487   8.702  0.0729 -0.2922 -0.2573
  232CLA    CLA24932   6.877   1.142   7.458  0.3472 -0.0915 -0.2469
  233CLA    CLA24933   5.459   0.015   9.075  0.2633 -0.0131 -0.2070
  234CLA    CLA24934   2.758   1.263   7.987  0.2075  0.0573 -0.1956
  235CLA    CLA24935   1.945   0.364   1.514 -0.1709  0.2336  0.2477
  236CLA    CLA24936   7.335   2.275   8.220 -0.1092  0.0282 -0.2841
  237CLA    CLA24937   1.590   0.155   7.770  0.3969 -0.1792 -0.1533
  238CLA    CLA24938   2.302   2.751   2.726 -0.2341  0.3756  0.0388
  239CLA    CLA24939   1.532   1.390   2.748 -0.0604  0.2469 -0.4969
  240CLA    CLA24940   3.103   0.353   7.879 -0.0862  0.1330 -0.3721
  241CLA    CLA24941   2.180   3.410   2.033 -0.2137  0.3969  0.2218
  242CLA    CLA24942   4.587   4.288   8.303  0.3877 -0.6187 -0.0343
  243CLA    CLA24943   6.707   6.141   2.211 -0.4471 -0.0766 -0.3053
  244CLA    CLA24944   1.183   1.837   0.982  0.0732 -0.1159  0.3931
  245CLA    CLA24945   7.343   2.081   2.228 -0.6126 -0.3090  0.0274
  246CLA    CLA24946   6.175   5.657   7.089 -0.1392  0.1656  0.4841
  247CLA    CLA24947   5.328   2.612   1.346 -0.0162  0.0486 -0.0509
  248CLA    CLA24948   5.109   6.007   2.171 -0.2202  0.5593 -0.1973
  249CLA    CLA24949   1.276   7.210   1.051  0.6195  0.4198 -0.0339
  250CLA    CLA24950   3.923   2.574   9.017 -0.1321 -0.0574 -0.0198
  251CLA    CLA24951   7.362   5.043   7.786  0.1271 -0.3132  0.3989
  252CLA    CLA24952   0.385   3.545   2.147  0.3929  0.0980 -0.1850
  253TIP3   OH224953   0.854   5.386   9.285  0.3180 -0.0657  0.3883
  253TIP3    H124954   0.935   5.409   9.331  1.2238  0.2608 -1.3186
  253TIP3    H224955   0.876   5.307   9.236 -0.1113  0.5257 -0.7843
  254TIP3   OH224956   2.540   4.464   7.835 -0.4044 -0.0712  0.2870
  254TIP3    H124957   2.571   4.550   7.863 -1.2349  0.4981 -0.4678
  254TIP3    H224958   2.456   4.482   7.792  1.7756 -0.4666 -4.8164
  255TIP3   OH224959   6.615   2.727   8.156 -0.4555  0.0603 -0.1766
  255TIP3    H124960   6.614   2.819   8.129 -2.6972  0.4726  1.0675
  255TIP3    H224961   6.532   2.693   8.124  0.2642 -1.5171 -0.4390
  256TIP3   OH224962   6.045   6.157   9.512  0.3517  0.2231  0.4450
  256TIP3    H124963   6.003   6.111   9.440  0.6305  0.4879  0.1118
  256TIP3    H224964   6.044   6.094   9.584 -1.2176  0.4604  0.6541
  257TIP3   OH224965   1.945   1.453   7.486  0.5702  0.4366 -0.0930
  257TIP3    H124966   1.861   1.455   7.532  1.4324  0.4903  1.5579
  257TIP3    H224967   1.936   1.383   7.422 -0.4066 -0.2346  0.7498
  258TIP3   OH224968   1.879   0.998   6.851 -0.8661  0.3701  0.0406
  258TIP3    H124969   1.903   0.906   6.861 -0.8566  0.3631 -0.0473
  258TIP3    H224970   1.918   1.041   6.927  0.5069  0.5668 -0.7555
  259TIP3   OH224971   1.246   4.727   9.310 -1.0996 -0.4496  0.4327
  259TIP3    H124972   1.249   4.814   9.270  1.0439 -0.9306 -0.5654
  259TIP3    H224973   1.316   4.727   9.375  0.5224 -2.1411 -1.2085
  260TIP3   OH224974   1.680   3.133   8.430 -0.2434  0.3927 -0.2530
  260TIP3    H124975   1.593   3.152   8.396 -0.1245 -1.3032 -1.6457
  260TIP3    H224976   1.671   3.049   8.474  0.3569  0.9875  1.0476
  261TIP3   OH224977   3.548   0.842   7.756 -0.8927 -0.4022 -0.0623
  261TIP3    H124978   3.510   0.774   7.812  1.0045 -2.4351 -1.0957
  261TIP3    H224979   3.544   0.806   7.668  2.1920 -0.2212 -0.3724
  262TIP3   OH224980   3.283   5.363   8.565 -0.3601  0.0362 -0.2985
  262TIP3    H124981   3.218   5.301   8.596  0.6422 -0.4216  0.9894
  262TIP3    H224982   3.338   5.381   8.641  0.8410  0.6380 -1.2547
  263TIP3   OH224983   1.936   1.628   9.092  0.2256 -1.0386 -0.1906
  263TIP3    H124984   1.968   1.542   9.120  2.0092 -0.2659  0.2474
  263TIP3    H224985   1.979   1.644   9.008 -1.3485 -1.2242 -1.0859
  264TIP3   OH224986   1.699   6.186   7.674  0.5175 -0.0988  0.2121
  264TIP3    H124987   1.659   6.266   7.706  0.1577 -0.2219  0.0782
  264TIP3    H224988   1.767   6.215   7.613  2.0318  0.1862  1.9662
  265TIP3   OH224989   0.901   7.638   8.196  0.2129  0.2695  0.1308
  265TIP3    H124990   0.849   7.716   8.219 -0.6511 -0.1219 -0.4696
  265TIP3    H224991   0.956   7.623   8.273 -0.9995  0.3346  1.0456
  266TIP3   OH224992   6.874   1.831   8.850  0.2785 -0.7374 -0.1401
  266TIP3    H124993   6.940   1.847   8.918 -0.6659 -1.2441  0.9278
  266TIP3    H224994   6.923   1.787   8.780  1.5430  0.9443 -0.3916
  267TIP3   OH224995   3.562   7.072   6.948  0.5512  0.6354 -0.0893
  267TIP3    H124996   3.641   7.018   6.935  1.2227  1.7274 -0.6932
  267TIP3    H224997   3.588   7.137   7.013  0.7150  2.0774 -1.5618
  268TIP3   OH224998   7.166   5.026   7.260 -0.5522  0.2767  0.0011
  268TIP3    H124999   7.098   5.074   7.308 -0.0719  0.5608  0.4073
  268TIP3    H225000   7.117   4.967   7.202 -1.1535 -0.5707  1.3254
  269TIP3   OH225001   0.651   2.344   8.419 -0.2115  0.5916  0.1648
  269TIP3    H125002   0.595   2.273   8.450  1.3193 -0.7005  0.1331
  269TIP3    H225003   0.736   2.302   8.402  0.4229  2.2172 -0.9803
  270TIP3   OH225004   5.204   3.345   6.992  0.2058 -0.6306 -0.3928
  270TIP3    H125005   5.183   3.317   6.903  0.0454 -0.9937 -0.2390
  270TIP3    H225006   5.120   3.345   7.038  0.3381 -0.7611 -0.1496
  271TIP3   OH225007   4.452   2.345   8.451 -0.8144  0.4430 -0.7038
  271TIP3    H125008   4.543   2.368   8.430 -0.4422  0.0064  0.3722
  271TIP3    H225009   4.401   2.420   8.422  0.0567  1.3445  0.0310
  272TIP3   OH225010   7.212   7.193   8.610 -0.0247  0.6088 -0.1110
  272TIP3    H125011   7.301   7.224   8.591 -0.4901  1.9291 -0.2416
  272TIP3    H225012   7.219   7.153   8.697  1.3509 -2.2487 -1.4124
  273TIP3   OH225013   4.952   4.667   7.933 -0.5244  0.4610 -0.5543
  273TIP3    H125014   4.927   4.587   7.980  1.6547  1.0087  1.7206
  273TIP3    H225015   4.948   4.736   8.000  3.1317  1.2119 -0.9367
  274TIP3   OH225016   5.136   6.983   8.413 -0.2861  0.5085 -0.2258
  274TIP3    H125017   5.191   7.022   8.346  0.8618 -0.2686  0.2317
  274TIP3    H225018   5.135   7.048   8.484  2.2179 -0.4827  0.8414
  275TIP3   OH225019   1.191   7.387   7.144 -0.0292  0.2104 -0.1174
  275TIP3    H125020   1.228   7.300   7.159 -0.5274 -0.0301 -0.2746
  275TIP3    H225021   1.233   7.443   7.209  2.3318  0.4334 -1.6873
  276TIP3   OH225022   0.200   0.990   8.738 -0.1230 -0.8296 -0.0942
  276TIP3    H125023   0.293   0.995   8.761  0.0847 -0.4365 -0.9846
  276TIP3    H225024   0.176   0.898   8.754  0.0358 -0.6125  1.5195
  277TIP3   OH225025   1.157   0.570   9.163 -0.3800  0.1813  0.3095
  277TIP3    H125026   1.200   0.557   9.079  1.7005 -0.6941  1.4111
  277TIP3    H225027   1.182   0.659   9.190 -1.9556  0.8870 -0.4348
  278TIP3   OH225028   2.954   2.598   8.453  0.1734  0.7122 -0.0185
  278TIP3    H125029   3.013   2.671   8.472  1.8704 -0.7203  0.5012
  278TIP3    H225030   3.009   2.533   8.410 -1.1728 -0.4761 -0.0310
  279TIP3   OH225031   3.295   1.680   7.224  0.0374 -0.5796 -0.4886
  279TIP3    H125032   3.233   1.607   7.217 -1.1309  0.2858  0.4342
  279TIP3    H225033   3.242   1.758   7.212  0.4192  0.3213  2.7105
  280TIP3   OH225034   5.429   0.518   7.275 -0.0243 -0.1866 -0.0885
  280TIP3    H125035   5.413   0.451   7.209  1.9960  0.5282 -1.4006
  280TIP3    H225036   5.411   0.601   7.231 -0.5305  0.2351  0.8733
  281TIP3   OH225037   1.526   4.086   8.098 -0.1659 -0.4645 -0.2893
  281TIP3    H125038   1.498   4.168   8.058 -0.1971 -0.4019 -0.1412
  281TIP3    H225039   1.474   4.019   8.054  2.8290 -0.9591 -3.5615
  282TIP3   OH225040   2.078   5.119   7.068 -0.2089  0.0806  0.9700
  282TIP3    H125041   2.146   5.058   7.095 -1.8725 -2.3073  0.0262
  282TIP3    H225042   2.051   5.089   6.982 -0.7296  2.5364  0.1868
  283TIP3   OH225043   3.214   7.190   9.201 -0.3011 -0.0114 -0.7973
  283TIP3    H125044   3.176   7.195   9.114 -0.6416  0.5409 -0.6219
  283TIP3    H225045   3.179   7.266   9.247  3.0983  2.1731 -1.4593
  284TIP3   OH225046   6.888   4.767   2.815  0.4954  0.5174  0.8043
  284TIP3    H125047   6.974   4.724   2.810  0.3036  0.2039  0.0476
  284TIP3    H225048   6.903   4.854   2.776  0.4679  0.4622  0.6716
  285TIP3   OH225049   3.168   5.349   0.519 -0.0285 -0.3294 -0.6239
  285TIP3    H125050   3.249   5.304   0.496  0.2087 -0.5160  0.5046
  285TIP3    H225051   3.101   5.281   0.518  0.2727 -0.6734  0.7705
  286TIP3   OH225052   5.697   2.232   1.300  0.1482 -0.2300  0.3061
  286TIP3    H125053   5.722   2.306   1.245  0.2954  0.6702  1.5312
  286TIP3    H225054   5.603   2.243   1.314 -0.4390 -1.8834 -1.7712
  287TIP3   OH225055   0.207   2.744   2.609 -0.4562 -0.1242 -0.1428
  287TIP3    H125056   0.282   2.690   2.636  0.8648  0.9277 -1.5330
  287TIP3    H225057   0.155   2.754   2.688  0.2491 -1.8640  0.5916
  288TIP3   OH225058   1.542   3.181   1.665 -0.2865  0.4826  0.3177
  288TIP3    H125059   1.531   3.140   1.750  1.5433  2.8409  1.8320
  288TIP3    H225060   1.608   3.127   1.620  2.5552  1.8619  2.5115
  289TIP3   OH225061   3.758   4.381   2.710 -0.0229 -0.2504  0.0491
  289TIP3    H125062   3.667   4.361   2.686 -0.5008  1.5308  0.2179
  289TIP3    H225063   3.793   4.426   2.634 -0.0413  1.1614  0.8476
  290TIP3   OH225064   3.207   7.568   1.206 -0.4366 -0.3143 -0.0848
  290TIP3    H125065   3.152   7.510   1.153  0.6829 -1.2543 -0.2423
  290TIP3    H225066   3.220   7.645   1.151  0.6740 -1.2640 -1.1972
  291TIP3   OH225067   3.120   1.319   2.971 -0.1396  0.2830 -0.1574
  291TIP3    H125068   3.075   1.375   2.908 -0.6533  1.5206  1.2549
  291TIP3    H225069   3.201   1.293   2.927 -0.9601  0.2423 -1.7097
  292TIP3   OH225070   2.744   4.326   0.522  0.0760  0.1914  0.4364
  292TIP3    H125071   2.648   4.324   0.512  0.1370 -2.4539 -0.4912
  292TIP3    H225072   2.762   4.269   0.597  0.9381  0.6242  0.5713
  293TIP3   OH225073   4.678   0.109   0.636 -0.0294 -0.0656 -0.2914
  293TIP3    H125074   4.754   0.156   0.601  0.1962 -0.8568 -0.8629
  293TIP3    H225075   4.714   0.028   0.671 -0.4260  0.1575  0.6736
  294TIP3   OH225076   4.715   3.581   1.653  0.1082  0.0278  0.8696
  294TIP3    H125077   4.771   3.659   1.650 -0.8438  0.7110 -0.6054
  294TIP3    H225078   4.630   3.611   1.621 -0.6407 -1.3601  1.4467
  295TIP3   OH225079   3.092   0.994   1.260  0.1265  0.2590  0.7099
  295TIP3    H125080   3.136   1.067   1.216 -0.1448 -0.1384 -0.2344
  295TIP3    H225081   3.002   1.023   1.272 -0.0101  0.0305  0.2278
  296TIP3   OH225082   4.045   2.271   2.693  0.1790 -0.3184 -0.4362
  296TIP3    H125083   4.138   2.292   2.695 -0.0439  0.8049 -1.1879
  296TIP3    H225084   4.041   2.176   2.677  1.1810 -0.4147 -0.1405
  297TIP3   OH225085   1.330   4.104   2.161 -0.3197 -0.2131 -0.4445
  297TIP3    H125086   1.314   4.117   2.067  0.2479  2.2137 -0.2831
  297TIP3    H225087   1.410   4.154   2.179 -0.2634 -0.8621  1.2779
  298TIP3   OH225088   6.625   7.355   2.558  0.0179 -0.1339  0.2943
  298TIP3    H125089   6.573   7.275   2.563  0.8168 -0.7460 -0.8541
  298TIP3    H225090   6.714   7.328   2.579  0.4321  0.2950 -0.8451
  299TIP3   OH225091   4.531   6.511   3.216  0.1585  0.6543  0.7751
  299TIP3    H125092   4.461   6.459   3.255 -0.1111 -1.1847 -1.9485
  299TIP3    H225093   4.586   6.448   3.169  2.4184  2.3225  0.9991
  300TIP3   OH225094   2.250   5.319   2.130 -0.4902 -0.0400 -0.1448
  300TIP3    H125095   2.254   5.334   2.036 -0.4719 -1.0482 -0.3164
  300TIP3    H225096   2.160   5.293   2.147 -1.0900  2.2643  0.4758
  301TIP3   OH225097   7.225   4.676   2.191  0.3708  0.0234 -0.2135
  301TIP3    H125098   7.195   4.748   2.136  0.7254  0.0403 -0.3916
  301TIP3    H225099   7.215   4.598   2.136  0.3762 -0.0083 -0.1691
  302TIP3   OH225100   3.493   5.248   0.742  0.2870  0.3532  0.3791
  302TIP3    H125101   3.561   5.251   0.809  0.6778 -0.7771  0.0526
  302TIP3    H225102   3.523   5.181   0.680 -1.9680 -1.5400  1.1683
  303TIP3   OH225103   0.435   2.589   2.631  0.4845 -0.0016 -0.7516
  303TIP3    H125104   0.443   2.514   2.572  0.2345  0.5754 -1.5274
  303TIP3    H225105   0.441   2.550   2.719  4.2679 -0.5247 -1.0777
  304TIP3   OH225106   3.774   2.536   2.288  0.4255 -0.2352  0.6104
  304TIP3    H125107   3.764   2.598   2.360  0.0694 -0.5218  0.8089
  304TIP3    H225108   3.690   2.490   2.283 -0.1085  0.8193 -0.9519
  305TIP3   OH225109   2.873   2.822   0.908 -0.1159 -0.5807 -0.3083
  305TIP3    H125110   2.851   2.827   1.001 -0.6281  3.9406 -0.4205
  305TIP3    H225111   2.949   2.879   0.899 -0.0590 -0.9413 -2.6764
  306TIP3   OH225112   1.190   5.551   2.402 -0.1487 -0.5801 -0.3602
  306TIP3    H125113   1.282   5.579   2.402  0.5493 -2.7061  0.6038
  306TIP3    H225114   1.143   5.627   2.437  1.4690 -0.0688  0.8428
  307TIP3   OH225115   4.958   6.548   1.421 -0.2769  0.0401 -0.1198
  307TIP3    H125116   4.908   6.615   1.374  1.8006  0.9254 -1.1786
  307TIP3    H225117   4.996   6.494   1.352 -1.4587 -1.9688  0.7043
  308TIP3   OH225118   0.087   0.992   3.089 -0.3255 -0.1393 -0.6758
  308TIP3    H125119   0.148   1.046   3.139  0.1525 -1.1772 -0.1057
  308TIP3    H225120   0.123   0.903   3.093 -2.8559 -1.2278  1.3889
  309TIP3   OH225121   3.798   4.845   1.772  0.0598  0.1637 -0.0659
  309TIP3    H125122   3.879   4.879   1.811  0.6245  0.4517 -1.4319
  309TIP3    H225123   3.820   4.755   1.746 -0.1317  0.1665 -0.2417
  310TIP3   OH225124   4.878   1.884   1.466 -0.1679  0.1733 -0.0116
  310TIP3    H125125   4.849   1.844   1.548 -0.2040 -0.1075 -0.1590
  310TIP3    H225126   4.847   1.824   1.398  0.0515  0.2919 -0.2182
  311TIP3   OH225127   6.641   6.467   1.340  0.4591  0.1899  0.5495
  311TIP3    H125128   6.602   6.554   1.334  0.4095  0.1216 -0.2370
  311TIP3    H225129   6.572   6.412   1.375 -0.3979 -0.0594 -1.3965
  312TIP3   OH225130   0.844   3.883   0.738 -0.0938  0.4243 -0.2225
  312TIP3    H125131   0.806   3.822   0.802 -1.8740  2.1243  0.4402
  312TIP3    H225132   0.776   3.891   0.671  1.3595 -0.5846 -1.8902
  313TIP3   OH225133   6.387   4.695   1.397  0.4656 -0.5098 -0.0821
  313TIP3    H125134   6.399   4.646   1.316 -1.3072  0.0652 -0.7499
  313TIP3    H225135   6.297   4.676   1.423  1.3129 -1.5401  2.3812
  314TIP3   OH225136   1.429   2.459   3.048 -0.1792 -0.5260  0.7003
  314TIP3    H125137   1.444   2.429   3.138  0.8539  2.5525  1.6685
  314TIP3    H225138   1.515   2.490   3.019 -1.1331  1.5119 -0.1006
  315TIP3   OH225139   0.229   2.447   1.806  0.7135 -0.2266 -0.6100
  315TIP3    H125140   0.282   2.372   1.781  2.2305  0.3347  0.7502
  315TIP3    H225141   0.142   2.411   1.824  1.1762 -1.4890 -0.8560
  316TIP3   OH225142   3.386   1.065   2.407 -0.2536 -0.3914  0.4758
  316TIP3    H125143   3.356   1.000   2.343 -1.7913 -0.8273  1.5932
  316TIP3    H225144   3.315   1.129   2.411 -0.4738 -0.6975  2.1657
  317TIP3   OH225145   6.642   1.600   2.060  0.3272 -0.3192 -0.2796
  317TIP3    H125146   6.609   1.688   2.080 -0.2544 -0.7086  0.5493
  317TIP3    H225147   6.652   1.599   1.965  0.0332  0.5368 -0.3315
  318TIP3   OH225148   2.668   1.203   2.176 -0.5182  0.2710 -0.2539
  318TIP3    H125149   2.674   1.137   2.245 -0.3533  2.3931  1.8543
  318TIP3    H225150   2.712   1.280   2.211 -1.0307  1.6730 -2.4659
  319TIP3   OH225151   2.051   6.566   3.444  0.2282  0.0373 -0.0950
  319TIP3    H125152   2.136   6.523   3.442  0.4330  0.4462 -0.5383
  319TIP3    H225153   2.057   6.630   3.515 -0.2078 -0.8998  0.8202
  320TIP3   OH225154   3.429   5.903   0.763  0.2766  0.4650  0.3942
  320TIP3    H125155   3.387   5.959   0.828  1.1581  0.1831  1.2335
  320TIP3    H225156   3.357   5.854   0.723 -0.3018  0.8399  0.9596
  321TIP3   OH225157   3.376   0.329   0.645 -0.3481  0.0697  0.3881
  321TIP3    H125158   3.433   0.252   0.636 -1.1533 -0.4037 -0.9794
  321TIP3    H225159   3.391   0.380   0.565 -2.5440 -0.6018 -0.5385
  322TIP3   OH225160   1.465   2.985   2.746 -0.0423 -0.4837 -0.2046
  322TIP3    H125161   1.492   3.004   2.836 -2.5034  3.3032 -0.0467
  322TIP3    H225162   1.406   2.910   2.755  0.8538 -1.0720  1.1139
  323TIP3   OH225163   1.938   1.046   7.938 -0.4470  0.1288 -0.1536
  323TIP3    H125164   1.887   1.087   8.008 -1.4101  1.6579 -1.6724
  323TIP3    H225165   1.928   0.952   7.952 -0.1350  0.3716  2.0616
  324TIP3   OH225166   6.781   6.825   8.260  0.3185 -0.4511 -0.1718
  324TIP3    H125167   6.800   6.790   8.173 -2.8782 -0.0442 -1.1491
  324TIP3    H225168   6.757   6.916   8.245 -0.2384 -0.3591  1.1443
  325TIP3   OH225169   7.070   0.119   8.567  0.0584 -0.2928  0.8371
  325TIP3    H125170   7.100   0.179   8.499  0.0650 -1.1081  0.1017
  325TIP3    H225171   7.123   0.141   8.644  0.9413 -0.1827  0.2167
  326TIP3   OH225172   2.131   5.663   6.407  0.2928 -0.3564 -0.0521
  326TIP3    H125173   2.138   5.758   6.396  0.6154 -0.3522  0.1701
  326TIP3    H225174   2.113   5.651   6.500 -2.4974 -0.3877 -0.4924
  327TIP3   OH225175   1.026   3.027   6.856  0.2811 -0.1006 -0.4701
  327TIP3    H125176   0.962   2.955   6.856  0.2621 -0.1339  1.5434
  327TIP3    H225177   0.999   3.083   6.783 -2.2419  0.0139  0.4490
  328TIP3   OH225178   5.640   0.359   8.401 -0.8192 -0.0499  0.6943
  328TIP3    H125179   5.684   0.347   8.485 -1.0787 -4.0500  0.4533
  328TIP3    H225180   5.558   0.403   8.424  0.0308  0.8445  2.2016
  329TIP3   OH225181   4.673   5.064   8.220 -0.4660  0.3665  0.1583
  329TIP3    H125182   4.602   5.118   8.184 -0.7739  1.1984  1.9032
  329TIP3    H225183   4.648   5.051   8.312  0.2051 -1.8007  0.0682
  330TIP3   OH225184   5.236   0.536   9.124  0.1892  0.2375  0.0514
  330TIP3    H125185   5.323   0.577   9.119  1.3237 -2.1709 -1.5726
  330TIP3    H225186   5.241   0.480   9.202  0.6382 -0.9515 -0.8025
  331TIP3   OH225187   1.327   6.190   7.429 -0.1896  0.5277 -0.7686
  331TIP3    H125188   1.266   6.228   7.365 -1.1176  0.8448  0.2790
  331TIP3    H225189   1.353   6.264   7.484 -1.4707 -0.1869  0.8620
  332TIP3   OH225190   0.626   0.141   8.142  0.0856  0.0525  0.6530
  332TIP3    H125191   0.590   0.197   8.073  1.6773 -0.7736 -0.9027
  332TIP3    H225192   0.583   0.057   8.128 -0.2068  0.0961  1.2362
  333TIP3   OH225193   4.484   5.751   7.666 -0.4349 -0.3448 -0.1407
  333TIP3    H125194   4.441   5.665   7.671 -0.6634 -0.2336 -0.2227
  333TIP3    H225195   4.568   5.733   7.624 -1.0796 -0.2967 -1.4718
  334TIP3   OH225196   3.216   1.780   9.446 -1.3446  0.6295  0.2199
  334TIP3    H125197   3.155   1.839   9.490 -3.0505  1.5483 -3.0299
  334TIP3    H225198   3.206   1.801   9.353  1.7549 -1.3363 -0.6953
  335TIP3   OH225199   6.165   0.062   7.460 -0.3254 -0.0404  0.0417
  335TIP3    H125200   6.084   0.030   7.421 -0.9541 -0.3849  1.5776
  335TIP3    H225201   6.151   0.057   7.554  1.0517  1.0110  0.3444
  336TIP3   OH225202   5.511   4.717   8.312 -0.1169 -0.0265 -0.0444
  336TIP3    H125203   5.544   4.753   8.395  0.3693 -0.7328  0.0852
  336TIP3    H225204   5.471   4.634   8.337  1.4110 -1.0046 -0.6943
  337TIP3   OH225205   4.431   6.337   8.136 -0.4308 -0.0567  0.3076
  337TIP3    H125206   4.496   6.378   8.193 -0.3301  0.7743 -0.3849
  337TIP3    H225207   4.354   6.324   8.192 -0.0767  0.0484  0.8203
  338TIP3   OH225208   0.196   4.099   9.207 -0.2796  0.1159 -0.1575
  338TIP3    H125209   0.197   4.010   9.240 -0.4080 -0.7877 -2.4360
  338TIP3    H225210   0.285   4.113   9.172 -0.7954  0.1601 -1.5144
  339TIP3   OH225211   1.088   3.649   8.997  0.0355  0.1576  0.3418
  339TIP3    H125212   1.152   3.702   8.950  0.5799  0.7575  1.6996
  339TIP3    H225213   1.022   3.626   8.931 -0.1599  2.4221 -0.3375
  340TIP3   OH225214   1.314   3.382   7.156 -0.2668  0.5325  0.4655
  340TIP3    H125215   1.334   3.437   7.080  0.1006  1.2642  1.0887
  340TIP3    H225216   1.261   3.311   7.120  0.9817  0.1473 -0.7117
  341TIP3   OH225217   1.201   2.698   8.944  0.6909  0.0873 -0.2851
  341TIP3    H125218   1.252   2.771   8.908  0.1890 -0.2631 -1.7904
  341TIP3    H225219   1.170   2.730   9.029  3.6964  0.1671  0.9079
  342TIP3   OH225220   0.556   0.581   7.059  0.2649  0.1172  0.0892
  342TIP3    H125221   0.512   0.662   7.087 -0.1599 -0.3412  0.7942
  342TIP3    H225222   0.495   0.541   6.996  0.8322  0.7216 -0.8743
  343TIP3   OH225223   2.065   2.595   9.552  0.4194 -0.1643  0.6245
  343TIP3    H125224   2.072   2.508   9.514 -2.0540 -0.6885  1.2223
  343TIP3    H225225   2.152   2.634   9.539  0.7893 -1.6586 -2.1571
  344TIP3   OH225226   7.658   7.368   9.015 -0.8914  0.4556  0.0073
  344TIP3    H125227   7.629   7.339   8.929  0.9063 -0.3483 -0.3627
  344TIP3    H225228   7.687   7.288   9.059 -2.8670  0.6577  1.8496
  345TIP3   OH225229   0.990   5.030   8.558  0.1659  0.1597 -0.3793
  345TIP3    H125230   0.973   4.975   8.482 -1.1139  0.9166 -0.6605
  345TIP3    H225231   1.070   5.077   8.536  0.5632 -0.6308 -0.6679
  346TIP3   OH225232   6.462   2.032   9.086 -0.2004 -0.0879  0.6355
  346TIP3    H125233   6.458   2.126   9.103  0.1527 -0.0868  0.7142
  346TIP3    H225234   6.533   2.022   9.023  0.6234 -0.4337  1.5841
  347TIP3   OH225235   4.269   5.885   8.316  0.1796 -0.1575 -0.2650
  347TIP3    H125236   4.283   5.920   8.404 -1.7703 -0.7763  0.3447
  347TIP3    H225237   4.343   5.918   8.265  0.5833  1.4399  1.2495
  348TIP3   OH225238   3.146   2.096   8.684 -0.1237 -0.0869 -0.1253
  348TIP3    H125239   3.179   2.106   8.594  2.0426  1.6301  0.7566
  348TIP3    H225240   3.134   2.002   8.695 -1.4614 -0.2785 -2.5083
  349TIP3   OH225241   4.254   5.665   8.103 -0.5625 -0.1715 -0.6966
  349TIP3    H125242   4.294   5.599   8.161  0.8236  1.2939  0.0843
  349TIP3    H225243   4.219   5.731   8.162  0.6064  1.2090 -1.4973
  350TIP3   OH225244   4.589   4.412   8.707 -0.3130  0.3427 -0.2409
  350TIP3    H125245   4.543   4.432   8.625 -1.7662  0.2869  0.5311
  350TIP3    H225246   4.630   4.327   8.691 -1.3129 -0.0824 -0.6325
  351TIP3   OH225247   1.966   2.553   7.338 -0.1186 -0.2094 -0.1181
  351TIP3    H125248   1.931   2.498   7.267 -1.7978 -0.6153  0.9687
  351TIP3    H225249   1.924   2.637   7.326 -1.7626 -0.7646  1.3312
  352TIP3   OH225250   6.853   6.800   7.219  0.7813 -0.5958 -1.0157
  352TIP3    H125251   6.882   6.785   7.129  0.8599 -3.7457 -0.5791
  352TIP3    H225252   6.758   6.789   7.215  0.7471 -0.3996 -0.7653
  353TIP3   OH225253   3.786   1.020   9.160 -0.3837 -0.2625  0.4313
  353TIP3    H125254   3.713   1.016   9.099  0.9439  0.1169 -1.2846
  353TIP3    H225255   3.750   0.993   9.244 -2.2114 -1.1885 -0.5989
  354TIP3   OH225256   0.064   2.134   9.144  0.1520 -0.1797 -0.0404
  354TIP3    H125257  -0.021   2.171   9.121 -0.7268 -2.3347 -0.5391
  354TIP3    H225258   0.076   2.155   9.237  0.7978  3.1884 -0.7604
  355TIP3   OH225259   5.311   3.739   8.857  0.0719 -0.8112  0.4389
  355TIP3    H125260   5.307   3.684   8.779  0.6199 -0.1624 -0.0568
  355TIP3    H225261   5.232   3.792   8.853 -0.6660 -1.8066  1.1295
  356TIP3   OH225262   2.137   0.363   8.271  0.3549  0.4110 -0.3048
  356TIP3    H125263   2.119   0.456   8.266  1.0268  0.5563 -0.1583
  356TIP3    H225264   2.188   0.352   8.352 -0.2534 -0.1713  0.0070
  357TIP3   OH225265   3.709   4.609   7.689 -0.1927 -0.2168 -0.2918
  357TIP3    H125266   3.777   4.571   7.634  0.8884  0.7855  0.2920
  357TIP3    H225267   3.637   4.546   7.688  0.9133 -1.4943 -0.5931
  358TIP3   OH225268   4.955   1.979   7.815  0.3455  0.4485 -0.0551
  358TIP3    H125269   4.929   2.025   7.736 -0.9235 -1.3546 -0.7434
  358TIP3    H225270   5.040   2.016   7.838 -0.1297  2.3111 -1.1758
  359TIP3   OH225271   4.656   7.295   8.272  0.5529  0.3646  0.1077
  359TIP3    H125272   4.584   7.282   8.333  0.0286  2.1446 -0.0577
  359TIP3    H225273   4.726   7.238   8.304 -0.0065  0.6149  1.8817
  360TIP3   OH225274   6.382   0.862   7.656 -0.0828 -0.8894 -0.0484
  360TIP3    H125275   6.307   0.803   7.656 -1.5382  0.8640 -0.3872
  360TIP3    H225276   6.373   0.911   7.573  1.7910 -1.0579 -0.3877
  361TIP3   OH225277   7.139   4.734   8.764 -0.6785 -0.1156 -0.3036
  361TIP3    H125278   7.116   4.826   8.772 -2.7620 -0.5679 -0.4719
  361TIP3    H225279   7.136   4.715   8.670 -0.0594 -0.3203 -0.2893
  362TIP3   OH225280   2.643   0.221   8.495  0.5051  0.4880  0.5445
  362TIP3    H125281   2.591   0.276   8.436  0.3673  0.4451  0.6254
  362TIP3    H225282   2.583   0.200   8.567  1.5564  3.1448  2.3343
  363TIP3   OH225283   1.865   0.961   7.554  0.5048 -0.2759  0.4439
  363TIP3    H125284   1.903   0.879   7.586  0.3292 -1.0825 -1.2711
  363TIP3    H225285   1.770   0.950   7.565  0.5483  0.3746  1.6586
  364TIP3   OH225286   0.664   0.820   8.578  0.2242  0.3316  0.4368
  364TIP3    H125287   0.569   0.822   8.585  0.2877  1.0703  1.3317
  364TIP3    H225288   0.689   0.912   8.568  0.8790  0.2064  0.8598
  365TIP3   OH225289   1.057   6.272   8.524 -0.3027 -0.3175 -0.5993
  365TIP3    H125290   1.100   6.342   8.475  1.5136 -0.6727  0.4055
  365TIP3    H225291   0.963   6.287   8.511  0.0503  2.0703 -0.7147
  366TIP3   OH225292   3.273   5.986   8.020  0.2514 -0.2019 -0.4338
  366TIP3    H125293   3.337   5.937   8.072 -0.1454 -0.2081  0.0621
  366TIP3    H225294   3.325   6.036   7.958  0.7683  0.0985  0.2264
  367TIP3   OH225295   4.671   1.712   7.334  0.1312  0.3596 -0.1610
  367TIP3    H125296   4.666   1.635   7.278 -1.5399  0.3994 -0.0997
  367TIP3    H225297   4.680   1.785   7.273 -1.3077  0.3687 -0.3868
  368TIP3   OH225298   3.132   7.660   9.302  0.0889 -0.4529 -0.1152
  368TIP3    H125299   3.114   7.586   9.243 -0.1294 -1.4571  1.1682
  368TIP3    H225300   3.226   7.654   9.319  0.3510  0.4635 -1.1524
  369TIP3   OH225301   1.076   6.965   7.227  0.2636  0.0974 -0.0083
  369TIP3    H125302   1.165   6.997   7.243  0.7206 -1.3466  0.4819
  369TIP3    H225303   1.036   6.958   7.314  0.3341 -1.0438 -0.0471
  370TIP3   OH225304   2.732   0.006   9.139  0.6703 -0.5630 -0.0866
  370TIP3    H125305   2.700   0.078   9.084 -0.7425 -1.8335 -1.0281
  370TIP3    H225306   2.805  -0.031   9.089  2.0111  0.7393  0.8368
  371TIP3   OH225307   7.250   3.657   8.430 -0.1605 -0.2167  0.8269
  371TIP3    H125308   7.337   3.696   8.418 -0.9958  1.1291 -1.5319
  371TIP3    H225309   7.264   3.563   8.417  0.9423 -0.0073  0.4127
  372TIP3   OH225310   5.075   3.881   8.246  0.1908 -0.1871 -0.3888
  372TIP3    H125311   4.986   3.897   8.279  0.1047  0.0160 -0.7174
  372TIP3    H225312   5.068   3.799   8.197 -0.0369  0.3365 -1.2445
  373TIP3   OH225313   5.090   2.433   8.756 -0.0626  0.4314  0.4865
  373TIP3    H125314   5.005   2.477   8.762 -0.5378 -0.5438  1.2084
  373TIP3    H225315   5.075   2.362   8.693 -0.2921 -0.8037  1.8846
  374TIP3   OH225316   0.548   3.108   8.887  0.0935  0.4226 -0.1644
  374TIP3    H125317   0.580   3.021   8.863 -1.1957  0.3680 -1.8413
  374TIP3    H225318   0.520   3.098   8.978  1.8466 -0.3357  0.3472
  375TIP3   OH225319   2.371   2.124   8.229  0.3280  0.1247 -0.3486
  375TIP3    H125320   2.442   2.073   8.190  0.5292  0.0864  0.0660
  375TIP3    H225321   2.291   2.087   8.191  0.5784  1.2326 -2.1173
  376TIP3   OH225322   0.702   1.398   7.798  0.8251  0.3338  0.1597
  376TIP3    H125323   0.755   1.429   7.724  0.8636 -0.1563 -0.0216
  376TIP3    H225324   0.719   1.304   7.802  0.9918  0.3945  0.9373
  377TIP3   OH225325   3.723   0.525   6.751  0.0869  0.3355  0.4201
  377TIP3    H125326   3.759   0.595   6.697 -2.7696  1.2652 -0.4230
  377TIP3    H225327   3.779   0.450   6.732  0.9014  1.3806 -1.6469
  378TIP3   OH225328   1.509   7.057   6.760 -0.3785 -0.6318 -0.5411
  378TIP3    H125329   1.526   7.140   6.804 -0.6416  0.4005 -2.2829
  378TIP3    H225330   1.521   6.991   6.828  1.6187  0.6732  0.4784
  379TIP3   OH225331   1.577   1.299   8.627 -0.2168  0.0776  0.4821
  379TIP3    H125332   1.598   1.207   8.645  0.1938  0.2657  1.0175
  379TIP3    H225333   1.517   1.324   8.697  0.1581  0.3872  0.6974
  380TIP3   OH225334   4.776   5.010   9.223 -0.1965  0.2289  0.1590
  380TIP3    H125335   4.793   4.941   9.159  0.8083  1.2324 -0.7167
  380TIP3    H225336   4.683   5.029   9.214  0.2369  1.6376 -2.4481
  381TIP3   OH225337   4.878   3.015   8.431 -0.1778  0.0834 -0.3909
  381TIP3    H125338   4.839   3.101   8.416  0.3306  0.3418 -0.2510
  381TIP3    H225339   4.890   3.010   8.526 -0.9464 -0.4747 -0.3082
  382TIP3   OH225340   5.054   5.003   7.056 -0.5589 -0.2001 -0.8207
  382TIP3    H125341   5.095   5.070   7.111  0.6701 -0.6096 -1.2018
  382TIP3    H225342   4.961   5.025   7.056 -0.3047  0.9394 -0.1648
  383TIP3   OH225343   2.819   0.664   7.730 -0.1923 -0.2914 -0.3804
  383TIP3    H125344   2.807   0.570   7.741 -1.4010 -0.3469 -1.8962
  383TIP3    H225345   2.883   0.688   7.797 -1.2977 -1.8364  1.3330
  384TIP3   OH225346   0.451   0.098   9.134  0.0393 -0.1280 -0.3292
  384TIP3    H125347   0.514   0.085   9.205 -0.5840 -1.0094  0.0780
  384TIP3    H225348   0.449   0.193   9.121  0.2375  0.0404  0.7656
  385TIP3   OH225349   4.378   2.717   9.883 -0.4291  0.2640  0.3011
  385TIP3    H125350   4.303   2.706   9.942 -1.4827 -0.5805 -1.1286
  385TIP3    H225351   4.351   2.674   9.802  0.7155  1.9167 -1.0299
  386TIP3   OH225352   1.092   7.145   8.578 -0.3521 -0.5582 -0.2112
  386TIP3    H125353   1.132   7.223   8.542 -0.8371  0.0837  0.6007
  386TIP3    H225354   0.998   7.163   8.577 -0.3411  0.4068  3.2502
  387TIP3   OH225355   3.448   5.798   8.253 -0.4033  0.0365 -0.2364
  387TIP3    H125356   3.440   5.733   8.322  1.7020  1.5712  1.6020
  387TIP3    H225357   3.459   5.747   8.172 -2.0052 -1.8038  0.6226
  388TIP3   OH225358   4.898   7.613   8.191  0.0579  0.4442 -0.2211
  388TIP3    H125359   4.866   7.574   8.273  0.0641  1.8476  0.4736
  388TIP3    H225360   4.926   7.701   8.216  0.7437  0.6363 -1.6080
  389TIP3   OH225361   1.672   2.204   9.761  0.1519 -0.3638 -0.1594
  389TIP3    H125362   1.684   2.298   9.755  0.3411 -0.3760  0.0169
  389TIP3    H225363   1.672   2.186   9.855 -0.7825 -0.4243 -0.1665
  390TIP3   OH225364   2.006   5.542   8.183  0.1092 -0.0955 -0.4543
  390TIP3    H125365   2.012   5.590   8.101  0.2197 -1.3543 -1.2134
  390TIP3    H225366   2.029   5.606   8.251 -0.2266  1.0266 -1.3675
  391TIP3   OH225367   6.188   6.414   8.623 -0.6191  0.4472  0.3901
  391TIP3    H125368   6.231   6.378   8.701  1.4143  1.3393 -0.2386
  391TIP3    H225369   6.174   6.339   8.566  0.7854  0.1863  0.3511
  392TIP3   OH225370   1.415   6.777   8.991 -0.2662 -0.5034  0.1036
  392TIP3    H125371   1.424   6.793   8.897  0.3691 -2.1864 -0.1533
  392TIP3    H225372   1.424   6.682   9.000  2.9569 -0.1420  2.1881
  393TIP3   OH225373   6.927   2.556   8.388  0.3785  0.4387 -0.2929
  393TIP3    H125374   6.924   2.464   8.363  1.2738  0.4728 -0.5630
  393TIP3    H225375   7.020   2.574   8.404  0.0051  0.7542  1.8379
  394TIP3   OH225376   6.273   5.579   7.514  0.1431  0.5903  0.1585
  394TIP3    H125377   6.311   5.520   7.579 -0.2343  1.1729  0.9279
  394TIP3    H225378   6.202   5.529   7.474  0.1127  0.3653  0.4902
  395TIP3   OH225379   1.906   6.527   7.722 -0.6141  0.4453 -0.0710
  395TIP3    H125380   1.940   6.570   7.801 -1.3099 -1.5429  1.4008
  395TIP3    H225381   1.812   6.520   7.738 -0.6702 -0.5659 -0.7926
  396TIP3   OH225382   3.060   4.242   8.316 -0.0403  0.0509 -0.0595
  396TIP3    H125383   3.051   4.304   8.388 -1.5482 -0.7828  0.5020
  396TIP3    H225384   3.152   4.251   8.289  0.1107  1.5787  0.8423
  397TIP3   OH225385   7.596   5.661   9.235 -0.5040  0.4705 -0.0471
  397TIP3    H125386   7.635   5.575   9.250  2.7083  2.1238  2.4290
  397TIP3    H225387   7.535   5.673   9.308 -1.2537  0.1955 -0.6128
  398TIP3   OH225388   1.189   6.514   9.042  0.0797  0.5066 -0.1271
  398TIP3    H125389   1.285   6.513   9.033  0.0220 -1.0808 -0.9686
  398TIP3    H225390   1.174   6.498   9.135  0.6256  1.0134  0.0566
  399TIP3   OH225391   6.765   3.934   8.616 -0.3546  0.2065 -0.0470
  399TIP3    H125392   6.686   3.912   8.665 -0.8907  0.8239 -0.6138
  399TIP3    H225393   6.822   3.975   8.680  0.2471 -1.8137  0.7916
  400TIP3   OH225394   3.428   0.312   9.560  0.5574  0.3628 -0.0251
  400TIP3    H125395   3.478   0.270   9.489  1.0168 -0.3770  0.7079
  400TIP3    H225396   3.337   0.290   9.542  0.8025 -1.2015  0.4547
  401TIP3   OH225397   2.570   1.574   8.389 -0.3700 -0.7823  0.2526
  401TIP3    H125398   2.491   1.613   8.427  0.2348  0.8873 -0.1310
  401TIP3    H225399   2.641   1.632   8.416  0.6065 -1.7129 -0.2339
  402TIP3   OH225400   3.098   4.777   9.129 -0.1565  0.0526  0.0513
  402TIP3    H125401   3.058   4.826   9.201 -0.3553 -0.3019  0.1823
  402TIP3    H225402   3.181   4.745   9.164  0.2955  0.8690 -0.2500
  403TIP3   OH225403   7.447   1.342   8.736  0.1708  0.0382  0.8613
  403TIP3    H125404   7.434   1.256   8.777 -0.8440 -0.2776 -0.0582
  403TIP3    H225405   7.445   1.323   8.642  2.3966  0.7395  0.6215
  404TIP3   OH225406   3.870   4.880   8.065  0.2658  0.1812  0.4430
  404TIP3    H125407   3.926   4.863   7.989 -0.4474  0.8448 -0.2518
  404TIP3    H225408   3.782   4.858   8.035  0.2177 -1.7992  1.8231
  405TIP3   OH225409   5.935   4.136   7.742 -0.2006 -0.1973 -0.0029
  405TIP3    H125410   5.842   4.119   7.724 -0.1263  0.4012 -1.1055
  405TIP3    H225411   5.966   4.058   7.786 -0.7923 -1.2300 -1.3348
  406TIP3   OH225412   2.432   0.345   7.519 -0.3487  0.0193  0.2652
  406TIP3    H125413   2.433   0.434   7.486 -1.6579 -0.2422 -0.5394
  406TIP3    H225414   2.476   0.350   7.604 -0.5826  1.4562  0.3159
  407TIP3   OH225415   1.708   0.558   7.011  0.2357 -0.2306 -0.4626
  407TIP3    H125416   1.626   0.575   6.965 -0.8629 -0.4051  1.3130
  407TIP3    H225417   1.770   0.621   6.976 -0.1429 -1.1963 -3.0499
  408TIP3   OH225418   1.963   4.048   8.739 -0.4626 -0.4381 -0.4759
  408TIP3    H125419   2.048   4.009   8.762 -0.6044 -0.9274 -0.7561
  408TIP3    H225420   1.986   4.122   8.683 -0.2437 -0.9645 -1.0934
  409TIP3   OH225421   4.129   6.154   7.874 -0.1169 -0.1401 -0.8951
  409TIP3    H125422   4.118   6.140   7.968 -0.6669  0.1335 -0.9156
  409TIP3    H225423   4.204   6.100   7.850  0.2752  0.1028 -0.2224
  410TIP3   OH225424   1.951   5.403   6.396  0.1280  0.0300 -0.4684
  410TIP3    H125425   1.919   5.398   6.306 -0.6424  1.5882 -0.3112
  410TIP3    H225426   1.998   5.486   6.401 -2.3110  1.4530  1.2719
  411TIP3   OH225427   7.675   4.338   8.283 -0.1746 -0.2182 -0.3885
  411TIP3    H125428   7.650   4.324   8.192 -0.5247 -0.7094 -0.2201
  411TIP3    H225429   7.641   4.261   8.330 -1.3789  0.7706  0.4318
  412TIP3   OH225430   0.276   5.394   9.525 -0.2695 -0.5392  0.2222
  412TIP3    H125431   0.315   5.456   9.585 -1.0793  0.4132 -0.1984
  412TIP3    H225432   0.297   5.428   9.438  0.2645 -1.4948 -0.0365
  413TIP3   OH225433   5.876   5.667   7.068 -0.2000  0.3468 -0.0259
  413TIP3    H125434   5.856   5.580   7.034 -0.7331  0.8579 -1.0521
  413TIP3    H225435   5.971   5.668   7.077 -0.1280 -0.0885 -0.7217
  414TIP3   OH225436   2.555   3.825   7.767  0.1881  1.0054 -0.3722
  414TIP3    H125437   2.464   3.852   7.755 -0.5566 -1.0693  0.2875
  414TIP3    H225438   2.596   3.900   7.810 -1.3787  1.7029 -0.0096
  415TIP3   OH225439   4.234   7.388   7.877  0.3439 -0.5930 -0.0292
  415TIP3    H125440   4.191   7.470   7.853  0.4947 -0.6134 -0.3657
  415TIP3    H225441   4.273   7.406   7.963  1.4570  0.1001 -0.6576
  416TIP3   OH225442   4.910   1.300   8.116 -0.1784  1.0443 -0.1862
  416TIP3    H125443   4.877   1.342   8.196  2.4490  1.4859  0.7468
  416TIP3    H225444   4.873   1.352   8.045  0.0835  2.6989  0.8487
  417TIP3   OH225445   0.482   5.152   9.448  0.3147 -0.3575 -0.0898
  417TIP3    H125446   0.407   5.211   9.441 -0.8272 -1.8599 -0.9448
  417TIP3    H225447   0.554   5.209   9.476 -0.3618  1.7404 -2.2651
  418TIP3   OH225448   5.912   7.637   8.309 -0.4811 -0.1935  0.0611
  418TIP3    H125449   5.924   7.547   8.280 -0.5026 -0.2214  0.1399
  418TIP3    H225450   5.951   7.640   8.396  1.4187  0.3893 -0.7649
  419TIP3   OH225451   0.863   4.696   8.116  0.1631  0.2367 -0.0356
  419TIP3    H125452   0.948   4.740   8.115  0.3204 -0.0678 -0.3164
  419TIP3    H225453   0.799   4.765   8.098  0.3582  0.4435  0.0539
  420TIP3   OH225454   1.369   2.428   9.022 -0.4193 -0.2339 -0.0108
  420TIP3    H125455   1.317   2.470   9.091 -0.4308 -1.4484  0.7441
  420TIP3    H225456   1.380   2.496   8.955  1.0839  1.5337  1.9310
  421TIP3   OH225457   0.706   2.545   7.325 -0.6927  0.5511 -0.2300
  421TIP3    H125458   0.643   2.484   7.365 -1.7278  1.2278 -0.8030
  421TIP3    H225459   0.677   2.555   7.235  0.1998  0.9448 -0.4892
  422TIP3   OH225460   5.153   1.991   6.810 -0.0700  0.1427 -0.2558
  422TIP3    H125461   5.242   1.994   6.775 -0.1536  0.6877 -0.4241
  422TIP3    H225462   5.112   1.916   6.765  0.4571 -0.4374  0.2077
  423TIP3   OH225463   1.081   2.316   7.257  0.5931  0.3391 -0.3758
  423TIP3    H125464   1.151   2.373   7.289  0.7810  0.3788 -0.8461
  423TIP3    H225465   1.127   2.242   7.217  0.4518  1.4226 -2.6989
  424TIP3   OH225466   7.397   7.017   7.674 -0.4316 -0.4004  0.0119
  424TIP3    H125467   7.436   7.076   7.738  0.2552  0.5764 -1.2476
  424TIP3    H225468   7.303   7.034   7.681 -0.1673  3.2664 -2.3865
  425TIP3   OH225469   7.223   7.325   7.725  0.5186  0.2575 -0.5911
  425TIP3    H125470   7.129   7.323   7.744  0.6726 -1.3242  0.1860
  425TIP3    H225471   7.231   7.274   7.644  0.8413 -0.8722  0.1328
  426TIP3   OH225472   3.396   0.578   9.619  0.5002 -0.3585  0.7324
  426TIP3    H125473   3.416   0.484   9.615  0.5053 -0.3222 -1.6726
  426TIP3    H225474   3.300   0.582   9.614  0.5340 -0.2497 -0.0277
  427TIP3   OH225475   0.325   6.997   8.058  0.4507  0.4122  0.0352
  427TIP3    H125476   0.416   6.978   8.080  0.8830  1.3428 -0.8427
  427TIP3    H225477   0.289   7.034   8.139  1.3076  1.4946 -0.0494
  428TIP3   OH225478   6.585   5.489   8.436  0.1987 -0.8934 -0.4533
  428TIP3    H125479   6.566   5.425   8.505 -0.4657  1.1490  1.3641
  428TIP3    H225480   6.565   5.443   8.355 -2.1974 -2.4041  0.8587
  429TIP3   OH225481   0.869   4.712   9.507 -0.0117 -0.3273 -0.1803
  429TIP3    H125482   0.889   4.629   9.549 -0.0950 -0.1044  0.3094
  429TIP3    H225483   0.793   4.745   9.555  1.6385  1.3304  1.4496
  430TIP3   OH225484   5.223   1.866   9.703 -0.1016  0.1356 -0.3359
  430TIP3    H125485   5.148   1.887   9.648 -0.5401 -1.4458 -0.3887
  430TIP3    H225486   5.259   1.785   9.665  0.9183  0.2309  0.3839
  431TIP3   OH225487   4.095   7.653   8.397  0.0407  0.0857  0.3050
  431TIP3    H125488   4.093   7.581   8.334 -0.0242  0.3631 -0.0087
  431TIP3    H225489   4.162   7.627   8.461 -0.0018 -0.2641  0.2086
  432TIP3   OH225490   5.401   5.090   8.790 -0.3616  0.1480 -1.3523
  432TIP3    H125491   5.482   5.116   8.745  1.1549 -0.0455  1.0752
  432TIP3    H225492   5.383   5.162   8.851  1.0787 -1.9834  1.9015
  433TIP3   OH225493   1.235   0.279   7.739  0.0190 -0.1810 -0.3637
  433TIP3    H125494   1.269   0.221   7.671  1.7761 -1.2077  1.2847
  433TIP3    H225495   1.293   0.264   7.815 -1.8633  0.8493  1.3823
  434TIP3   OH225496   0.198   0.821   8.143  0.2325 -0.2780 -0.2399
  434TIP3    H125497   0.290   0.801   8.161  0.8850  2.1836 -0.5838
  434TIP3    H225498   0.199   0.867   8.060 -1.2207  0.5069  0.1490
  435TIP3   OH225499   0.945   4.881   8.789  0.2792 -0.1012 -0.2620
  435TIP3    H125500   0.856   4.897   8.819  0.7510  0.8520  0.7082
  435TIP3    H225501   0.949   4.921   8.702 -0.1067  0.2780 -0.1057
  436TIP3   OH225502   7.638   4.060   8.102  0.6475  0.0146 -0.3322
  436TIP3    H125503   7.574   4.106   8.156  0.9993  0.7220 -0.5124
  436TIP3    H225504   7.624   3.967   8.122 -0.4612  0.1512 -0.4017
  437TIP3   OH225505   2.449   7.515   8.607 -0.4935 -0.0438 -0.0117
  437TIP3    H125506   2.417   7.498   8.695 -0.1294  0.7033  0.2695
  437TIP3    H225507   2.419   7.604   8.587 -1.3286 -0.5204 -0.9856
  438TIP3   OH225508   6.710   6.520   7.617 -0.3650 -0.2066  0.5098
  438TIP3    H125509   6.653   6.591   7.648  0.4013  0.6087  0.0858
  438TIP3    H225510   6.792   6.563   7.594  1.1215 -1.5725  2.8139
  439TIP3   OH225511   2.563   2.474   8.694 -0.6545  0.1443  0.5576
  439TIP3    H125512   2.504   2.429   8.755 -1.7137  2.6007  1.4723
  439TIP3    H225513   2.646   2.426   8.701 -0.7557  0.1910  3.8963
  440TIP3   OH225514   4.344   1.495   7.222 -0.5429 -0.2486 -0.2491
  440TIP3    H125515   4.334   1.552   7.146 -1.2378  0.5897  0.4518
  440TIP3    H225516   4.347   1.555   7.297 -0.2532 -1.0801  0.4208
  441TIP3   OH225517   0.800   2.322   9.477  0.2011 -0.0394  0.3225
  441TIP3    H125518   0.806   2.402   9.425  0.7529  0.1044  0.5962
  441TIP3    H225519   0.708   2.315   9.500  0.0467  0.1939 -0.2072
  442TIP3   OH225520   0.848   1.536   9.681 -0.0744  0.1307 -0.2142
  442TIP3    H125521   0.803   1.454   9.703 -0.0986  0.3585  0.6350
  442TIP3    H225522   0.778   1.599   9.666 -0.0571  0.2624  0.2268
  443TIP3   OH225523   1.009   6.285   8.943 -0.5254 -0.1393 -0.2143
  443TIP3    H125524   1.065   6.232   8.886 -1.2328 -1.3302  0.1637
  443TIP3    H225525   1.070   6.340   8.992  0.3092 -1.1658 -0.0477
  444TIP3   OH225526   4.411   1.951   7.133 -0.1977  0.0441 -0.0899
  444TIP3    H125527   4.325   1.960   7.175 -0.5420 -1.4337 -0.4091
  444TIP3    H225528   4.421   1.857   7.119  0.9244  0.2984 -1.2174
  445TIP3   OH225529   1.829   4.920   8.014 -0.0749  0.0207  0.1124
  445TIP3    H125530   1.780   4.845   7.980 -2.3787  1.1710  0.6604
  445TIP3    H225531   1.852   4.895   8.103  1.6942 -1.0854 -0.5970
  446TIP3   OH225532   3.741   0.520   8.700  0.1621 -0.2748  0.1546
  446TIP3    H125533   3.834   0.514   8.677 -0.0928 -0.3088 -0.9293
  446TIP3    H225534   3.717   0.431   8.726  0.8801  0.1233  2.3317
  447TIP3   OH225535   7.680   0.293   8.339  0.1872  0.2858 -0.0102
  447TIP3    H125536   7.607   0.355   8.345 -1.8509 -1.9917  0.2246
  447TIP3    H225537   7.640   0.207   8.348  2.4790 -1.3323 -3.1387
  448TIP3   OH225538   5.880   1.206   9.393 -0.1467  0.5460 -0.0088
  448TIP3    H125539   5.827   1.199   9.314  0.5073 -1.2839 -0.3508
  448TIP3    H225540   5.879   1.299   9.416 -2.1901  0.7818 -0.8782
  449TIP3   OH225541   3.718   1.030   8.763  0.3451  0.2754  0.5622
  449TIP3    H125542   3.624   1.047   8.760  0.3175  0.1924  0.8966
  449TIP3    H225543   3.728   0.959   8.827  0.2705 -2.3438 -2.0840
  450TIP3   OH225544   1.202   5.238   7.082 -0.0298  0.0946  0.2355
  450TIP3    H125545   1.285   5.267   7.045  0.7684 -0.5108  1.4863
  450TIP3    H225546   1.181   5.157   7.035  0.4251 -0.0975  0.3611
  451TIP3   OH225547   0.203   1.778   6.863 -0.2106 -0.2002 -0.3674
  451TIP3    H125548   0.291   1.745   6.883 -0.0358  0.0434 -0.7234
  451TIP3    H225549   0.147   1.701   6.869  0.1509 -0.5102 -0.9298
  452TIP3   OH225550   5.556   3.572   7.902 -0.6464  0.4591  0.0541
  452TIP3    H125551   5.637   3.613   7.929  0.5609 -0.8696 -1.3381
  452TIP3    H225552   5.505   3.562   7.982  1.8095 -1.3463  1.5284
  453TIP3   OH225553   5.612   2.038   7.215  0.0929  0.1767 -0.4493
  453TIP3    H125554   5.547   1.975   7.183  2.8949 -2.1791 -2.0684
  453TIP3    H225555   5.644   2.081   7.136  0.0607  1.8037  0.3892
  454TIP3   OH225556   7.666   1.633   8.258  0.1450 -0.4046 -0.1733
  454TIP3    H125557   7.598   1.566   8.246 -0.3487  0.3155 -1.6662
  454TIP3    H225558   7.746   1.583   8.274 -0.7635 -1.2616  1.9895
  455TIP3   OH225559   3.780   3.008   8.261 -0.0836 -0.2885  0.2975
  455TIP3    H125560   3.791   3.093   8.304  0.7418  0.4784 -1.3062
  455TIP3    H225561   3.694   2.978   8.289  0.2397  0.3362  2.1174
  456TIP3   OH225562   7.680   5.007   8.647 -0.9252 -0.4929  0.2889
  456TIP3    H125563   7.701   5.098   8.669  0.5339 -0.8115  0.3334
  456TIP3    H225564   7.621   4.978   8.716 -1.9469  0.5967 -0.0790
  457TIP3   OH225565   4.299   4.133   9.482 -0.3043 -0.1673  0.1836
  457TIP3    H125566   4.262   4.048   9.506 -0.4971 -0.0042  0.4653
  457TIP3    H225567   4.390   4.129   9.510 -0.6895  0.2610  1.5371
  458TIP3   OH225568   5.936   2.630   6.843  0.0990  0.1203  0.1280
  458TIP3    H125569   5.935   2.724   6.863 -0.3174  0.4848 -1.4593
  458TIP3    H225570   5.844   2.608   6.831  0.1923 -0.5120  0.5771
  459TIP3   OH225571   2.814   1.248   8.372  0.5193  0.6331  0.6927
  459TIP3    H125572   2.835   1.292   8.289 -0.9625  1.3432  0.6566
  459TIP3    H225573   2.770   1.167   8.346  1.1647  0.2458  0.7864
  460TIP3   OH225574   7.254   0.894   8.454  0.0536 -0.6074 -0.0782
  460TIP3    H125575   7.297   0.812   8.479  0.3744 -0.2615  0.5396
  460TIP3    H225576   7.206   0.920   8.532 -0.7039 -0.6162 -0.5374
  461TIP3   OH225577   1.789   1.445   9.291 -0.4676 -0.0720 -0.5223
  461TIP3    H125578   1.756   1.421   9.204  1.1834  0.7489 -1.4274
  461TIP3    H225579   1.883   1.427   9.287  0.0689  2.2291  0.2487
  462TIP3   OH225580   6.030   3.106   9.251  0.0887  0.7445  0.1510
  462TIP3    H125581   6.126   3.110   9.251  0.0808  1.1959  1.1716
  462TIP3    H225582   6.005   3.135   9.338 -1.0126  1.2650 -0.3267
  463TIP3   OH225583   4.249   0.694   9.543 -0.1803  0.3090 -0.0610
  463TIP3    H125584   4.229   0.692   9.449 -0.0234 -0.1770 -0.0875
  463TIP3    H225585   4.192   0.627   9.581  0.3645 -0.0864  0.0693
  464TIP3   OH225586   1.021   1.853   9.414  0.2761 -0.2910  0.1716
  464TIP3    H125587   1.070   1.871   9.333  0.3284  0.6103  0.3909
  464TIP3    H225588   0.949   1.916   9.413 -0.0214 -0.6154  0.5841
  465TIP3   OH225589   0.425   0.409   9.465  0.2680  0.2276 -0.8536
  465TIP3    H125590   0.338   0.441   9.488  1.1673  2.9114 -0.7775
  465TIP3    H225591   0.425   0.317   9.491 -1.4542  0.9920  2.3726
  466TIP3   OH225592   1.691   6.937   8.176 -0.4813 -0.4952  0.5475
  466TIP3    H125593   1.712   7.022   8.213  0.1447 -0.1263 -0.6074
  466TIP3    H225594   1.610   6.952   8.126 -0.2669 -0.5239  0.1858
  467TIP3   OH225595   2.980   0.494   8.523 -0.6311 -0.5152  0.2443
  467TIP3    H125596   3.049   0.481   8.458 -1.1109 -1.5155 -0.0948
  467TIP3    H225597   3.015   0.559   8.584 -0.4572  1.0163 -1.4153
  468TIP3   OH225598   6.550   7.243   8.804 -0.0988  0.2857  0.2099
  468TIP3    H125599   6.461   7.208   8.800 -0.4871  1.3601 -1.1940
  468TIP3    H225600   6.584   7.236   8.715  0.6008  1.4383  0.3527
  469TIP3   OH225601   0.296   6.864   8.849  0.4850 -0.0942  0.1210
  469TIP3    H125602   0.245   6.903   8.920 -0.7730  0.9878 -1.3048
  469TIP3    H225603   0.325   6.780   8.884 -2.2234 -0.7558  1.0834
  470TIP3   OH225604   7.590   4.648   7.786  0.0043  0.2214  0.1338
  470TIP3    H125605   7.558   4.640   7.876 -0.7928 -0.3439 -0.1935
  470TIP3    H225606   7.617   4.559   7.762 -0.2459  0.2725 -0.3510
  471TIP3   OH225607   5.403   2.465   9.494 -0.3149 -0.0272  0.2314
  471TIP3    H125608   5.489   2.430   9.519 -0.4543 -1.4002 -1.0273
  471TIP3    H225609   5.344   2.391   9.503 -0.8072  0.0810 -1.6466
  472TIP3   OH225610   5.260   2.002   9.059 -0.0784  0.4506  0.2125
  472TIP3    H125611   5.167   2.025   9.065 -0.2465 -0.4794  2.0378
  472TIP3    H225612   5.264   1.910   9.088  1.1549 -0.2831 -2.0645
  473TIP3   OH225613   7.420   2.504   8.005  0.0795  0.2253 -0.1051
  473TIP3    H125614   7.409   2.417   8.045  0.7843  0.0936 -0.1746
  473TIP3    H225615   7.474   2.552   8.067 -1.2015  0.9861  0.4399
  474TIP3   OH225616   2.547   5.791   9.120 -0.2431  0.2677  0.1870
  474TIP3    H125617   2.515   5.880   9.103 -2.0951 -0.3154  0.3982
  474TIP3    H225618   2.479   5.752   9.175  0.6079 -1.2481  0.1952
  475TIP3   OH225619   7.325   3.178   8.029  0.4535  0.0243  0.0299
  475TIP3    H125620   7.243   3.221   8.053  1.1173 -0.0276  2.6916
  475TIP3    H225621   7.312   3.149   7.939 -2.2751  0.4101  0.2394
  476TIP3   OH225622   6.996   1.909   8.097  0.0287 -0.3632 -0.3826
  476TIP3    H125623   7.088   1.933   8.100 -0.0301  0.8338 -4.0988
  476TIP3    H225624   6.949   1.990   8.116 -0.2657 -0.6218  0.0096
  477TIP3   OH225625   6.174   2.347   7.537  0.3896 -0.1296  0.3010
  477TIP3    H125626   6.218   2.288   7.476  1.0249 -0.4073  1.0197
  477TIP3    H225627   6.111   2.395   7.482  0.4558 -0.8679 -0.4378
  478TIP3   OH225628   3.474   1.034   8.444  0.0032  0.1884 -0.6618
  478TIP3    H125629   3.511   1.122   8.453  0.6576 -0.2516  1.3019
  478TIP3    H225630   3.430   1.036   8.359  0.6559  2.1627 -1.0131
  479TIP3   OH225631   2.318   5.448   7.839  0.2086 -0.1424 -0.0180
  479TIP3    H125632   2.366   5.394   7.902  0.0711 -0.5406 -0.2533
  479TIP3    H225633   2.245   5.393   7.811 -1.8162  1.2642  2.1312
  480TIP3   OH225634   0.943   7.587   7.134 -0.0663  0.6851 -0.3951
  480TIP3    H125635   0.954   7.593   7.229  2.0373  0.9347 -0.6001
  480TIP3    H225636   0.911   7.499   7.119  0.9022  0.1569  0.4883
  481TIP3   OH225637   1.253   7.077   6.602 -0.1068  0.2101 -0.4203
  481TIP3    H125638   1.331   7.079   6.658 -0.4272 -0.0672  0.0376
  481TIP3    H225639   1.286   7.047   6.517  0.1955 -0.4224 -0.0851
  482TIP3   OH225640   3.236   1.630   6.913  0.1162  0.2769  0.3904
  482TIP3    H125641   3.249   1.702   6.851  1.2366 -0.9662 -0.8847
  482TIP3    H225642   3.160   1.657   6.965 -1.3022  1.0781 -1.9353
  483TIP3   OH225643   6.917   5.261   7.569 -0.0111  0.0771  0.0427
  483TIP3    H125644   7.010   5.249   7.589 -0.2348 -1.3317  0.3230
  483TIP3    H225645   6.871   5.218   7.641 -0.9702  3.2129  1.4882
  484TIP3   OH225646   1.288   3.850   6.899 -0.0405  0.0752 -0.0339
  484TIP3    H125647   1.257   3.899   6.975  0.3604  1.0831 -0.5088
  484TIP3    H225648   1.318   3.916   6.837 -1.7182 -0.6204 -1.7107
  485TIP3   OH225649   6.989   5.077   9.422 -0.3074 -0.1876 -0.2627
  485TIP3    H125650   7.039   5.123   9.489 -0.0208 -0.8414 -0.0121
  485TIP3    H225651   7.036   5.094   9.341 -0.3370  0.1451 -0.2120
  486TIP3   OH225652   6.785   4.898   7.301  0.2536  0.5432  0.1189
  486TIP3    H125653   6.807   4.857   7.385 -0.2281 -0.0446 -0.0281
  486TIP3    H225654   6.826   4.984   7.304  1.5008 -0.0454  0.3419
  487TIP3   OH225655   5.758   5.500   6.566 -0.7375 -0.4032 -0.2436
  487TIP3    H125656   5.673   5.497   6.522 -1.6981 -0.6853  1.5594
  487TIP3    H225657   5.737   5.503   6.659  1.2289  0.2499  0.2243
  488TIP3   OH225658   0.354   2.702   8.417  0.4790 -0.7843 -0.3799
  488TIP3    H125659   0.424   2.677   8.358  1.0331 -0.0785 -0.0403
  488TIP3    H225660   0.316   2.619   8.446  0.6233 -1.1488 -1.2062
  489TIP3   OH225661   7.048   3.070   8.133 -0.3280 -0.1596  0.1987
  489TIP3    H125662   7.081   2.996   8.082  1.0559 -0.1972  1.0933
  489TIP3    H225663   6.975   3.033   8.184 -1.0839 -0.3458 -0.9816
  490TIP3   OH225664   0.150   1.313   9.153  0.0633  0.1930 -0.0557
  490TIP3    H125665   0.145   1.390   9.096 -0.7934  0.8586  0.8891
  490TIP3    H225666   0.217   1.258   9.112 -0.5944  0.5936 -1.7452
  491TIP3   OH225667   1.339   4.691   7.037 -0.3798 -0.8048 -0.3446
  491TIP3    H125668   1.392   4.754   7.086 -1.4760 -0.8803  0.9999
  491TIP3    H225669   1.285   4.744   6.979 -0.8238 -0.5296  0.3078
  492TIP3   OH225670   3.204   0.801   8.074  0.4830 -0.0081  0.0583
  492TIP3    H125671   3.217   0.896   8.082  0.2931  0.1939 -1.6719
  492TIP3    H225672   3.288   0.763   8.102 -0.6121  0.3653  4.5783
  493TIP3   OH225673   1.401   0.016   7.965  0.1632  0.2057 -0.3298
  493TIP3    H125674   1.427   0.048   8.052  0.3263 -0.7717 -0.0144
  493TIP3    H225675   1.461   0.060   7.905 -0.3269  1.3440 -0.0104
  494TIP3   OH225676   7.120   0.415   8.898 -0.5396  0.0745 -0.8191
  494TIP3    H125677   7.141   0.408   8.991 -2.3098  0.9779 -0.3107
  494TIP3    H225678   7.139   0.328   8.863 -0.6423 -0.5404  0.5726
  495TIP3   OH225679   1.903   3.053   6.895  0.4386 -0.2824 -0.2652
  495TIP3    H125680   1.912   2.962   6.923  2.3125 -0.3673 -1.0345
  495TIP3    H225681   1.842   3.049   6.821  0.0921 -0.8303  0.0410
  496TIP3   OH225682   7.401   7.680   9.186 -0.3265 -0.0031 -0.3125
  496TIP3    H125683   7.348   7.624   9.243 -0.7353 -0.1388 -0.8173
  496TIP3    H225684   7.424   7.755   9.240 -1.3382  0.2275 -0.1919
  497TIP3   OH225685   2.566   6.536   8.460  0.2135  0.0307  0.3509
  497TIP3    H125686   2.622   6.555   8.535 -0.2625  0.8219  0.5208
  497TIP3    H225687   2.477   6.537   8.496  0.0925 -1.9131  0.2289
  498TIP3   OH225688   6.575   1.499   7.461  0.5506 -0.0703 -0.1920
  498TIP3    H125689   6.574   1.496   7.365 -3.2924 -1.1715 -0.2802
  498TIP3    H225690   6.550   1.589   7.482  0.5382 -0.0634 -0.2357
  499TIP3   OH225691   5.630   5.159   7.847 -0.0140 -0.5568 -0.2595
  499TIP3    H125692   5.537   5.174   7.858  0.3229  0.1809  2.0015
  499TIP3    H225693   5.665   5.242   7.815 -0.0307 -0.6473 -0.5189
  500TIP3   OH225694   4.477   4.720   9.190  0.2880 -0.0579 -1.2441
  500TIP3    H125695   4.567   4.691   9.179  1.8722  3.2325  1.2027
  500TIP3    H225696   4.467   4.793   9.129 -0.3895  0.2319 -0.8041
  501TIP3   OH225697   7.491   5.959   7.851 -0.1203 -0.3217  0.2691
  501TIP3    H125698   7.520   5.889   7.792  1.0462 -0.0479  0.4873
  501TIP3    H225699   7.463   6.029   7.792 -0.2622 -0.5607  0.0478
  502TIP3   OH225700   3.107   0.810   8.352  0.0296 -0.6223  0.5526
  502TIP3    H125701   3.167   0.835   8.281  0.8970  1.3016  1.8544
  502TIP3    H225702   3.026   0.786   8.308  0.3241  1.1335 -1.0851
  503TIP3   OH225703   3.373   0.322   8.289 -0.6417 -0.1367 -0.6116
  503TIP3    H125704   3.397   0.346   8.200  1.0815 -1.5420 -0.6006
  503TIP3    H225705   3.456   0.294   8.329 -1.3330  0.6608  1.5075
  504TIP3   OH225706   6.189   3.873   9.212  0.2717 -0.1951 -0.0909
  504TIP3    H125707   6.267   3.818   9.204  0.1751 -0.7178  1.9913
  504TIP3    H225708   6.139   3.854   9.133  1.4880 -1.1033 -0.6832
  505TIP3   OH225709   2.537   6.454   9.323 -0.0252 -0.1341  0.0472
  505TIP3    H125710   2.631   6.454   9.303 -0.0802  0.5029 -0.2331
  505TIP3    H225711   2.509   6.364   9.307  0.3440 -0.1020 -0.7981
  506TIP3   OH225712   7.300   2.850   8.771 -0.2450  0.0231  0.2472
  506TIP3    H125713   7.353   2.774   8.797 -0.2452 -0.0262  0.1038
  506TIP3    H225714   7.350   2.891   8.701  0.7551  1.3154  1.6599
  507TIP3   OH225715   1.586   7.435   9.280  0.1239 -0.7412 -0.4566
  507TIP3    H125716   1.512   7.458   9.335  1.4338  1.0512  0.6847
  507TIP3    H225717   1.582   7.340   9.272 -1.0661 -0.8865  1.3703
  508TIP3   OH225718   4.378   2.775   9.041 -0.2051  0.1979  0.1554
  508TIP3    H125719   4.309   2.746   9.101  1.3058 -1.6423  1.1261
  508TIP3    H225720   4.451   2.798   9.098  0.7456 -0.0621 -0.9214
  509TIP3   OH225721   6.430   4.368   9.048 -0.4929  0.2197  0.2582
  509TIP3    H125722   6.391   4.353   8.962 -1.4597  1.2039  0.4980
  509TIP3    H225723   6.371   4.323   9.109 -0.4338  0.4662  0.4991
  510TIP3   OH225724   2.668   2.669   7.293 -0.1261 -0.9654 -0.3896
  510TIP3    H125725   2.681   2.757   7.260  0.4226 -1.4414 -1.5097
  510TIP3    H225726   2.646   2.617   7.216 -0.4685 -1.8058  0.2477
  511TIP3   OH225727   2.672   5.968   8.643  0.3203 -0.1991  0.4337
  511TIP3    H125728   2.684   5.878   8.674  0.1747 -0.1303  0.6971
  511TIP3    H225729   2.761   6.002   8.634  0.3802  0.2506  2.2102
  512TIP3   OH225730   3.004   4.780   7.440 -0.0383 -0.3156 -0.2066
  512TIP3    H125731   3.036   4.783   7.530 -0.5504 -0.3185 -0.0241
  512TIP3    H225732   2.943   4.706   7.438 -1.8249  1.0901  0.0464
  513TIP3   OH225733   6.997   7.617   9.294 -0.1693  0.4683  0.6935
  513TIP3    H125734   7.079   7.568   9.291 -0.5164 -0.1215  0.7733
  513TIP3    H225735   6.931   7.552   9.318 -0.8931  0.6183 -0.7521
  514TIP3   OH225736   0.886   2.406   7.735  0.4430  0.2940  0.2048
  514TIP3    H125737   0.932   2.427   7.654  2.4508  0.8867  1.4530
  514TIP3    H225738   0.851   2.490   7.765  1.6856  0.5121  1.1086
  515TIP3   OH225739   7.510   1.160   9.435 -0.6353  0.1427  0.0654
  515TIP3    H125740   7.577   1.099   9.404  0.9345  2.3939 -1.3265
  515TIP3    H225741   7.433   1.141   9.381  0.6236  0.9260 -2.1492
  516TIP3   OH225742   2.357   4.109   8.522 -0.8923 -0.3263  0.6890
  516TIP3    H125743   2.434   4.135   8.572 -0.0158  1.2247 -1.3055
  516TIP3    H225744   2.390   4.047   8.457 -1.6604 -0.9234  0.8463
  517TIP3   OH225745   6.952   7.466   8.614  0.5426  1.2375  0.0651
  517TIP3    H125746   7.036   7.442   8.654  1.0941 -1.1057 -2.2519
  517TIP3    H225747   6.976   7.524   8.541  0.1673  0.6477 -0.5384
  518TIP3   OH225748   3.955   5.182   7.703  0.3731  0.4782  0.0685
  518TIP3    H125749   3.984   5.217   7.619 -1.7241  1.4597 -0.3157
  518TIP3    H225750   3.893   5.113   7.680  2.5067 -1.8402  0.8549
  519TIP3   OH225751   0.813   2.625   7.916  0.6560 -0.4641  0.3672
  519TIP3    H125752   0.888   2.641   7.973  0.3489  0.1161  0.6181
  519TIP3    H225753   0.737   2.637   7.972  0.3507 -0.0122 -0.1277
  520TIP3   OH225754   3.289   7.619   8.276  0.3936  0.1974 -0.3396
  520TIP3    H125755   3.234   7.632   8.352 -0.2350  0.0514 -0.7616
  520TIP3    H225756   3.270   7.693   8.219  0.0100 -0.2820 -0.8487
  521TIP3   OH225757   6.243   4.808   7.813 -0.4040 -0.6236  0.3078
  521TIP3    H125758   6.227   4.803   7.719 -1.1316  0.2060  0.3736
  521TIP3    H225759   6.326   4.763   7.826 -0.1794 -0.5396 -0.7683
  522TIP3   OH225760   3.999   3.861   7.696 -0.3481 -0.0462  0.5267
  522TIP3    H125761   4.016   3.803   7.621 -1.5123  0.1123  0.1141
  522TIP3    H225762   3.974   3.802   7.767 -1.5469 -0.0794  0.1031
  523TIP3   OH225763   0.447   2.665   6.761  0.3889  0.1674  0.3672
  523TIP3    H125764   0.453   2.580   6.803  0.2048 -0.1989 -0.3356
  523TIP3    H225765   0.421   2.725   6.831 -0.1091 -0.4701  0.7300
  524TIP3   OH225766   2.983   6.179   8.982  0.3024  0.4493  0.3619
  524TIP3    H125767   3.001   6.140   8.897  2.3309  0.6282  0.6801
  524TIP3    H225768   3.064   6.224   9.006 -0.5256  1.1471  1.9955
  525TIP3   OH225769   1.574   5.427   8.304  0.0360 -0.1595  0.0763
  525TIP3    H125770   1.501   5.468   8.350  0.2056 -1.2874  1.4482
  525TIP3    H225771   1.651   5.449   8.356  0.1259 -2.1555  0.9023
  526TIP3   OH225772   0.742   5.724   8.853 -0.8578 -0.3751  0.2350
  526TIP3    H125773   0.669   5.737   8.793 -0.1115 -0.7267 -0.7654
  526TIP3    H225774   0.819   5.746   8.802 -0.1693 -1.0965  0.9363
  527TIP3   OH225775   1.162   0.706   7.385  0.2517  0.0335  0.4694
  527TIP3    H125776   1.101   0.667   7.321  0.6436  0.4180 -0.1519
  527TIP3    H225777   1.187   0.790   7.345  0.7043  0.1590  1.0130
  528TIP3   OH225778   6.485   7.542   7.446 -0.2144 -0.4368  0.1843
  528TIP3    H125779   6.409   7.530   7.388  0.5840 -1.4656 -0.7016
  528TIP3    H225780   6.560   7.533   7.388  0.6033 -0.5695  1.2464
  529TIP3   OH225781   7.242   3.222   7.560 -0.0084 -0.2152 -0.0828
  529TIP3    H125782   7.233   3.262   7.647  2.5254  0.2290  0.0541
  529TIP3    H225783   7.153   3.194   7.537 -1.2486  2.0846  1.4652
  530TIP3   OH225784   4.309   0.522   9.030 -0.5544 -0.0439 -0.7403
  530TIP3    H125785   4.243   0.479   8.977  0.4877  0.0863 -2.2178
  530TIP3    H225786   4.366   0.451   9.060  0.1420  0.0919 -1.6972
  531TIP3   OH225787   3.547   6.837   7.114  0.5309  0.8172 -0.4893
  531TIP3    H125788   3.505   6.910   7.070  0.4923  0.8588 -0.3844
  531TIP3    H225789   3.637   6.838   7.082  0.2239  0.1894 -1.3799
  532TIP3   OH225790   3.983   5.604   7.463 -0.0189 -0.2398 -0.0622
  532TIP3    H125791   4.065   5.624   7.417 -0.4822  1.1552 -0.3420
  532TIP3    H225792   3.988   5.510   7.482  0.2664 -0.8738 -2.8516
  533TIP3   OH225793   2.380   0.058   7.825  0.4819  0.2177  0.0780
  533TIP3    H125794   2.330   0.067   7.744  0.3157 -1.3089 -0.0161
  533TIP3    H225795   2.472   0.065   7.797  0.4115  3.6304  0.3343
  534TIP3   OH225796   2.074   1.200   8.252  0.0355  0.1981 -0.1541
  534TIP3    H125797   2.010   1.238   8.312 -0.4407  0.6785 -0.9558
  534TIP3    H225798   2.071   1.256   8.174  0.5307 -0.5058 -0.6962
  535TIP3   OH225799   3.437   2.513   9.438  0.1704 -0.3002  0.4571
  535TIP3    H125800   3.492   2.590   9.430 -1.2863  0.7148 -0.3558
  535TIP3    H225801   3.460   2.458   9.363  0.6888 -0.3060  0.6192
  536TIP3   OH225802   6.403   0.551   8.490  0.2203 -0.3915 -0.0068
  536TIP3    H125803   6.405   0.647   8.482 -0.8477 -0.4311 -1.1125
  536TIP3    H225804   6.373   0.535   8.579 -0.4006  0.3141 -0.0767
  537TIP3   OH225805   6.487   6.308   8.097 -0.0170 -0.5571  0.0854
  537TIP3    H125806   6.491   6.231   8.154 -3.9991 -1.1853 -0.2080
  537TIP3    H225807   6.461   6.274   8.012  2.0889  0.8063 -1.2053
  538TIP3   OH225808   1.093   4.021   7.495 -0.5302  0.0742  0.2473
  538TIP3    H125809   1.077   4.070   7.414 -2.6177 -1.7130 -0.5523
  538TIP3    H225810   1.157   4.073   7.543  0.7989  1.2242 -2.5453
  539TIP3   OH225811   1.323   5.847   9.496 -0.1625  0.2247 -0.9371
  539TIP3    H125812   1.234   5.842   9.461 -1.2754  0.5387  1.6335
  539TIP3    H225813   1.315   5.818   9.586  2.2702  0.7422 -0.4898
  540TIP3   OH225814   3.363   5.028   7.461 -0.2858  0.1302  0.1112
  540TIP3    H125815   3.311   4.978   7.525  0.4860 -1.1464 -0.2080
  540TIP3    H225816   3.387   4.963   7.395  2.3351  0.4733  0.6377
  541TIP3   OH225817   3.258   1.295   9.472 -0.0407 -0.5846 -0.3464
  541TIP3    H125818   3.210   1.215   9.449  1.1544 -1.7209  0.9168
  541TIP3    H225819   3.346   1.264   9.494  0.4407  1.0940  0.2224
  542TIP3   OH225820   1.972   5.023   6.811  0.3319 -0.0977  0.4446
  542TIP3    H125821   1.951   4.945   6.862 -1.4226 -0.2099 -0.3662
  542TIP3    H225822   1.955   4.998   6.720  1.0355  0.8396  0.0245
  543TIP3   OH225823   0.847   4.337   8.965  0.3139  0.3216 -0.2331
  543TIP3    H125824   0.866   4.416   8.914  0.1372 -0.7745 -2.0956
  543TIP3    H225825   0.928   4.319   9.013  0.3821  1.5544  0.1507
  544TIP3   OH225826   0.657   4.902   8.877 -0.2281 -0.8731  0.5824
  544TIP3    H125827   0.640   4.987   8.919  1.0082 -0.0737 -0.4493
  544TIP3    H225828   0.598   4.900   8.802  0.3661 -0.5045  0.0935
  545TIP3   OH225829   2.881   1.395   7.710 -0.4365 -0.1773 -0.0871
  545TIP3    H125830   2.836   1.374   7.792  1.1608 -2.0700  0.3945
  545TIP3    H225831   2.958   1.444   7.737  0.5025 -1.4640 -0.3338
  546TIP3   OH225832   5.119   4.436   9.058  0.4522 -0.0426  0.3507
  546TIP3    H125833   5.192   4.386   9.022  0.7587  0.8181 -0.2495
  546TIP3    H225834   5.065   4.371   9.103  1.4904 -0.7144  0.6572
  547TIP3   OH225835   5.140   4.753   9.407  0.2240 -0.3051  0.8880
  547TIP3    H125836   5.185   4.837   9.403 -1.0633  0.3678 -1.0729
  547TIP3    H225837   5.048   4.776   9.423 -0.2130 -1.2821 -0.0990
  548TIP3   OH225838   7.520   2.910   6.842  0.0562  0.5102 -0.4891
  548TIP3    H125839   7.543   2.829   6.887 -1.0513  1.1651  1.3931
  548TIP3    H225840   7.492   2.882   6.755 -1.6754 -1.3432  0.5648
  549TIP3   OH225841   3.763   0.596   7.309  0.2166 -0.0115  0.4409
  549TIP3    H125842   3.807   0.537   7.370 -0.6715 -0.5299  0.5946
  549TIP3    H225843   3.747   0.541   7.232 -0.5093  0.0531  0.5418
  550TIP3   OH225844   4.828   3.098   8.837 -0.4608 -0.6901  0.1894
  550TIP3    H125845   4.755   3.083   8.778 -0.1104  0.4815 -0.5748
  550TIP3    H225846   4.788   3.113   8.922 -1.2898  2.0359 -0.6004
  551TIP3   OH225847   7.328   5.233   7.405 -0.2693  0.0665 -0.2378
  551TIP3    H125848   7.398   5.258   7.345  1.5843 -1.9216  0.9146
  551TIP3    H225849   7.279   5.165   7.359 -1.0490  0.9696 -0.7759
  552TIP3   OH225850   5.760   5.390   7.763  0.2263  0.3453  0.0203
  552TIP3    H125851   5.698   5.450   7.806  0.7120  1.0676 -0.2670
  552TIP3    H225852   5.830   5.447   7.732  0.3901 -0.3068 -0.8222
  553TIP3   OH225853   2.575   6.295   8.817  0.2178  0.1824 -0.3037
  553TIP3    H125854   2.594   6.383   8.786  1.7777  0.0093  0.0556
  553TIP3    H225855   2.654   6.245   8.796 -0.8461 -1.2786 -1.0132
  554TIP3   OH225856   5.219   4.887   8.977  0.1564 -0.5129  0.0619
  554TIP3    H125857   5.218   4.813   9.038  2.8966 -0.0746  0.7552
  554TIP3    H225858   5.228   4.964   9.034 -3.0408  0.5094 -0.6135
  555TIP3   OH225859   6.028   7.272   9.294 -0.6642  0.4201 -0.4086
  555TIP3    H125860   6.005   7.338   9.360 -1.3133  0.1682 -0.3743
  555TIP3    H225861   5.961   7.204   9.304 -0.7065  0.3306 -1.2617
  556TIP3   OH225862   1.759   7.095   8.696 -0.1161  0.0978  0.0327
  556TIP3    H125863   1.677   7.046   8.683 -0.7832  1.4978 -1.4026
  556TIP3    H225864   1.731   7.187   8.703  1.0252  0.3368  3.3091
  557TIP3   OH225865   2.964   1.178   8.821  0.0790  0.3149  0.2901
  557TIP3    H125866   2.984   1.249   8.761  0.9954 -0.5047 -0.4233
  557TIP3    H225867   2.908   1.119   8.771 -1.5580  1.0309  1.2294
  558TIP3   OH225868   5.879   5.781   8.284  0.1373 -0.1371  0.2290
  558TIP3    H125869   5.871   5.728   8.364  1.0981 -0.6858 -0.0255
  558TIP3    H225870   5.973   5.797   8.275 -0.0304  0.5624 -0.3883
  559TIP3   OH225871   7.287   5.663   7.222  0.1102  0.0571 -0.1930
  559TIP3    H125872   7.309   5.598   7.155 -0.1270  0.7860 -0.9944
  559TIP3    H225873   7.212   5.711   7.186 -0.1398  0.3476  0.6748
  560TIP3   OH225874   6.786   5.219   8.533 -0.3829  0.2888  0.1716
  560TIP3    H125875   6.851   5.240   8.467  1.1210 -2.6601  0.5704
  560TIP3    H225876   6.781   5.298   8.588  2.0094  1.0077 -0.5519
  561TIP3   OH225877   0.582   4.963   8.391 -0.0649 -0.2930 -0.1369
  561TIP3    H125878   0.603   5.043   8.343  0.2760 -0.7515 -0.7794
  561TIP3    H225879   0.652   4.902   8.367  0.7869 -0.1721  1.8871
  562TIP3   OH225880   3.858   1.258   8.899  0.0366  0.6349  0.2580
  562TIP3    H125881   3.795   1.200   8.857  0.5203  1.0102 -1.0394
  562TIP3    H225882   3.831   1.261   8.990 -0.0509 -1.5724  0.3671
  563TIP3   OH225883   2.392   0.256   8.053 -0.5262 -0.1884  0.0517
  563TIP3    H125884   2.371   0.218   7.968  0.8410  1.5458 -1.1466
  563TIP3    H225885   2.350   0.342   8.052  0.8498  0.5265  0.3938
  564TIP3   OH225886   1.030   3.144   8.948  0.5212 -0.3319  0.3759
  564TIP3    H125887   1.094   3.079   8.979  1.2727  0.4633  0.5298
  564TIP3    H225888   1.008   3.194   9.027 -1.4062 -1.4944  0.6392
  565TIP3   OH225889   7.464   5.690   7.428  0.1007 -0.4555 -0.0942
  565TIP3    H125890   7.548   5.671   7.388 -0.9349 -1.1889 -2.0545
  565TIP3    H225891   7.400   5.676   7.358 -1.4649  2.8693  0.4640
  566TIP3   OH225892   0.292   0.478   8.273  0.5552 -0.2417 -0.1949
  566TIP3    H125893   0.306   0.403   8.216 -0.5271  1.0830 -2.3234
  566TIP3    H225894   0.337   0.550   8.229  1.1540  0.5139  1.5479
  567TIP3   OH225895   5.957   3.034   7.579 -0.3554  0.4288 -0.1490
  567TIP3    H125896   5.872   3.071   7.556  0.2488  1.3393 -0.9599
  567TIP3    H225897   5.939   2.941   7.594 -1.2406  0.3262 -1.6930
  568TIP3   OH225898   2.902   5.971   8.336  0.3291 -0.1236  0.1477
  568TIP3    H125899   2.903   5.984   8.241  0.8497  0.3677  0.2153
  568TIP3    H225900   2.971   6.028   8.368  0.7806 -0.9876  0.7378
  569TIP3   OH225901   2.461   6.943   8.626 -1.1891 -0.0148 -0.4942
  569TIP3    H125902   2.502   7.026   8.650  1.5175 -1.3101 -0.2138
  569TIP3    H225903   2.484   6.932   8.533 -2.6944  0.1429 -0.9026
  570TIP3   OH225904   0.395   7.299   9.082  0.0930 -0.2799 -0.1959
  570TIP3    H125905   0.369   7.296   9.174  0.6287 -0.6446 -0.0484
  570TIP3    H225906   0.374   7.388   9.054  0.7865  0.1324  0.5476
  571TIP3   OH225907   2.400   1.441   7.551  0.7584  0.1509  0.1420
  571TIP3    H125908   2.443   1.439   7.466  0.2976 -0.5182 -0.0825
  571TIP3    H225909   2.311   1.409   7.534 -0.0955  2.1947  0.4662
  572TIP3   OH225910   0.450   2.618   7.632  0.0771  0.6130  1.0179
  572TIP3    H125911   0.544   2.627   7.620 -0.1225  1.3613 -0.1864
  572TIP3    H225912   0.419   2.578   7.551 -0.6719  0.6143  1.2961
  573TIP3   OH225913   1.592   3.629   8.263 -0.6121 -0.4775  0.0754
  573TIP3    H125914   1.594   3.613   8.168  0.6155 -0.5018  0.0956
  573TIP3    H225915   1.614   3.722   8.272  3.1115 -1.2312  0.4609
  574TIP3   OH225916   5.641   7.182   8.359  0.2504 -0.4846 -0.0175
  574TIP3    H125917   5.569   7.203   8.419  0.6787  1.5475 -0.1343
  574TIP3    H225918   5.635   7.087   8.346 -1.4423 -0.5858  1.1847
  575TIP3   OH225919   4.078   2.117   7.990 -0.3515  0.4156  0.1946
  575TIP3    H125920   4.077   2.196   7.936  0.1407 -0.4939 -1.2016
  575TIP3    H225921   4.169   2.086   7.986 -0.7196 -0.6898 -0.0183
  576TIP3   OH225922   4.486   5.336   8.949  0.2388 -0.0086  0.0454
  576TIP3    H125923   4.439   5.418   8.967 -0.2193 -0.4108  0.7423
  576TIP3    H225924   4.542   5.324   9.026 -1.2498 -1.4159  0.9905
  577TIP3   OH225925   1.106   1.670   7.550 -0.1667  0.3230 -0.1646
  577TIP3    H125926   1.188   1.687   7.597 -1.0992  0.1333  1.5895
  577TIP3    H225927   1.051   1.745   7.569 -0.9155 -0.2199 -0.1375
  578TIP3   OH225928   3.315   0.801   9.427  0.0167  0.7101 -0.3912
  578TIP3    H125929   3.392   0.750   9.449  0.0097  1.4472  1.5634
  578TIP3    H225930   3.248   0.737   9.403 -0.2481 -0.3423  2.7875
  579TIP3   OH225931   5.858   1.538   7.332  0.2650 -0.8234  0.4386
  579TIP3    H125932   5.764   1.544   7.348  0.1217 -2.5266  0.4523
  579TIP3    H225933   5.884   1.454   7.371  1.6184 -0.7774 -0.2899
  580TIP3   OH225934   5.178   3.902   8.625 -0.4378  0.0646 -0.1425
  580TIP3    H125935   5.157   3.994   8.642  2.9099  0.3535  3.7962
  580TIP3    H225936   5.129   3.853   8.691  2.3891 -0.2183  1.9197
  581TIP3   OH225937   0.248   7.117   8.967 -0.2665  0.1251  0.2455
  581TIP3    H125938   0.248   7.146   8.875 -3.3157 -0.2255  0.0351
  581TIP3    H225939   0.299   7.183   9.013 -0.0712  1.2307 -1.4539
  582TIP3   OH225940   0.336   0.382   8.851 -0.0712 -0.1509 -0.9788
  582TIP3    H125941   0.258   0.340   8.886 -2.2376  3.4159 -0.9841
  582TIP3    H225942   0.358   0.449   8.917  2.2695 -0.2661 -1.5591
  583TIP3   OH225943   3.948   5.716   9.066 -0.4638  0.2146 -0.0123
  583TIP3    H125944   3.955   5.640   9.123  1.1107 -1.4454 -2.2179
  583TIP3    H225945   4.033   5.760   9.074 -0.0273 -0.3287 -1.3643
  584TIP3   OH225946   5.618   3.465   8.182  0.2321  0.3969  0.1891
  584TIP3    H125947   5.581   3.401   8.242 -1.1278  0.9636 -0.0073
  584TIP3    H225948   5.553   3.536   8.179  1.8529  2.0028  0.7290
  585TIP3   OH225949   6.683   6.128   8.618 -0.2152  0.3677  0.3137
  585TIP3    H125950   6.639   6.052   8.657  0.3930 -1.0140 -1.5455
  585TIP3    H225951   6.612   6.190   8.601 -0.7789  0.0780  1.4964
  586TIP3   OH225952   1.145   6.594   7.984 -0.0371 -0.2556  0.1064
  586TIP3    H125953   1.193   6.524   8.028 -1.0927 -0.9582  0.1934
  586TIP3    H225954   1.190   6.675   8.010 -0.8157 -0.5883  2.8373
  587TIP3   OH225955   3.574   5.874   9.356  0.5780  0.2666 -0.5963
  587TIP3    H125956   3.497   5.823   9.332  1.3112 -0.7239 -0.9220
  587TIP3    H225957   3.556   5.962   9.325 -0.5328  0.1135 -0.4208
  588TIP3   OH225958   0.234   4.477   9.627 -0.3481  0.2026  0.2549
  588TIP3    H125959   0.296   4.458   9.697 -0.5389  1.9521  0.9398
  588TIP3    H225960   0.288   4.488   9.549  0.0099 -0.2271  0.4384
  589TIP3   OH225961   0.165   2.167   8.891 -0.1915  0.3708  0.0909
  589TIP3    H125962   0.135   2.150   8.981 -2.2589 -0.5445 -0.6976
  589TIP3    H225963   0.193   2.082   8.859 -1.8675  0.1554 -0.9126
  590TIP3   OH225964   0.205   6.374   7.326 -0.6070 -0.2667 -0.5795
  590TIP3    H125965   0.219   6.358   7.233 -0.9353  0.4702 -0.7570
  590TIP3    H225966   0.292   6.398   7.360 -0.6380  0.2560 -0.8607
  591TIP3   OH225967   0.347   3.722   8.896 -0.1935 -0.5218 -0.4614
  591TIP3    H125968   0.438   3.711   8.922  0.4266  1.8011 -1.3888
  591TIP3    H225969   0.346   3.706   8.801 -0.7090 -0.3300 -0.4958
  592TIP3   OH225970   1.431   4.403   7.360 -0.1745 -0.0976  0.5051
  592TIP3    H125971   1.521   4.391   7.329  0.0970  0.8714  0.8640
  592TIP3    H225972   1.434   4.485   7.409 -1.5126  0.5543 -0.4490
  593TIP3   OH225973   1.072   5.571   7.862  0.3462 -0.5085  0.0102
  593TIP3    H125974   1.103   5.554   7.951  1.8256  2.6861  0.2439
  593TIP3    H225975   1.149   5.605   7.816 -0.8161 -0.4310 -1.9709
  594TIP3   OH225976   3.691   4.564   9.251 -0.3606  0.0335  0.2001
  594TIP3    H125977   3.734   4.529   9.174 -1.3796 -1.9406  0.4404
  594TIP3    H225978   3.614   4.507   9.263 -0.8099  0.9448  2.0380
  595TIP3   OH225979   4.399   2.388   9.132 -0.5445  0.2456  0.5203
  595TIP3    H125980   4.422   2.297   9.150 -2.2018 -0.7495 -1.8743
  595TIP3    H225981   4.478   2.424   9.091  0.2236  0.0200  1.7403
  596TIP3   OH225982   1.076   5.187   9.594  0.5805 -0.2201  0.7218
  596TIP3    H125983   1.165   5.154   9.607  0.0120 -1.7690  0.9491
  596TIP3    H225984   1.038   5.128   9.529 -0.5837 -0.1841  1.3468
  597TIP3   OH225985   5.236   5.119   9.113 -0.0878 -0.0163  0.0835
  597TIP3    H125986   5.293   5.186   9.077  0.2121 -1.1532 -1.6715
  597TIP3    H225987   5.158   5.167   9.142  1.1571  1.3810  1.2725
  598TIP3   OH225988   7.355   1.765   8.095  0.0656  0.3240 -0.4232
  598TIP3    H125989   7.292   1.773   8.023  0.0424  2.4910 -0.1991
  598TIP3    H225990   7.379   1.855   8.117  0.1417 -0.2777  2.2545
  599TIP3   OH225991   6.928   5.809   7.645 -0.2387 -0.0745 -0.3524
  599TIP3    H125992   6.923   5.714   7.655  0.9301 -0.4360 -2.6895
  599TIP3    H225993   7.021   5.829   7.656 -0.0922  0.4411 -2.2187
  600TIP3   OH225994   7.045   0.786   7.447 -0.6610 -0.1341 -0.0049
  600TIP3    H125995   7.064   0.766   7.538 -1.2500  1.1357  0.4295
  600TIP3    H225996   6.952   0.765   7.436 -0.6995  0.1156 -0.1881
  601TIP3   OH225997   1.316   5.408   9.419 -0.6051 -0.5642 -0.0664
  601TIP3    H125998   1.353   5.375   9.500 -1.9671 -0.4590  0.6297
  601TIP3    H225999   1.296   5.330   9.367  0.9584 -0.6100 -0.6574
  602TIP3   OH226000   0.782   2.903   6.873  0.1528 -0.0202  0.1117
  602TIP3    H126001   0.710   2.884   6.812  0.8467 -1.5544 -0.2662
  602TIP3    H226002   0.758   2.988   6.911 -1.4628 -0.1163 -0.5769
  603TIP3   OH226003   5.744   6.820   8.587 -0.0488 -0.0873  0.4133
  603TIP3    H126004   5.771   6.747   8.532  0.6497  0.7711 -0.4134
  603TIP3    H226005   5.648   6.818   8.585 -0.1536  1.5680 -3.1844
  604TIP3   OH226006   0.266   3.400   7.388 -0.1597  0.1623 -0.2371
  604TIP3    H126007   0.300   3.417   7.300 -0.8050 -0.4823 -0.6159
  604TIP3    H226008   0.311   3.320   7.416  1.0679  1.1045  0.5808
  605TIP3   OH226009   6.801   6.919   7.575 -0.7579 -0.1383  0.4099
  605TIP3    H126010   6.734   6.901   7.510 -0.1359 -0.8887 -0.0300
  605TIP3    H226011   6.881   6.882   7.539  0.0289  1.2141  0.6734
  606TIP3   OH226012   2.174   4.827   6.980  0.0373  0.4431 -0.1088
  606TIP3    H126013   2.171   4.735   6.954 -0.3250  0.4591 -0.1297
  606TIP3    H226014   2.211   4.873   6.905  0.1424  0.3257 -0.1288
  607TIP3   OH226015   4.171   1.694   6.926 -0.1420  0.9074  0.4303
  607TIP3    H126016   4.142   1.622   6.869  1.1466  0.9889 -0.3992
  607TIP3    H226017   4.095   1.716   6.979 -0.9347 -0.2226 -0.1955
  608TIP3   OH226018   6.741   7.173   7.346 -0.4132  0.3755  0.1123
  608TIP3    H126019   6.773   7.224   7.420  0.2752 -0.1017  0.1553
  608TIP3    H226020   6.677   7.229   7.303  1.2078  1.8004 -0.5793
  609TIP3   OH226021   2.204   1.882   9.056  0.1463  0.3587 -0.5438
  609TIP3    H126022   2.190   1.971   9.025  1.6844  1.8724  2.6750
  609TIP3    H226023   2.298   1.877   9.074  0.0525 -1.8432 -0.3378
  610TIP3   OH226024   2.686   4.409   7.115 -0.5282  0.4831 -0.0056
  610TIP3    H126025   2.731   4.373   7.038 -2.0784 -2.5611  0.3789
  610TIP3    H226026   2.724   4.362   7.189 -0.4818  1.9260  0.9220
  611TIP3   OH226027   1.386   6.452   7.551 -0.6379  0.0450  0.5629
  611TIP3    H126028   1.334   6.503   7.612 -1.7946 -1.2513  0.7116
  611TIP3    H226029   1.470   6.441   7.595 -0.6290  1.1447  0.8457
  612TIP3   OH226030   3.560   0.166   8.495  0.0562  0.6414  0.0194
  612TIP3    H126031   3.541   0.076   8.520  1.3446  0.5622  0.8012
  612TIP3    H226032   3.628   0.159   8.428 -1.9461  0.9427 -2.1579
  613TIP3   OH226033   1.664   1.033   8.584  0.3419  0.2319  0.0140
  613TIP3    H126034   1.741   1.031   8.642 -0.6542  0.4231  1.4001
  613TIP3    H226035   1.592   1.000   8.639 -0.2359 -1.7257 -1.8096
  614TIP3   OH226036   1.548   6.735   8.490  0.2726 -0.0066  0.4886
  614TIP3    H126037   1.502   6.797   8.546  2.4439  0.2776  2.0916
  614TIP3    H226038   1.525   6.649   8.525  1.0586  0.1432  1.4196
  615TIP3   OH226039   2.425   0.051   8.253 -0.3236 -0.2337  0.3775
  615TIP3    H126040   2.424   0.139   8.214 -0.2398 -0.5442 -0.3343
  615TIP3    H226041   2.437   0.067   8.346  2.9402  0.4539 -0.0299
  616TIP3   OH226042   5.000   7.473   7.987 -0.0717 -0.6370 -0.2335
  616TIP3    H126043   5.021   7.540   7.922  0.5719 -1.1462 -0.5620
  616TIP3    H226044   4.948   7.519   8.053  0.7985  0.3154 -0.1803
  617TIP3   OH226045   1.308   5.778   8.180  0.5330 -0.3340 -0.1863
  617TIP3    H126046   1.371   5.785   8.108  0.7457  0.2232  0.0535
  617TIP3    H226047   1.244   5.714   8.149  0.3378  0.2723 -1.0994
  618TIP3   OH226048   6.261   6.952   8.527 -0.1509 -0.2347 -0.8429
  618TIP3    H126049   6.177   6.998   8.519  0.6276  1.8789  1.6301
  618TIP3    H226050   6.237   6.864   8.556 -1.5213  0.3543 -0.0818
  619TIP3   OH226051   7.575   3.460   8.029  0.0659  0.6262 -0.0924
  619TIP3    H126052   7.609   3.464   8.118 -0.4003  0.1564  0.1157
  619TIP3    H226053   7.652   3.447   7.974  0.6565  3.2185 -0.0122
  620TIP3   OH226054   3.544   1.344   8.201 -0.5987 -0.5242 -0.0829
  620TIP3    H126055   3.451   1.346   8.227 -0.7014 -0.5585 -0.4385
  620TIP3    H226056   3.586   1.407   8.258 -1.0670  0.4404 -0.7825
  621TIP3   OH226057   4.619   1.240   9.560  0.2693 -0.3223  0.4159
  621TIP3    H126058   4.557   1.210   9.627  1.4070  2.9151  3.2289
  621TIP3    H226059   4.579   1.318   9.523  1.8905  0.9337  1.1752
  622TIP3   OH226060   2.826   1.576   7.519 -0.4240  0.1877 -0.1431
  622TIP3    H126061   2.836   1.510   7.587  0.3528  0.8831  0.4268
  622TIP3    H226062   2.744   1.620   7.539 -1.5417 -1.3171 -1.1734
  623TIP3   OH226063   5.912   1.463   7.859 -0.4938  0.0682  0.7999
  623TIP3    H126064   6.007   1.470   7.866 -0.3446  0.1085 -0.8579
  623TIP3    H226065   5.896   1.373   7.834 -0.9659 -0.1211  1.7166
  624TIP3   OH226066   7.349   4.295   7.889  0.9093 -0.0388 -0.4607
  624TIP3    H126067   7.273   4.238   7.889  0.9253 -0.0673  0.0832
  624TIP3    H226068   7.332   4.358   7.819 -1.0353  1.7805  1.4963
  625TIP3   OH226069   2.331   1.232   8.476 -0.4952  0.7279 -0.3211
  625TIP3    H126070   2.401   1.289   8.444 -1.2039  1.4401 -0.6159
  625TIP3    H226071   2.359   1.144   8.450  0.2590  1.0081 -0.4839
  626TIP3   OH226072   0.983   0.307   7.571  0.0158 -0.2715  0.4584
  626TIP3    H126073   1.016   0.288   7.658  1.5224 -2.1246 -0.4501
  626TIP3    H226074   0.990   0.403   7.563 -0.2423 -0.0627  2.3524
  627TIP3   OH226075   0.249   3.996   7.386 -0.7262 -0.3162 -0.4093
  627TIP3    H126076   0.230   4.077   7.435 -1.1963 -0.8896  0.3821
  627TIP3    H226077   0.306   4.024   7.315 -1.1317  0.7668 -0.3291
  628TIP3   OH226078   6.717   0.764   8.142 -0.3510 -0.0672 -0.4229
  628TIP3    H126079   6.801   0.775   8.099 -1.6196  4.1633 -2.3529
  628TIP3    H226080   6.726   0.811   8.225 -0.4344 -0.8245  0.0226
  629TIP3   OH226081   3.820   0.032   8.181 -0.1737  0.0595  0.9500
  629TIP3    H126082   3.869   0.075   8.110 -1.4830 -0.2199 -0.1641
  629TIP3    H226083   3.756   0.097   8.209 -1.5112 -0.7505 -0.0773
  630TIP3   OH226084   0.707   2.025   7.807  0.2079 -0.1812 -0.3470
  630TIP3    H126085   0.697   2.037   7.901  0.2170 -0.9460 -0.2500
  630TIP3    H226086   0.618   2.020   7.773  0.2075 -0.0763 -0.3639
  631TIP3   OH226087   0.396   2.132   9.316  0.0434 -0.2776  0.2016
  631TIP3    H126088   0.448   2.203   9.356 -0.0064  0.4086 -0.9041
  631TIP3    H226089   0.348   2.094   9.388  1.1707 -0.1253  1.0639
  632TIP3   OH226090   4.143   3.338   8.948 -0.5298  0.4571  0.0751
  632TIP3    H126091   4.207   3.392   8.993 -1.1905  1.5520 -0.2515
  632TIP3    H226092   4.186   3.312   8.866 -0.6423  1.5895 -0.3719
  633TIP3   OH226093   0.083   5.585   8.057  0.0982  0.2973 -0.2916
  633TIP3    H126094   0.002   5.547   8.092  1.2504 -0.9961  1.1134
  633TIP3    H226095   0.091   5.550   7.969 -1.0788  0.8020 -0.6129
  634TIP3   OH226096   7.532   5.569   8.547  0.5707  0.2204  0.7535
  634TIP3    H126097   7.531   5.480   8.513 -2.3099  0.8590 -1.2505
  634TIP3    H226098   7.565   5.622   8.475  1.7020  0.8702  1.7211
  635TIP3   OH226099   2.994   1.785   7.818 -0.5500  0.6341 -0.5491
  635TIP3    H126100   3.050   1.749   7.749  1.1293  1.5097  0.2899
  635TIP3    H226101   2.971   1.872   7.787 -1.1108  0.4324 -0.7036
  636TIP3   OH226102   2.684   0.653   7.424  0.4479  0.4932 -0.0402
  636TIP3    H126103   2.672   0.645   7.519  1.3070  0.2183  0.0568
  636TIP3    H226104   2.596   0.650   7.388  0.1998 -4.0476  0.3931
  637TIP3   OH226105   5.069   4.168   8.655 -1.0163 -0.0183  0.6355
  637TIP3    H126106   4.988   4.148   8.608 -1.0085 -0.0767  0.6471
  637TIP3    H226107   5.063   4.262   8.672 -1.1539 -0.0533  0.7753
  638TIP3   OH226108   2.366   3.475   9.374  0.6544 -0.4253  0.0643
  638TIP3    H126109   2.272   3.481   9.359  0.4166  0.6314  1.6398
  638TIP3    H226110   2.391   3.388   9.342 -1.2140 -1.4976  1.3506
  639TIP3   OH226111   1.474   0.273   7.469 -0.5404  0.4180  0.2028
  639TIP3    H126112   1.486   0.232   7.555  1.2557 -0.9610 -0.6254
  639TIP3    H226113   1.563   0.294   7.440 -1.0945  0.7338 -1.3804
  640TIP3   OH226114   3.247   1.346   8.224 -0.1426  0.1234 -0.2925
  640TIP3    H126115   3.228   1.439   8.230 -3.6768 -0.4730 -0.0784
  640TIP3    H226116   3.221   1.322   8.135 -0.6624 -0.8900  0.1164
  641TIP3   OH226117   6.494   7.029   7.677  0.2685 -0.1884 -0.0646
  641TIP3    H126118   6.528   7.062   7.594  0.8202 -0.7826 -0.0777
  641TIP3    H226119   6.548   7.071   7.744 -1.0082  1.3165  0.0881
  642TIP3   OH226120   0.255   1.331   8.740 -0.1997 -0.3700  0.1975
  642TIP3    H126121   0.222   1.413   8.702  1.1704 -1.1333 -2.9096
  642TIP3    H226122   0.198   1.263   8.705  0.0974 -0.9739  0.8571
  643TIP3   OH226123   1.607   6.458   8.570  0.1233 -0.1030 -0.1559
  643TIP3    H126124   1.681   6.506   8.534 -0.1364  0.3128 -0.1417
  643TIP3    H226125   1.584   6.394   8.503 -2.0390  2.3641 -1.9754
  644TIP3   OH226126   2.069   6.881   7.761  0.1752  0.3093  0.1842
  644TIP3    H126127   2.009   6.946   7.797 -0.5223 -1.0994  1.7237
  644TIP3    H226128   2.102   6.834   7.838 -0.0280 -1.7127 -0.9126
  645TIP3   OH226129   5.520   7.050   7.603 -0.2993  0.0854 -0.1106
  645TIP3    H126130   5.531   6.976   7.663 -2.5075  0.1202  0.4469
  645TIP3    H226131   5.568   7.025   7.524 -0.7034 -1.8009  0.1895
  646TIP3   OH226132   6.812   3.113   8.539  0.1637  0.5661  0.1042
  646TIP3    H126133   6.723   3.089   8.567 -1.1856  3.2035 -1.5065
  646TIP3    H226134   6.863   3.115   8.620 -1.6008  0.3368  1.2655
  647TIP3   OH226135   4.845   0.533   9.193 -0.0314 -0.3135 -0.0594
  647TIP3    H126136   4.876   0.539   9.103 -0.0221 -1.2773 -0.1259
  647TIP3    H226137   4.786   0.608   9.203 -0.8784 -0.8175 -1.1991
  648TIP3   OH226138   4.907   1.813   8.222 -0.1270  0.6187 -0.4186
  648TIP3    H126139   4.851   1.856   8.158  0.3089  1.6703 -0.1075
  648TIP3    H226140   4.964   1.757   8.170 -1.5133 -0.5829 -0.7349
  649TIP3   OH226141   1.938   4.205   7.912  0.1405  0.0079 -0.4150
  649TIP3    H126142   1.973   4.122   7.880 -0.3912  0.1965 -1.5761
  649TIP3    H226143   1.850   4.209   7.874  0.4628  1.4753 -1.0615
  650TIP3   OH226144   3.206   1.090   8.741 -0.7554 -0.5378  0.1329
  650TIP3    H126145   3.128   1.098   8.796 -1.3235  0.2807 -0.7623
  650TIP3    H226146   3.180   1.128   8.657  0.1881 -1.4690 -0.6127
  651TIP3   OH226147   4.094   0.038   7.367  0.2672 -0.3367  0.3768
  651TIP3    H126148   4.045  -0.016   7.428 -1.3285  0.5513 -0.0781
  651TIP3    H226149   4.109  -0.019   7.291  0.9344 -0.9508  0.9481
  652TIP3   OH226150   3.607   2.679   8.851 -0.5271 -0.1427  0.6673
  652TIP3    H126151   3.537   2.619   8.825 -0.6282 -0.0728  0.7796
  652TIP3    H226152   3.686   2.626   8.846 -0.5252 -0.0875  0.0632
  653TIP3   OH226153   7.615   1.389   7.919 -0.3813 -0.3231 -0.0736
  653TIP3    H126154   7.631   1.308   7.967 -1.9033 -0.0296  0.9921
  653TIP3    H226155   7.556   1.364   7.848  0.4178 -0.4206 -0.7178
  654TIP3   OH226156   4.301   0.901   8.727  0.2649 -0.2892 -0.6649
  654TIP3    H126157   4.222   0.884   8.779 -0.2667  0.6608 -1.1516
  654TIP3    H226158   4.286   0.853   8.646 -0.8039  1.5908 -1.6419
  655TIP3   OH226159   3.868   6.149   7.774  0.4129  0.0722 -0.3001
  655TIP3    H126160   3.824   6.112   7.851 -0.3693 -2.4831 -1.8743
  655TIP3    H226161   3.956   6.111   7.776  0.6903  0.7136 -0.1966
  656TIP3   OH226162   1.678   2.731   7.485 -0.3505  0.1342 -0.1321
  656TIP3    H126163   1.687   2.717   7.579  0.4606 -1.2486 -0.3846
  656TIP3    H226164   1.616   2.664   7.457  1.2820 -1.1157 -0.9279
  657TIP3   OH226165   1.699   3.220   8.875 -0.1940 -0.3093 -0.6384
  657TIP3    H126166   1.683   3.310   8.846 -1.2075 -0.7218 -1.4472
  657TIP3    H226167   1.698   3.225   8.970  0.5933  0.6666 -0.6625
  658TIP3   OH226168   1.180   2.700   9.796 -0.3528  0.6705  0.4025
  658TIP3    H126169   1.270   2.699   9.828 -0.3701 -0.9380  0.5161
  658TIP3    H226170   1.144   2.783   9.827  0.9628  1.1416  0.7203
  659TIP3   OH226171   1.844   6.797   6.692  0.5675  0.5158  0.3907
  659TIP3    H126172   1.925   6.746   6.699  1.7972  2.2172 -0.6994
  659TIP3    H226173   1.872   6.888   6.696 -1.4903  1.1626  1.5219
  660TIP3   OH226174   1.557   0.990   9.014  0.4933  0.0483  0.1530
  660TIP3    H126175   1.505   1.070   9.022 -2.0298 -1.1286 -2.7229
  660TIP3    H226176   1.550   0.949   9.100  0.9295  2.2923  1.3506
  661TIP3   OH226177   1.480   1.096   6.865  0.2708 -0.2790  0.3522
  661TIP3    H126178   1.406   1.143   6.824  0.6929 -0.4519 -0.6506
  661TIP3    H226179   1.450   1.006   6.872  0.2709 -0.2906  0.2173
  662TIP3   OH226180   5.593   3.653   8.989  0.3174 -0.1199  0.5709
  662TIP3    H126181   5.557   3.621   8.906 -0.0597  1.3784  0.1143
  662TIP3    H226182   5.669   3.598   9.006 -1.1210 -2.1904  0.6148
  663TIP3   OH226183   6.014   2.340   6.376 -0.1608 -0.1065 -0.4130
  663TIP3    H126184   5.972   2.277   6.318 -0.5779 -0.1853 -0.0355
  663TIP3    H226185   5.948   2.359   6.443 -0.1993  1.0527 -0.7518
  664TIP3   OH226186   2.827   1.997   7.443  0.4935  0.6322  0.1929
  664TIP3    H126187   2.744   2.016   7.488 -0.1468 -0.2470 -0.5848
  664TIP3    H226188   2.890   1.985   7.514 -0.8251 -2.2845  1.0328
  665TIP3   OH226189   7.465   0.598   8.247 -0.0447  0.1444  0.2241
  665TIP3    H126190   7.548   0.646   8.247  0.3020 -0.4148  1.1781
  665TIP3    H226191   7.476   0.531   8.180  0.4197 -0.1562  0.5970
  666TIP3   OH226192   5.295   1.299   9.685  0.1595  0.6861  0.3437
  666TIP3    H126193   5.209   1.275   9.651  0.2506  2.0755 -1.0161
  666TIP3    H226194   5.354   1.235   9.647  0.0101  1.1544 -0.7283
  667TIP3   OH226195   5.064   2.403   7.853  0.3352  0.2279  0.0861
  667TIP3    H126196   5.041   2.496   7.857  1.9488  0.6123  3.6040
  667TIP3    H226197   5.137   2.399   7.792 -1.3881  0.7410 -2.1682
  668TIP3   OH226198   7.630   3.469   8.601 -0.1818  0.6553  0.0460
  668TIP3    H126199   7.707   3.437   8.553 -0.5658 -0.4108  0.1125
  668TIP3    H226200   7.660   3.477   8.692 -0.2453 -0.1365  0.1441
  669TIP3   OH226201   2.745   4.936   8.527  0.0659  0.1648  0.0224
  669TIP3    H126202   2.654   4.908   8.522  0.8281 -3.1174  1.4593
  669TIP3    H226203   2.766   4.934   8.620  1.6392  0.6127 -0.2942
  670TIP3   OH226204   4.637   2.537   7.032  0.4791  0.2678 -0.2699
  670TIP3    H126205   4.707   2.596   7.003  2.7794  0.0711  4.0455
  670TIP3    H226206   4.557   2.582   7.007  2.0806  2.4343 -2.0302
  671TIP3   OH226207   3.229   3.711   9.299 -0.0987  0.3282  0.0699
  671TIP3    H126208   3.308   3.658   9.300  1.3245  2.3630  0.3011
  671TIP3    H226209   3.175   3.675   9.370  1.3516 -0.0193  1.0269
  672TIP3   OH226210   7.479   2.839   7.949  0.2783 -0.0032 -0.0368
  672TIP3    H126211   7.535   2.891   7.892 -0.2988  0.6660 -0.0192
  672TIP3    H226212   7.539   2.798   8.011  0.7006  1.3484  0.4955
  673TIP3   OH226213   3.300   6.863   8.709 -0.0419 -0.2074 -0.0653
  673TIP3    H126214   3.281   6.832   8.798 -1.7039  1.0164  0.0451
  673TIP3    H226215   3.217   6.860   8.663  0.5520  0.2948 -1.2342
  674TIP3   OH226216   7.015   3.284   9.101  0.0756  0.4626  0.1672
  674TIP3    H126217   7.084   3.311   9.040 -0.7327 -1.8400 -1.9383
  674TIP3    H226218   6.934   3.299   9.053 -0.7687  0.9553  1.6969
  675TIP3   OH226219   1.590   3.965   7.476 -0.1570 -0.1723 -0.0946
  675TIP3    H126220   1.632   3.886   7.442 -0.5510 -0.3499 -0.1803
  675TIP3    H226221   1.511   3.974   7.423  0.2194  0.6543 -0.5244
  676TIP3   OH226222   2.625   5.483   9.202 -0.3978  0.6127  0.6988
  676TIP3    H126223   2.603   5.390   9.195  0.0093  0.5001  0.8863
  676TIP3    H226224   2.543   5.525   9.227 -0.6555  0.3427  0.3084
  677TIP3   OH226225   7.675   4.965   8.956 -0.0592 -0.1074 -0.5970
  677TIP3    H126226   7.725   4.897   9.001  0.3268 -0.4417 -1.5129
  677TIP3    H226227   7.595   4.921   8.926 -0.0338 -0.0384 -0.7687
  678TIP3   OH226228   1.109   0.653   8.100 -0.0578  0.3465  0.1671
  678TIP3    H126229   1.082   0.646   8.008  0.2901  0.8113  0.0235
  678TIP3    H226230   1.120   0.563   8.129 -0.0400  0.2011 -0.2866
  679TIP3   OH226231   0.291   4.880   8.350  0.2760 -0.2541 -0.2835
  679TIP3    H126232   0.386   4.876   8.351  0.4297  0.7978  3.4994
  679TIP3    H226233   0.262   4.790   8.368  0.5043 -0.4969 -1.0683
  680TIP3   OH226234   7.671   7.061   8.604 -0.3337 -0.5900 -0.1545
  680TIP3    H126235   7.627   7.004   8.666 -0.9703  0.7570  0.6654
  680TIP3    H226236   7.758   7.022   8.593 -1.1281 -2.3546 -0.5305
  681TIP3   OH226237   0.418   3.195   7.964 -0.5894  0.8650 -0.1296
  681TIP3    H126238   0.330   3.173   7.994 -0.3905  0.4963  0.1960
  681TIP3    H226239   0.419   3.290   7.960 -1.0898  0.8619 -0.4037
  682TIP3   OH226240   1.351   1.687   7.613 -0.1287 -0.1422 -0.0650
  682TIP3    H126241   1.331   1.743   7.538 -0.0261 -1.4519 -1.1171
  682TIP3    H226242   1.439   1.653   7.595 -0.0180 -0.3176  0.7555
  683TIP3   OH226243   2.611   2.939   9.766 -0.1785 -0.2125 -0.0855
  683TIP3    H126244   2.612   2.850   9.731  1.3544 -0.6414  0.9174
  683TIP3    H226245   2.641   2.994   9.694  0.6538 -0.7575 -0.1638
  684TIP3   OH226246   0.166   3.860   7.071  0.6977  0.2540 -0.5050
  684TIP3    H126247   0.092   3.920   7.061  0.3670 -0.3848 -2.2801
  684TIP3    H226248   0.237   3.901   7.022  1.0778  0.1246 -0.0740
  685TIP3   OH226249   3.790   4.720   6.835  0.5116  0.2004  0.3171
  685TIP3    H126250   3.748   4.758   6.758 -0.9729 -0.8692  0.5447
  685TIP3    H226251   3.720   4.713   6.900  2.3267  4.3151  3.1907
  686TIP3   OH226252   3.900   0.344   8.400 -0.8389 -0.1946 -0.1351
  686TIP3    H126253   3.929   0.334   8.310 -0.6561  2.3393 -0.4272
  686TIP3    H226254   3.814   0.384   8.394 -0.1662  1.5205  0.7688
  687TIP3   OH226255   4.043   2.519   7.929  0.1861 -0.4383 -0.4692
  687TIP3    H126256   3.973   2.498   7.991  0.5176  1.2701  0.5640
  687TIP3    H226257   4.102   2.575   7.979  2.5411 -2.1650 -1.1810
  688TIP3   OH226258   3.103   5.158   7.293 -0.4939 -0.0555  0.3770
  688TIP3    H126259   3.184   5.118   7.262 -0.1249  1.0211 -0.0877
  688TIP3    H226260   3.092   5.126   7.382 -0.3786 -1.4226 -0.0840
  689TIP3   OH226261   1.196   1.118   8.724 -0.5799 -0.0812  0.6319
  689TIP3    H126262   1.149   1.192   8.764  0.0887  1.1015 -0.6609
  689TIP3    H226263   1.131   1.074   8.670 -0.0746  2.2868 -2.1439
  690TIP3   OH226264   4.559   1.245   9.254  0.1696  0.1914 -0.2513
  690TIP3    H126265   4.574   1.246   9.159  0.2033  0.9360 -0.2379
  690TIP3    H226266   4.638   1.203   9.289  0.3110  0.2262 -0.5211
  691TIP3   OH226267   3.980   0.301   9.823 -0.4052 -0.2552  0.3043
  691TIP3    H126268   3.895   0.267   9.794 -1.3008  1.8649  0.2253
  691TIP3    H226269   3.994   0.262   9.909 -0.7501 -1.7488 -0.2992
  692TIP3   OH226270   1.412   3.586   9.211  0.7464 -0.4848  0.5720
  692TIP3    H126271   1.444   3.677   9.210 -0.9397  0.1778 -1.6703
  692TIP3    H226272   1.393   3.567   9.119 -2.1263 -1.9066  1.3685
  693TIP3   OH226273   3.932   0.545   7.922 -0.0038  0.4241  0.2818
  693TIP3    H126274   3.984   0.535   7.842  0.7934 -0.6744  0.9153
  693TIP3    H226275   3.958   0.631   7.956  2.7911 -0.7900  1.4982
  694TIP3   OH226276   5.426   3.030   6.685  0.0988 -0.1195 -0.4404
  694TIP3    H126277   5.454   2.941   6.663  2.3247  0.6553 -1.0721
  694TIP3    H226278   5.497   3.085   6.653 -0.3908  1.7538  1.5044
  695TIP3   OH226279   5.417   6.396   8.583  0.2119  0.0726  0.3068
  695TIP3    H126280   5.511   6.402   8.597  0.1889  0.2531  0.3857
  695TIP3    H226281   5.382   6.478   8.618  0.2034  0.7310 -1.1440
  696TIP3   OH226282   3.036   1.060   8.480 -0.4709 -0.3024 -0.1334
  696TIP3    H126283   3.014   0.969   8.461 -0.6245 -0.2770 -0.0807
  696TIP3    H226284   2.952   1.104   8.487 -0.3935 -0.1268 -0.2956
  697TIP3   OH226285   5.272   4.109   6.715  0.0882 -0.1660 -0.0373
  697TIP3    H126286   5.208   4.068   6.656  0.7774 -2.7317  0.8408
  697TIP3    H226287   5.260   4.064   6.798  0.2870  2.2083  1.3497
  698TIP3   OH226288   4.436   5.834   7.159 -0.1119  0.3572 -0.2901
  698TIP3    H126289   4.447   5.739   7.153  0.6997  0.4412 -0.1551
  698TIP3    H226290   4.411   5.861   7.070  1.7007  0.2711 -0.8578
  699TIP3   OH226291   1.262   6.115   7.978 -0.0715  0.1380 -0.5354
  699TIP3    H126292   1.263   6.019   7.971  0.1842  0.1206 -0.2781
  699TIP3    H226293   1.187   6.134   8.034 -0.0597  0.0833 -0.5010
  700TIP3   OH226294   2.345   1.688   8.505  0.3136  0.0087 -0.3665
  700TIP3    H126295   2.368   1.720   8.592  0.7232 -0.0406 -0.4552
  700TIP3    H226296   2.259   1.726   8.488  0.1738 -0.0835  0.1105
  701TIP3   OH226297   2.629   0.226   8.993 -0.1801  0.2497  0.0723
  701TIP3    H126298   2.577   0.261   8.921 -0.7839 -2.3639 -0.8981
  701TIP3    H226299   2.696   0.292   9.009 -1.7285  2.1625 -0.9710
  702TIP3   OH226300   3.338   2.924   7.456 -0.4635  0.5438  0.3643
  702TIP3    H126301   3.315   2.852   7.516  1.0343  0.1629  0.5068
  702TIP3    H226302   3.433   2.920   7.449 -0.4164  2.1188 -0.1498
  703TIP3   OH226303   4.544   2.888   9.212 -0.1828  0.3411 -0.4764
  703TIP3    H126304   4.621   2.894   9.269  0.8611  1.4794 -1.9301
  703TIP3    H226305   4.489   2.961   9.239 -0.8489 -0.5540  0.6580
  704TIP3   OH226306   1.540   5.248   7.280  0.5151 -0.1256  0.2876
  704TIP3    H126307   1.451   5.250   7.245  0.1410 -0.7908  1.1781
  704TIP3    H226308   1.580   5.171   7.239  0.8023  0.3632 -0.3721
  705TIP3   OH226309   2.893   6.771   8.948 -0.4282 -0.2675  0.1063
  705TIP3    H126310   2.802   6.773   8.916 -0.3660 -0.1238 -0.0616
  705TIP3    H226311   2.884   6.773   9.043 -0.5762  1.5265  0.0876
  706TIP3   OH226312   1.593   2.962   8.918  0.0270  0.0982  0.4086
  706TIP3    H126313   1.648   3.037   8.894  0.2552  0.2826  1.4406
  706TIP3    H226314   1.654   2.900   8.958  0.3446 -1.8331 -2.7356
  707TIP3   OH226315   2.343   3.701   9.635 -0.4769  0.5949 -0.4431
  707TIP3    H126316   2.436   3.722   9.626 -0.2030  0.3480  1.4790
  707TIP3    H226317   2.300   3.756   9.569  1.2260 -1.4645 -3.4801
  708TIP3   OH226318   1.707   4.613   9.097 -0.1542 -0.1607  0.4674
  708TIP3    H126319   1.698   4.701   9.134 -1.2303 -0.0078 -0.1494
  708TIP3    H226320   1.684   4.555   9.169 -1.7540  0.1278  0.2246
  709TIP3   OH226321   6.823   2.168   9.157 -0.2184 -0.0719  0.4500
  709TIP3    H126322   6.794   2.253   9.191  1.4578  0.8236 -0.2198
  709TIP3    H226323   6.791   2.104   9.221  0.0697  1.2425  1.9695
  710TIP3   OH226324   6.098   7.516   7.714 -0.2114 -0.3929  0.2129
  710TIP3    H126325   6.021   7.521   7.771 -0.4039  1.1042 -0.1517
  710TIP3    H226326   6.079   7.442   7.656 -0.8033 -0.8338  0.9436
  711TIP3   OH226327   5.947   3.354   7.009  0.0055  0.3982 -1.0897
  711TIP3    H126328   5.910   3.275   6.970 -1.6764  1.0682 -0.9505
  711TIP3    H226329   6.041   3.340   7.008 -0.2546 -1.6539 -0.9591
  712TIP3   OH226330   5.433   3.478   8.413 -0.3200  0.3491  0.0093
  712TIP3    H126331   5.386   3.396   8.400 -0.2694  0.0609  1.4664
  712TIP3    H226332   5.369   3.546   8.395 -0.7561 -0.0274  0.1366
  713TIP3   OH226333   1.591   5.678   7.456  0.4637  0.5837 -0.4013
  713TIP3    H126334   1.660   5.667   7.522  1.5976 -0.3213 -1.6888
  713TIP3    H226335   1.621   5.750   7.401  0.9942 -0.5355 -1.6421
  714TIP3   OH226336   5.626   2.047   8.792 -0.4622 -0.1648  0.0842
  714TIP3    H126337   5.591   2.084   8.873 -0.5712 -0.5414  0.2063
  714TIP3    H226338   5.601   2.110   8.724  0.3828  0.6026  0.4633
  715TIP3   OH226339   4.122   4.976   8.250 -0.0332  0.7094 -0.2286
  715TIP3    H126340   4.152   4.886   8.266 -0.9465  0.7334  2.0324
  715TIP3    H226341   4.060   4.969   8.178  0.2922 -0.3955 -0.4132
  716TIP3   OH226342   0.387   2.714   9.285 -0.3651 -0.1679  1.0187
  716TIP3    H126343   0.379   2.768   9.206  0.8414  0.8666  1.5722
  716TIP3    H226344   0.319   2.748   9.343 -0.1057  0.2592  1.0777
  717TIP3   OH226345   4.084   2.258   9.230  0.0276  0.7495 -0.3604
  717TIP3    H126346   4.079   2.300   9.144 -0.7730  0.3629 -0.5141
  717TIP3    H226347   4.168   2.286   9.265  0.2108  1.1969 -1.1231
  718TIP3   OH226348   3.974   4.504   8.481 -0.2086 -0.2922 -0.0649
  718TIP3    H126349   3.957   4.598   8.479  1.6106  0.1201  1.0258
  718TIP3    H226350   4.032   4.489   8.406  3.1223  0.3846  2.1356
  719TIP3   OH226351   6.329   2.461   7.213 -0.2615 -0.2108 -0.0456
  719TIP3    H126352   6.339   2.455   7.118  0.4238  0.0940 -0.0030
  719TIP3    H226353   6.413   2.431   7.248  1.2751  3.7713  0.3060
  720TIP3   OH226354   5.234   7.353   8.790 -0.0389  0.0617  0.1521
  720TIP3    H126355   5.285   7.417   8.740  0.0539 -0.0501  0.1027
  720TIP3    H226356   5.276   7.351   8.876  0.6133 -0.6947 -0.1671
  721TIP3   OH226357   3.929   3.140   8.759  0.5269  0.6346  0.3003
  721TIP3    H126358   4.014   3.122   8.797  0.6689  0.4467 -0.0997
  721TIP3    H226359   3.868   3.136   8.833  0.9421  1.4010  0.7002
  722TIP3   OH226360   6.953   7.371   6.663  0.4676  0.1265 -0.1394
  722TIP3    H126361   6.914   7.439   6.608  1.6782  1.1626  0.2249
  722TIP3    H226362   7.028   7.340   6.613  1.6370  1.1498  0.9283
  723TIP3   OH226363   2.098   6.661   8.464  0.1844  0.1739 -0.7685
  723TIP3    H126364   2.143   6.704   8.537 -0.2079  1.4451 -1.2550
  723TIP3    H226365   2.139   6.697   8.385 -1.6567  1.3909 -1.2209
  724TIP3   OH226366   2.507   4.157   8.725  0.3940 -0.2620  0.2326
  724TIP3    H126367   2.567   4.128   8.794 -1.4703 -2.9939  0.8967
  724TIP3    H226368   2.462   4.232   8.763  1.7311  0.3554  0.6338
  725TIP3   OH226369   3.390   2.274   8.633  0.3641 -0.0715 -0.1154
  725TIP3    H126370   3.384   2.347   8.694 -1.6086 -0.7622  0.5888
  725TIP3    H226371   3.317   2.287   8.573  0.5678 -0.9480 -0.5682
  726TIP3   OH226372   4.466   0.843   6.741 -0.4468  0.2487 -0.4669
  726TIP3    H126373   4.410   0.901   6.792 -0.1916  1.1120 -1.1576
  726TIP3    H226374   4.538   0.821   6.801 -1.1574 -0.3080  0.1860
  727TIP3   OH226375   3.204   6.551   8.840  0.0020  0.0665  0.2380
  727TIP3    H126376   3.259   6.474   8.853  1.5716  1.2334  0.7085
  727TIP3    H226377   3.203   6.564   8.745  1.0785  0.4027  0.2641
  728TIP3   OH226378   5.468   3.922   9.227 -0.6051 -0.3299 -0.0263
  728TIP3    H126379   5.386   3.969   9.239 -0.3408 -0.2338  1.6206
  728TIP3    H226380   5.478   3.915   9.132 -2.1813  0.2215 -0.2606
  729TIP3   OH226381   5.980   0.802   7.688  0.2912 -0.2259  0.1433
  729TIP3    H126382   6.000   0.857   7.765 -1.1710 -0.3197  0.6207
  729TIP3    H226383   6.034   0.724   7.701  1.2280  0.4089  0.2579
  730TIP3   OH226384   0.091   2.841   8.719  0.2945 -0.2210  0.1096
  730TIP3    H126385   0.099   2.822   8.812 -2.0893  0.8302  0.5812
  730TIP3    H226386   0.014   2.792   8.691  1.0769 -0.6607 -1.3780
  731TIP3   OH226387   1.135   1.628   9.700  0.0591  0.1685  0.0633
  731TIP3    H126388   1.133   1.657   9.791 -1.0414  0.1144  0.0718
  731TIP3    H226389   1.046   1.598   9.683  0.6076 -1.1703 -0.6023
  732TIP3   OH226390   2.034   5.035   9.011  0.2406 -0.1420  0.1482
  732TIP3    H126391   1.974   4.964   9.033 -0.9631  0.4514 -1.0363
  732TIP3    H226392   2.103   5.030   9.077 -0.0264 -2.1326  0.3436
  733TIP3   OH226393   0.147   7.494   8.651 -0.5064  0.1402 -0.3261
  733TIP3    H126394   0.208   7.558   8.686 -0.6172  0.9935 -1.6296
  733TIP3    H226395   0.061   7.536   8.656 -0.7817 -0.4382  0.0264
  734TIP3   OH226396   0.819   5.424   8.166  0.2142 -0.7838 -0.3075
  734TIP3    H126397   0.809   5.487   8.095  0.2891  0.9506  1.1610
  734TIP3    H226398   0.741   5.434   8.220  0.6507 -1.2796  0.4489
  735TIP3   OH226399   5.553   5.964   6.456 -0.5075  0.3577  0.4916
  735TIP3    H126400   5.610   5.888   6.446 -0.7369  0.3964 -1.5811
  735TIP3    H226401   5.597   6.034   6.408 -0.6250  1.3625  1.8183
  736TIP3   OH226402   4.335   4.812   8.272  0.1038  0.0554  0.3551
  736TIP3    H126403   4.430   4.806   8.270  0.0563 -0.6886  0.1553
  736TIP3    H226404   4.312   4.804   8.365  0.3597  2.6845  0.7334
  737TIP3   OH226405   4.978   4.426   8.691  0.4454  0.4181 -0.0584
  737TIP3    H126406   5.043   4.491   8.716 -1.0884  1.9253  0.2004
  737TIP3    H226407   4.908   4.436   8.755 -0.2880 -0.7939 -0.6338
  738TIP3   OH226408   2.145   4.411   7.531 -0.9330  0.5530 -0.0603
  738TIP3    H126409   2.072   4.358   7.498 -1.7053  1.9162 -0.6032
  738TIP3    H226410   2.142   4.492   7.481  0.0563  1.2486  0.9334
  739TIP3   OH226411   0.317   6.901   6.590  0.1524  0.4446 -0.0683
  739TIP3    H126412   0.364   6.913   6.673  0.4521 -0.9687 -0.0170
  739TIP3    H226413   0.372   6.842   6.539  0.3563  1.8824 -1.6138
  740TIP3   OH226414   7.369   3.394   7.757  0.1647 -0.3654  0.3021
  740TIP3    H126415   7.383   3.414   7.849  0.7382 -0.5383  0.2580
  740TIP3    H226416   7.327   3.473   7.721 -0.6526 -0.5440  0.8385
  741TIP3   OH226417   5.542   4.930   6.962 -0.3351  0.0936 -0.3917
  741TIP3    H126418   5.593   4.890   7.032  0.3305  1.5651  0.0057
  741TIP3    H226419   5.453   4.897   6.974 -0.0218 -0.4354  0.5348
  742TIP3   OH226420   1.810   6.622   9.081  0.1231  0.2088  0.2766
  742TIP3    H126421   1.885   6.681   9.087  0.5337 -0.3256  0.4777
  742TIP3    H226422   1.765   6.650   9.001  2.0714 -1.1856 -1.4368
  743TIP3   OH226423   2.784   3.241   7.263 -1.0454  0.0085 -0.1185
  743TIP3    H126424   2.828   3.273   7.184 -1.7206  3.8158  0.8832
  743TIP3    H226425   2.693   3.232   7.237 -1.0580  0.0529 -0.0890
  744TIP3   OH226426   5.818   5.785   6.500  0.2975 -0.2461  0.0667
  744TIP3    H126427   5.878   5.825   6.562 -1.6535  2.6841  0.2747
  744TIP3    H226428   5.825   5.691   6.516  3.8400  0.0354  0.8487
  745TIP3   OH226429   4.514   4.045   8.746 -0.4836  0.1365 -0.4872
  745TIP3    H126430   4.466   4.102   8.686  0.3051  0.1439 -1.1257
  745TIP3    H226431   4.594   4.093   8.765 -0.6888  0.1029  0.5372
  746TIP3   OH226432   4.783   7.205   7.509  0.9059  0.1118 -0.1023
  746TIP3    H126433   4.765   7.275   7.570  0.7092 -1.1406  1.3392
  746TIP3    H226434   4.706   7.201   7.453 -0.2243 -0.5445  1.4267
  747TIP3   OH226435   4.483   2.070   8.593  0.1522 -0.3017 -0.0913
  747TIP3    H126436   4.570   2.110   8.588  0.0156 -0.0866 -0.7126
  747TIP3    H226437   4.501   1.976   8.595  0.3882 -0.2701 -0.5841
  748TIP3   OH226438   2.871   2.802   8.054  0.2102  0.2864 -0.0806
  748TIP3    H126439   2.885   2.709   8.036  0.3246  0.5173 -1.2952
  748TIP3    H226440   2.942   2.826   8.114  0.7843 -0.1802 -0.5636
  749TIP3   OH226441   0.020   4.410   7.679  0.1080 -0.5465 -0.5731
  749TIP3    H126442   0.006   4.422   7.585 -1.7608  0.1530 -0.2426
  749TIP3    H226443   0.022   4.315   7.690  0.5312 -0.6403 -1.3288
  750TIP3   OH226444   5.320   1.596   9.690  0.4017 -0.3016 -0.5908
  750TIP3    H126445   5.300   1.632   9.776  1.1661 -0.7357 -0.2210
  750TIP3    H226446   5.325   1.501   9.704 -0.0816 -0.4323 -1.2404
  751TIP3   OH226447   2.542   2.280   7.183  0.1639 -0.0612  0.3529
  751TIP3    H126448   2.529   2.374   7.195  0.1866 -0.0948  0.6401
  751TIP3    H226449   2.594   2.273   7.103  2.5616  0.3219  1.7629
  752TIP3   OH226450   0.999   7.139   7.960 -0.2673 -0.3867  0.1325
  752TIP3    H126451   0.991   7.167   8.051 -0.2334  0.6279 -0.1614
  752TIP3    H226452   0.912   7.155   7.923 -0.3674 -1.0810  0.0587
  753TIP3   OH226453   4.489   3.321   8.853  0.0062  0.0846  0.3709
  753TIP3    H126454   4.460   3.234   8.879 -0.8430  0.2105 -0.1357
  753TIP3    H226455   4.445   3.338   8.770  0.7928  0.6772  0.0603
  754TIP3   OH226456   4.400   7.625   7.826  0.3125  0.2713 -0.1407
  754TIP3    H126457   4.484   7.669   7.825  1.5781 -1.9240  0.9555
  754TIP3    H226458   4.413   7.547   7.772 -1.6193  0.8022 -1.4701
  755TIP3   OH226459   1.681   3.117   9.612  0.3034  0.3094  0.5729
  755TIP3    H126460   1.606   3.069   9.649 -0.5840 -0.5814 -2.1601
  755TIP3    H226461   1.757   3.079   9.655 -0.5734 -1.5723  0.5620
  756TIP3   OH226462   5.691   5.525   8.538 -0.1668 -0.4126  0.6064
  756TIP3    H126463   5.618   5.471   8.569 -2.6004  2.1380 -0.3095
  756TIP3    H226464   5.683   5.524   8.443  1.3235 -0.4759  0.4675
  757TIP3   OH226465   6.489   4.869   8.211  0.1905  0.1888 -0.3433
  757TIP3    H126466   6.490   4.907   8.123 -0.2471  1.5229  0.2148
  757TIP3    H226467   6.533   4.933   8.266  3.3694 -1.9873 -0.0375
  758TIP3   OH226468   4.659   1.018   8.642 -0.1898  0.5000 -0.3307
  758TIP3    H126469   4.739   0.981   8.679 -0.6763 -1.6337 -1.2070
  758TIP3    H226470   4.594   1.009   8.712 -0.1636  0.1917 -0.3431
  759TIP3   OH226471   0.850   0.119   6.773 -0.2655  0.7404  0.4591
  759TIP3    H126472   0.763   0.140   6.739 -0.8236 -2.5825 -0.4177
  759TIP3    H226473   0.846   0.146   6.865 -2.6029 -0.2696  0.7175
  760TIP3   OH226474   1.520   0.370   8.283 -0.0880  0.7340  0.2398
  760TIP3    H126475   1.458   0.440   8.304  0.1115  0.6543  1.1263
  760TIP3    H226476   1.606   0.411   8.295  0.0321  0.5163  0.1198
  761TIP3   OH226477   5.916   3.598   8.264  0.0785 -0.2474 -0.2421
  761TIP3    H126478   5.920   3.657   8.340 -1.3276 -0.0621 -0.2937
  761TIP3    H226479   5.854   3.640   8.204 -3.5550 -3.2011  1.0431
  762TIP3   OH226480   7.599   4.308   8.003 -0.0025  0.0145  0.2638
  762TIP3    H126481   7.614   4.215   8.023 -0.8757  0.2621  2.2913
  762TIP3    H226482   7.512   4.310   7.962 -0.0024 -0.0660  0.2594
  763TIP3   OH226483   2.298   4.326   6.689 -0.3636 -0.2218  0.2808
  763TIP3    H126484   2.225   4.387   6.702  0.5489  1.2052 -0.9150
  763TIP3    H226485   2.311   4.286   6.774 -0.8902  1.4206  1.1809
  764TIP3   OH226486   3.677   3.810   7.755 -0.0328  0.2896 -0.3238
  764TIP3    H126487   3.692   3.788   7.663  2.2900 -2.6855  0.6181
  764TIP3    H226488   3.667   3.726   7.798  0.0761  1.5609  2.3630
  765TIP3   OH226489   3.670   4.956   9.051 -0.9219  0.2588  0.3019
  765TIP3    H126490   3.702   5.044   9.032 -0.1838  0.6253  2.7879
  765TIP3    H226491   3.741   4.898   9.023 -1.0521  0.5027 -0.5608
  766TIP3   OH226492   4.174   0.004   7.948 -0.3575  0.4538 -0.0067
  766TIP3    H126493   4.251  -0.024   7.899 -1.6439 -1.8786 -0.8981
  766TIP3    H226494   4.162   0.096   7.924  0.9139  0.2653 -1.5402
  767TIP3   OH226495   3.058   4.210   9.241  0.0540 -0.4432  1.0592
  767TIP3    H126496   3.069   4.122   9.278  0.1104 -1.6803 -1.6387
  767TIP3    H226497   2.964   4.225   9.245 -0.4085 -2.0825 -1.2535
  768TIP3   OH226498   7.510   4.753   7.152 -0.0967  0.2728 -0.1902
  768TIP3    H126499   7.537   4.814   7.221 -0.5861 -0.3354  0.5576
  768TIP3    H226500   7.556   4.672   7.174  0.6843  0.4064 -1.2764
  769TIP3   OH226501   6.531   0.837   9.676  0.3355  0.4477  0.1789
  769TIP3    H126502   6.578   0.918   9.656 -0.6579  1.3200  1.1694
  769TIP3    H226503   6.596   0.780   9.716  0.6792  1.4308  1.0651
  770TIP3   OH226504   6.016   2.029   6.631 -0.2436 -0.1189  0.1394
  770TIP3    H126505   5.953   2.017   6.702  0.0801  0.4760  0.5457
  770TIP3    H226506   6.069   2.104   6.659  0.7728 -0.7343 -0.0957
  771TIP3   OH226507   5.717   6.055   7.195 -0.2437  0.2974 -0.2750
  771TIP3    H126508   5.632   6.042   7.236  0.3221  0.7544  1.0931
  771TIP3    H226509   5.718   6.149   7.173 -0.3197  0.1683 -0.8574
  772TIP3   OH226510   6.239   6.794   7.339 -0.8044  0.3131  0.0873
  772TIP3    H126511   6.249   6.854   7.413  0.0881 -0.6869  0.8069
  772TIP3    H226512   6.287   6.836   7.268 -1.1286  0.9785  0.2542
  773TIP3   OH226513   4.252   3.485   8.040 -0.4000 -0.0995  0.4316
  773TIP3    H126514   4.227   3.543   8.112  0.6727  0.0674  0.6866
  773TIP3    H226515   4.181   3.493   7.977 -1.7141 -0.7694  1.7554
  774TIP3   OH226516   1.984   2.615   8.391  0.1323  0.3233 -0.1623
  774TIP3    H126517   2.051   2.669   8.348  0.9376 -0.2003  0.3926
  774TIP3    H226518   1.903   2.637   8.346  0.6413  1.1371 -0.7162
  775TIP3   OH226519   0.518   0.674   9.433 -0.1564  0.1325 -0.6006
  775TIP3    H126520   0.479   0.588   9.449  0.0446  0.0413 -0.6015
  775TIP3    H226521   0.590   0.658   9.372 -0.9150  0.4793 -1.6202
  776TIP3   OH226522   1.286   1.310   7.818  0.0181  0.2686 -0.1622
  776TIP3    H126523   1.372   1.299   7.777 -0.4231  0.4094 -1.1715
  776TIP3    H226524   1.279   1.238   7.880  1.5387  1.1876  1.1697
  777TIP3   OH226525   6.706   5.253   8.972  0.3451 -0.2130 -0.1585
  777TIP3    H126526   6.771   5.183   8.963  0.1024 -0.2906 -1.4354
  777TIP3    H226527   6.737   5.304   9.047  0.8356 -1.3452  0.4324
  778TIP3   OH226528   3.482   4.392   9.228 -0.4369  0.1298 -0.7441
  778TIP3    H126529   3.448   4.438   9.151  1.4103  0.3780 -1.4502
  778TIP3    H226530   3.500   4.303   9.196  0.6458  0.3285 -0.6920
  779TIP3   OH226531   1.486   0.755   7.221 -0.2920  0.4327 -0.1632
  779TIP3    H126532   1.484   0.660   7.228 -0.0923  0.4695  0.3576
  779TIP3    H226533   1.397   0.783   7.246 -1.2954  0.2115 -3.0288
  780TIP3   OH226534   5.845   5.093   9.395  0.0722  0.1992 -0.0099
  780TIP3    H126535   5.940   5.085   9.384  0.0859 -1.5050  1.0447
  780TIP3    H226536   5.831   5.085   9.489 -1.1171  0.6010 -0.1363
  781TIP3   OH226537   6.489   0.887   7.006 -0.2021  0.2802 -0.7231
  781TIP3    H126538   6.401   0.868   7.040  0.4839 -1.4729  0.2043
  781TIP3    H226539   6.487   0.980   6.984 -2.2109  0.3294 -0.4998
  782TIP3   OH226540   2.242   3.969   8.779  0.2631 -0.2159 -0.4579
  782TIP3    H126541   2.299   3.938   8.709  1.1894 -0.5433  0.4193
  782TIP3    H226542   2.298   3.969   8.857 -0.2913  1.6162 -0.0078
  783TIP3   OH226543   6.738   7.305   9.017  0.5219 -0.4263 -0.0994
  783TIP3    H126544   6.788   7.223   9.024  0.2245 -0.6965 -1.0942
  783TIP3    H226545   6.669   7.287   8.954 -0.0062  0.3757  0.2275
  784TIP3   OH226546   2.311   6.128   7.212  0.1055  0.1971  0.2653
  784TIP3    H126547   2.226   6.143   7.254 -0.3650 -3.3257  0.8777
  784TIP3    H226548   2.373   6.125   7.285  0.4296  0.6924  0.0148
  785TIP3   OH226549   2.399   4.562   7.275  0.1354  0.3392  0.1300
  785TIP3    H126550   2.473   4.571   7.215  0.1126 -0.3219 -0.0067
  785TIP3    H226551   2.393   4.468   7.291  0.0795  0.4991  1.0894
  786TIP3   OH226552   0.474   0.973   8.840 -0.5751  0.2932 -0.0098
  786TIP3    H126553   0.543   0.919   8.803 -0.3481 -0.0743  0.9338
  786TIP3    H226554   0.500   0.986   8.932 -2.0776 -0.3998  0.5389
  787TIP3   OH226555   3.718   3.766   8.805 -0.2143 -0.0800  0.0961
  787TIP3    H126556   3.742   3.729   8.719 -0.8106  0.1961 -0.1944
  787TIP3    H226557   3.633   3.727   8.825  0.7958 -1.6902  1.5052
  788TIP3   OH226558   7.608   4.168   9.593 -0.8573 -0.4866  0.2756
  788TIP3    H126559   7.540   4.174   9.660 -0.2671  2.8626  0.7469
  788TIP3    H226560   7.594   4.246   9.539  1.9635 -0.2570 -0.2382
  789TIP3   OH226561   7.646   6.753   9.359  0.2004 -0.2323 -0.0917
  789TIP3    H126562   7.734   6.774   9.327  0.3540  2.1053  1.6169
  789TIP3    H226563   7.661   6.700   9.438 -0.0038 -1.0923 -0.6144
  790TIP3   OH226564   0.734   2.062   7.505  0.0900 -0.6879  0.3135
  790TIP3    H126565   0.703   2.109   7.582 -1.2399  0.3736 -0.8199
  790TIP3    H226566   0.801   2.119   7.466  0.4742 -1.0390  0.4466
  791TIP3   OH226567   3.843   2.529   8.551  0.9822  0.1641 -0.2990
  791TIP3    H126568   3.756   2.497   8.576  1.3859 -0.8812 -0.1639
  791TIP3    H226569   3.830   2.622   8.530 -0.4449 -0.3087 -1.6995
  792TIP3   OH226570   0.673   1.897   8.844 -0.0837 -0.3072 -0.2298
  792TIP3    H126571   0.638   1.914   8.932 -0.4774  0.7801 -0.5845
  792TIP3    H226572   0.714   1.811   8.851 -0.5145 -0.4365  0.9008
  793TIP3   OH226573   0.319   5.720   9.183 -0.3784 -0.1109 -0.2746
  793TIP3    H126574   0.247   5.708   9.121 -0.9551  0.1557  0.3385
  793TIP3    H226575   0.317   5.813   9.204 -0.0521 -0.1612 -0.0089
  794TIP3   OH226576   6.406   2.272   7.909  0.2065 -0.0577  0.0777
  794TIP3    H126577   6.344   2.339   7.879  0.9440  0.5550 -0.1113
  794TIP3    H226578   6.474   2.321   7.956  0.3123 -0.7681  0.6900
  795TIP3   OH226579   0.567   0.630   7.714 -0.0290 -0.2424  0.0174
  795TIP3    H126580   0.527   0.685   7.782 -0.4162 -1.5020  0.8618
  795TIP3    H226581   0.495   0.574   7.684  1.0342 -2.7283  1.7467
  796TIP3   OH226582   0.023   4.045   8.804  0.1302  0.6182  0.1170
  796TIP3    H126583   0.014   4.114   8.870  0.4179 -0.9133  1.8458
  796TIP3    H226584  -0.055   3.990   8.817  1.0562 -0.6651  0.4082
  797TIP3   OH226585   5.412   5.334   9.004 -0.2201  0.5458  0.3194
  797TIP3    H126586   5.476   5.268   9.032 -2.2199 -2.3072 -1.2531
  797TIP3    H226587   5.432   5.411   9.056  1.4507 -1.7237  3.3744
  798TIP3   OH226588   6.774   0.403   9.462 -0.0906  0.4772 -0.7593
  798TIP3    H126589   6.820   0.333   9.509  2.3588  1.2909 -1.7691
  798TIP3    H226590   6.728   0.358   9.391  0.1115 -0.2786 -0.4247
  799TIP3   OH226591   7.534   0.355   7.460  0.2355 -0.7115 -0.3488
  799TIP3    H126592   7.451   0.401   7.459  0.8810  0.5078 -1.0647
  799TIP3    H226593   7.511   0.263   7.449 -1.0981 -0.6072  1.2573
  800TIP3   OH226594   5.291   5.457   7.113 -0.4686 -0.0636  0.3611
  800TIP3    H126595   5.316   5.390   7.176 -2.3826  1.3599  2.8314
  800TIP3    H226596   5.371   5.475   7.063  0.6791 -2.4555  1.1997
  801TIP3   OH226597   4.572   7.175   6.852  0.3731 -0.0470 -0.1990
  801TIP3    H126598   4.590   7.101   6.910  3.6527 -0.5230 -1.6015
  801TIP3    H226599   4.536   7.135   6.773  2.8143 -0.3901 -1.2413
  802TIP3   OH226600   7.052   1.911   9.036  0.6418  0.4357 -0.1311
  802TIP3    H126601   7.044   1.997   9.078 -0.3094 -0.0984  0.8202
  802TIP3    H226602   7.116   1.864   9.089 -0.3268 -0.1276  0.5686
  803TIP3   OH226603   0.645   6.709   9.008  0.4847 -0.7878 -0.1244
  803TIP3    H126604   0.718   6.655   9.039  0.0613  0.2480  3.0971
  803TIP3    H226605   0.686   6.784   8.966  1.2288 -0.9099  0.3742
  804TIP3   OH226606   7.262   7.639   7.983 -0.0272 -0.6188 -0.4895
  804TIP3    H126607   7.337   7.697   7.971  0.5450 -1.1519  0.4556
  804TIP3    H226608   7.222   7.633   7.896  0.3936  0.5205 -0.7658
  805TIP3   OH226609   3.952   4.655   9.309 -0.2897 -0.0324 -0.4170
  805TIP3    H126610   3.971   4.633   9.400 -0.9316  0.2798 -0.1983
  805TIP3    H226611   3.871   4.608   9.289 -0.0010 -0.3260 -0.9199
  806TIP3   OH226612   6.911   4.731   6.534  0.1488 -0.1944  0.0722
  806TIP3    H126613   6.956   4.683   6.464  0.4280  0.0930  0.0497
  806TIP3    H226614   6.977   4.737   6.603  0.6946  1.5773 -0.5461
  807TIP3   OH226615   6.285   6.461   7.393  0.3019  0.0383  0.6572
  807TIP3    H126616   6.251   6.494   7.476 -1.1351  1.4843 -0.4617
  807TIP3    H226617   6.225   6.390   7.369  0.4377 -0.0627  0.6160
  808TIP3   OH226618   0.185   7.528   7.528  0.0567  0.4570 -0.2078
  808TIP3    H126619   0.110   7.571   7.489 -0.2134  0.0090 -0.1926
  808TIP3    H226620   0.148   7.469   7.594  0.4504  0.5817  0.1313
  809TIP3   OH226621   7.156   2.770   7.524 -0.2152 -0.3217  0.0244
  809TIP3    H126622   7.124   2.832   7.458 -0.9919 -0.5614  0.1668
  809TIP3    H226623   7.191   2.826   7.594 -1.4707 -0.0185  0.4294
  810TIP3   OH226624   4.626   3.064   8.611 -0.1624 -0.1526  0.3522
  810TIP3    H126625   4.614   3.156   8.589  1.7362  0.0089 -0.2117
  810TIP3    H226626   4.599   3.016   8.533 -0.4726 -0.0258  0.3820
  811TIP3   OH226627   5.091   7.085   9.327 -0.2652  0.1791  0.1876
  811TIP3    H126628   5.004   7.097   9.364 -1.2215  0.4616 -1.9958
  811TIP3    H226629   5.110   7.168   9.283  1.2262  0.2022  0.8325
  812TIP3   OH226630   3.926   0.709   9.537  0.2587 -0.2354 -0.4314
  812TIP3    H126631   3.880   0.656   9.472 -0.5671 -0.6461  0.4641
  812TIP3    H226632   3.939   0.651   9.612  0.0221  0.5993  0.2758
  813TIP3   OH226633   1.580   6.303   8.851 -0.5096  0.2037  0.2327
  813TIP3    H126634   1.657   6.247   8.865 -0.5079 -0.2777 -1.4601
  813TIP3    H226635   1.601   6.353   8.772 -1.4738  0.9146  0.4075
  814TIP3   OH226636   0.042   6.743   7.902  0.5811 -0.1971 -0.5832
  814TIP3    H126637   0.060   6.684   7.828  0.0573 -0.7186 -0.3018
  814TIP3    H226638   0.118   6.731   7.960  0.4386 -0.6615 -0.4880
  815TIP3   OH226639   0.931   3.837   8.767 -1.1943 -0.0329  0.2321
  815TIP3    H126640   1.024   3.833   8.785 -0.7103  0.2025 -1.9523
  815TIP3    H226641   0.892   3.876   8.845  0.3963 -0.9093  1.5127
  816TIP3   OH226642   0.333   1.173   8.963  0.8687 -0.1398 -0.0775
  816TIP3    H126643   0.315   1.084   8.932 -1.0358 -0.0208  0.5547
  816TIP3    H226644   0.315   1.228   8.887 -0.2048 -0.1461  0.1469
  817TIP3   OH226645   4.514   6.578   8.348  0.2107 -0.4358  0.2901
  817TIP3    H126646   4.605   6.547   8.349  0.0811 -0.8748 -0.6625
  817TIP3    H226647   4.502   6.614   8.260 -0.3068  0.3484  0.6680
  818TIP3   OH226648   5.880   3.744   9.111 -0.2549 -0.9504  0.1225
  818TIP3    H126649   5.845   3.655   9.107 -0.8133 -0.7757  0.8908
  818TIP3    H226650   5.876   3.767   9.204  1.3435 -0.6946  0.1603
  819TIP3   OH226651   3.332   6.185   8.268 -0.5041  0.0695  0.0024
  819TIP3    H126652   3.293   6.165   8.183  0.5118 -0.4437 -0.3601
  819TIP3    H226653   3.303   6.114   8.325  0.8775 -1.0059 -0.5854
  820TIP3   OH226654   2.368   4.501   8.207 -0.4658  0.3044  0.5103
  820TIP3    H126655   2.284   4.537   8.179 -1.0370 -0.2068  1.4920
  820TIP3    H226656   2.348   4.455   8.288  0.6596 -0.3462  0.4371
  821TIP3   OH226657   2.621   4.181   8.309 -0.0346  0.7450 -0.4612
  821TIP3    H126658   2.622   4.249   8.376  0.8530  0.3428 -0.0422
  821TIP3    H226659   2.637   4.227   8.227  0.3927  1.0625 -0.2017
  822TIP3   OH226660   0.890   1.593   9.406  0.6338  0.0596  0.0956
  822TIP3    H126661   0.844   1.561   9.483 -2.2227 -0.1667 -1.5827
  822TIP3    H226662   0.920   1.681   9.431 -1.2434  0.4554  1.0977
  823TIP3   OH226663   5.422   2.222   7.739 -0.5343  0.2595 -0.5695
  823TIP3    H126664   5.431   2.163   7.664 -0.3060 -1.7464  0.9236
  823TIP3    H226665   5.498   2.279   7.734  0.5744 -1.1634 -0.8267
  824TIP3   OH226666   7.223   0.207   8.343  0.4270 -0.2873 -0.3336
  824TIP3    H126667   7.307   0.180   8.380  1.8720  2.4802 -1.2970
  824TIP3    H226668   7.244   0.231   8.253 -1.1230  1.6025 -0.2434
  825TIP3   OH226669   6.452   6.236   8.483 -0.3969  0.3345  0.7324
  825TIP3    H126670   6.362   6.217   8.509  0.0984 -1.3631  1.3184
  825TIP3    H226671   6.459   6.202   8.394 -0.5417  1.1836  0.3882
  826TIP3   OH226672   5.369   3.014   9.279  0.2052 -0.0004 -0.1140
  826TIP3    H126673   5.441   3.011   9.342  0.0761 -0.5148  0.0138
  826TIP3    H226674   5.364   3.106   9.253  1.1881 -0.0242 -0.4487
  827TIP3   OH226675   1.849   6.226   8.800  0.4723  0.4088 -0.0730
  827TIP3    H126676   1.854   6.137   8.766 -0.9107 -0.7401  2.4749
  827TIP3    H226677   1.929   6.236   8.852  0.1148  0.2267  0.5225
  828TIP3   OH226678   3.067   0.680   9.383 -0.8039 -0.3115 -0.5251
  828TIP3    H126679   3.032   0.594   9.362 -2.1353  0.4029 -1.3839
  828TIP3    H226680   3.004   0.717   9.445  1.4215 -1.1444  2.4341
  829TIP3   OH226681   0.999   4.883   7.587  0.0305 -0.1170  0.0803
  829TIP3    H126682   0.966   4.966   7.551 -0.4844 -0.4443 -0.2190
  829TIP3    H226683   0.939   4.864   7.660  1.3406  0.7789  1.4362
  830TIP3   OH226684   3.284   5.262   9.123 -0.1372 -0.1595 -0.0512
  830TIP3    H126685   3.285   5.191   9.187  1.8297  1.3436  1.7194
  830TIP3    H226686   3.291   5.218   9.039  2.1683 -2.0847  1.0308
  831TIP3   OH226687   2.515   2.922   9.033  0.5545 -0.1776 -0.3582
  831TIP3    H126688   2.490   3.006   8.995  1.5237 -0.8081 -2.5038
  831TIP3    H226689   2.494   2.858   8.966  0.6410 -1.5714  0.9069
  832TIP3   OH226690   3.842   1.249   7.694 -0.2311  0.3906  0.0051
  832TIP3    H126691   3.900   1.200   7.752  0.8035  0.1479 -1.1997
  832TIP3    H226692   3.759   1.200   7.697  0.2867 -0.5047  0.0822
  833TIP3   OH226693   0.125   2.234   7.810  0.2685 -0.0165 -0.2343
  833TIP3    H126694   0.189   2.302   7.790  1.7199 -1.3035 -0.1511
  833TIP3    H226695   0.166   2.181   7.879 -0.3864 -1.5202 -0.9412
  834TIP3   OH226696   4.769   3.718   7.631 -0.5568 -0.0855  0.4575
  834TIP3    H126697   4.755   3.639   7.683  1.5902 -0.3153  0.7731
  834TIP3    H226698   4.794   3.685   7.544  1.2795  0.1681  0.8451
  835TIP3   OH226699   4.604   6.226   8.474 -0.7165 -0.1657 -0.4667
  835TIP3    H126700   4.686   6.203   8.518 -1.3471  0.1096  0.9063
  835TIP3    H226701   4.579   6.311   8.511 -0.2942  1.0611 -2.8082
  836TIP3   OH226702   1.414   2.865   8.714 -0.2072 -0.1624  0.5159
  836TIP3    H126703   1.434   2.950   8.673  0.1325  0.2109  1.4381
  836TIP3    H226704   1.486   2.851   8.776  0.5260 -1.8179 -0.6390
  837TIP3   OH226705   1.070   3.125   8.182  0.5078 -0.0142  0.5688
  837TIP3    H126706   1.084   3.115   8.276  0.2563 -0.5055  0.5607
  837TIP3    H226707   0.991   3.074   8.165  0.1341  0.6814  0.2138
  838TIP3   OH226708   2.357   4.281   6.952  0.1206 -0.1162 -0.3374
  838TIP3    H126709   2.410   4.355   6.923 -1.0470  1.7421  1.9691
  838TIP3    H226710   2.416   4.229   7.007  0.0994  1.0140  0.8106
  839TIP3   OH226711   0.455   1.522   9.572  0.0490  0.5879  0.6299
  839TIP3    H126712   0.443   1.430   9.595 -0.5754  0.8506  1.4305
  839TIP3    H226713   0.444   1.525   9.477  0.2101 -0.1790  0.5790
  840TIP3   OH226714   3.557   1.419   7.668 -0.2524 -0.0045  0.1985
  840TIP3    H126715   3.572   1.428   7.762  0.3858  0.6062  0.0468
  840TIP3    H226716   3.598   1.335   7.645 -3.7217 -2.1389  1.1060
  841TIP3   OH226717   4.237   2.206   8.990 -0.1483  0.0845  0.5584
  841TIP3    H126718   4.252   2.146   8.918 -0.2440  0.2622  0.3900
  841TIP3    H226719   4.311   2.191   9.050  0.7717  1.0220 -0.3084
  842TIP3   OH226720   6.679   2.039   8.941  0.0380  0.1094 -0.0469
  842TIP3    H126721   6.727   1.961   8.913 -1.6095 -0.6879 -0.7700
  842TIP3    H226722   6.737   2.080   9.006  2.1940 -0.1481 -1.6769
  843TIP3   OH226723   3.934   1.347   8.214 -0.2512 -0.3299  0.1147
  843TIP3    H126724   3.981   1.386   8.288  0.2504  0.7843 -0.7597
  843TIP3    H226725   3.876   1.282   8.254 -2.1303  2.1902  1.8259
  844TIP3   OH226726   2.543   7.175   8.272 -0.2381 -0.6237 -0.7643
  844TIP3    H126727   2.472   7.110   8.275  1.5015 -2.6335 -0.2155
  844TIP3    H226728   2.587   7.158   8.189 -1.0967  1.4700 -1.7059
  845TIP3   OH226729   3.603   6.261   8.403  0.0133  0.0679 -0.6934
  845TIP3    H126730   3.564   6.202   8.339 -0.0567  1.2430 -1.7788
  845TIP3    H226731   3.654   6.204   8.461  0.1087 -1.0261 -1.8079
  846TIP3   OH226732   2.783   7.131   8.071 -0.1364  0.0975  0.6094
  846TIP3    H126733   2.742   7.207   8.029  2.2577  0.7108 -0.8112
  846TIP3    H226734   2.846   7.168   8.132  0.2621 -0.7613  0.7375
  847TIP3   OH226735   0.485   0.678   7.435  0.2675  0.4337  0.2765
  847TIP3    H126736   0.439   0.598   7.461 -1.1127  0.7136 -1.1237
  847TIP3    H226737   0.441   0.748   7.483 -1.1765  0.7583 -1.4240
  848TIP3   OH226738   4.337   5.499   7.650  0.4070 -0.1979  0.7762
  848TIP3    H126739   4.311   5.424   7.596 -0.9890  1.2715 -0.6896
  848TIP3    H226740   4.274   5.500   7.722  0.2559 -0.2838  0.6460
  849TIP3   OH226741   7.264   2.798   9.193  0.1347 -0.0037  0.5438
  849TIP3    H126742   7.300   2.852   9.263 -1.7602  0.9439  0.8560
  849TIP3    H226743   7.222   2.860   9.133  0.3337 -0.9246 -0.5879
  850TIP3   OH226744   1.280   3.464   8.511 -0.3615 -0.4137 -0.3154
  850TIP3    H126745   1.215   3.424   8.569  0.2716  0.4208  1.0021
  850TIP3    H226746   1.249   3.554   8.499  0.3848 -0.0913  0.0943
  851TIP3   OH226747   4.654   0.763   8.206 -0.1946  0.6770  0.4225
  851TIP3    H126748   4.638   0.842   8.257  0.0172  1.4106 -0.6297
  851TIP3    H226749   4.737   0.729   8.240 -0.7199  0.3958  1.4789
  852TIP3   OH226750   3.909   5.929   8.187 -0.5126  0.0998 -0.6781
  852TIP3    H126751   3.832   5.967   8.230 -1.2360 -1.5014 -0.4948
  852TIP3    H226752   3.875   5.856   8.136  0.9074 -0.8113 -0.3867
  853TIP3   OH226753   3.215   1.071   9.096  0.1962  0.0255  0.5785
  853TIP3    H126754   3.163   0.999   9.060  0.9528 -0.2169 -0.0608
  853TIP3    H226755   3.204   1.063   9.191  0.5633 -1.1709  0.5428
  854TIP3   OH226756   5.900   0.627   9.232 -0.5520  0.3250 -0.0139
  854TIP3    H126757   5.825   0.686   9.240 -0.5128  0.1624  2.2157
  854TIP3    H226758   5.863   0.547   9.196 -0.8857  1.1607 -1.6273
  855TIP3   OH226759   0.746   4.314   8.276  0.4508  0.1885 -0.2542
  855TIP3    H126760   0.784   4.350   8.196 -0.7276 -1.7016 -1.7318
  855TIP3    H226761   0.807   4.246   8.304  1.5140  1.6520  1.2751
  856TIP3   OH226762   6.107   1.834   7.954 -0.1247  0.2680  0.0784
  856TIP3    H126763   6.117   1.755   8.006  1.7215 -0.3289 -1.1264
  856TIP3    H226764   6.012   1.851   7.956 -0.4458 -1.3709  1.1736
  857TIP3   OH226765   4.009   4.501   9.535 -0.4138 -0.2844 -0.0219
  857TIP3    H126766   3.988   4.479   9.626 -0.0490  0.5002  0.2552
  857TIP3    H226767   4.067   4.430   9.506 -1.8822 -1.4478 -0.1954
  858TIP3   OH226768   6.534   4.646   6.562 -0.0231 -0.2318 -0.2395
  858TIP3    H126769   6.451   4.602   6.546 -1.0658  1.1844  0.9659
  858TIP3    H226770   6.600   4.591   6.519 -1.5442 -1.4998 -1.0315
  859TIP3   OH226771   3.445   0.363   8.645  0.6815 -0.4599  0.3799
  859TIP3    H126772   3.466   0.439   8.590  0.1642 -1.7398 -1.6994
  859TIP3    H226773   3.483   0.289   8.599 -1.7973 -1.8958  0.4531
  860TIP3   OH226774   3.504   4.638   8.288  0.7807  0.2747  0.0732
  860TIP3    H126775   3.439   4.569   8.273 -0.4624  1.6982 -1.4233
  860TIP3    H226776   3.550   4.646   8.205  2.3002 -0.0921  0.8523
  861TIP3   OH226777   4.577   2.822   9.716 -0.3664 -0.0784  0.1331
  861TIP3    H126778   4.659   2.776   9.737  0.0283  0.7552  0.4518
  861TIP3    H226779   4.510   2.774   9.765  0.0952 -0.0939  0.7711
  862TIP3   OH226780   0.391   6.635   6.863  0.3066  0.7755 -0.3845
  862TIP3    H126781   0.306   6.645   6.820  0.2926  0.9551 -0.3148
  862TIP3    H226782   0.375   6.655   6.955  0.6357  1.9134 -0.5526
  863TIP3   OH226783   4.111   3.946   7.358  0.1725  0.1385  0.2050
  863TIP3    H126784   4.134   3.863   7.401 -0.7272 -0.0168  0.4199
  863TIP3    H226785   4.024   3.966   7.392 -0.9621 -0.4291 -2.1996
  864TIP3   OH226786   4.475   4.718   7.883 -0.3252  0.1831 -0.2760
  864TIP3    H126787   4.501   4.806   7.911 -1.5428  0.7704 -0.8967
  864TIP3    H226788   4.536   4.660   7.928  0.5925  1.3472  0.0473
  865TIP3   OH226789   2.599   2.637   9.170 -0.3737 -0.2330 -0.0850
  865TIP3    H126790   2.539   2.702   9.208 -0.0172 -0.0077  0.0987
  865TIP3    H226791   2.562   2.618   9.083 -0.5114  0.1707 -0.1151
  866TIP3   OH226792   6.546   0.228   7.927  0.3636  0.1384  0.0496
  866TIP3    H126793   6.625   0.237   7.981  0.1798 -1.4587  0.6428
  866TIP3    H226794   6.569   0.163   7.861  0.0931  0.9695 -0.8829
  867TIP3   OH226795   6.585   3.273   7.404 -0.1768 -0.0605 -0.3571
  867TIP3    H126796   6.611   3.261   7.313  1.0490  1.4757 -0.2536
  867TIP3    H226797   6.494   3.301   7.400  0.4715  2.1171 -1.3102
  868TIP3   OH226798   6.878   6.675   9.193 -0.5251  0.4061 -0.7516
  868TIP3    H126799   6.789   6.651   9.218  0.0072 -0.8851 -0.0137
  868TIP3    H226800   6.904   6.742   9.257 -0.0189 -1.1879  0.7849
  869TIP3   OH226801   7.575   0.732   9.247  0.0362  0.2368  0.6506
  869TIP3    H126802   7.619   0.720   9.163 -0.3147  1.1708  0.3164
  869TIP3    H226803   7.646   0.753   9.309  0.0266  3.1368 -0.1621
  870TIP3   OH226804   7.531   5.305   7.209 -0.0374  0.2061 -0.0509
  870TIP3    H126805   7.475   5.375   7.175 -0.1379  1.1857  1.9759
  870TIP3    H226806   7.619   5.328   7.179 -0.0880  1.1659  0.4951
  871TIP3   OH226807   4.588   4.766   8.197  0.4169 -0.1865  0.0937
  871TIP3    H126808   4.623   4.738   8.282 -1.3334  1.0284  1.2858
  871TIP3    H226809   4.641   4.843   8.173  0.2016  0.1408  0.6477
  872TIP3   OH226810   2.897   0.797   8.184 -0.2413  0.0795 -0.4141
  872TIP3    H126811   2.931   0.874   8.137 -0.5391  0.1521 -0.5141
  872TIP3    H226812   2.904   0.726   8.121 -2.0927  0.4867 -1.1443
  873TIP3   OH226813   6.216   0.650   7.733  0.2849 -0.8388  0.1702
  873TIP3    H126814   6.232   0.558   7.715 -0.3647 -1.1297  1.0180
  873TIP3    H226815   6.252   0.664   7.821 -0.3110 -0.4686  0.3576
  874TIP3   OH226816   6.258   7.635   6.903 -0.8474 -0.0429 -0.8736
  874TIP3    H126817   6.350   7.656   6.887 -1.2809  0.3097 -3.2811
  874TIP3    H226818   6.233   7.692   6.976  1.0592 -0.9214  0.5722
  875TIP3   OH226819   1.980   0.893   9.229  0.0566  0.0006  0.1984
  875TIP3    H126820   1.936   0.821   9.185  0.8223  0.4968 -1.4598
  875TIP3    H226821   1.953   0.971   9.179  0.7875  0.6155  0.7427
  876TIP3   OH226822   2.707   0.587   9.305 -0.1312 -0.2110  0.0655
  876TIP3    H126823   2.623   0.542   9.314 -1.0578  1.6213  1.2767
  876TIP3    H226824   2.771   0.523   9.335 -1.1382 -1.4930 -0.4265
  877TIP3   OH226825   4.498   7.118   8.483 -0.3074  0.4287  0.0407
  877TIP3    H126826   4.432   7.098   8.550 -1.4564 -1.0383 -1.4375
  877TIP3    H226827   4.531   7.032   8.456 -0.9926  0.8269 -2.3049
  878TIP3   OH226828   6.709   0.897   7.485  0.0506  0.1678 -0.5468
  878TIP3    H126829   6.742   0.985   7.465 -2.7596  0.9915 -2.1022
  878TIP3    H226830   6.695   0.857   7.399  1.5418 -1.9779  0.1373
  879TIP3   OH226831   1.070   5.471   7.147 -0.0896 -0.5431  0.1544
  879TIP3    H126832   0.988   5.441   7.188  0.2005 -1.8128 -0.1697
  879TIP3    H226833   1.114   5.391   7.119  1.9632  0.0186  1.5993
  880TIP3   OH226834   5.622   4.181   8.395 -0.3666 -0.1889  0.1600
  880TIP3    H126835   5.592   4.137   8.475 -0.0434 -1.3318 -0.3294
  880TIP3    H226836   5.681   4.249   8.426  0.5957 -1.3120  0.8662
  881TIP3   OH226837   4.486   2.544   7.945  0.5994  0.2841  0.4417
  881TIP3    H126838   4.519   2.507   7.863  0.5262  0.0598  0.5123
  881TIP3    H226839   4.419   2.483   7.974  0.0886  0.7621  0.2820
  882TIP3   OH226840   4.814   5.406   7.507  0.6257  0.4729 -0.1478
  882TIP3    H126841   4.806   5.423   7.413  0.4241  1.9093  0.1071
  882TIP3    H226842   4.886   5.343   7.514 -0.8743 -1.5089 -1.4113
  883TIP3   OH226843   1.734   2.159   6.891 -0.4267  0.3168  0.5957
  883TIP3    H126844   1.761   2.241   6.850 -1.5382  0.2597 -0.3167
  883TIP3    H226845   1.701   2.106   6.818 -1.3665 -0.2449  1.4122
  884TIP3   OH226846   2.981   1.557   9.005  0.2125 -0.1297  0.2673
  884TIP3    H126847   2.969   1.495   9.077  0.1983 -0.1823  0.2192
  884TIP3    H226848   3.076   1.560   8.992  0.3276  0.9225  1.2066
  885TIP3   OH226849   4.308   3.091   8.331 -0.1461  0.3390  0.1523
  885TIP3    H126850   4.345   3.179   8.339  0.0377  0.1927  1.0223
  885TIP3    H226851   4.332   3.048   8.413  1.3372 -1.1166 -1.0059
  886TIP3   OH226852   1.639   4.139   9.179  0.7508  0.5431  0.0173
  886TIP3    H126853   1.573   4.070   9.191  2.1266 -0.4530  2.6902
  886TIP3    H226854   1.632   4.163   9.086 -1.7404 -1.1409 -0.3349
  887TIP3   OH226855   5.128   6.672   8.384 -0.2336  0.4806  0.8647
  887TIP3    H126856   5.136   6.764   8.361 -0.3103  0.1493 -0.5939
  887TIP3    H226857   5.085   6.632   8.308  1.4658 -1.0760  0.6717
  888TIP3   OH226858   3.491   1.517   8.733  0.6820 -0.1838 -0.6083
  888TIP3    H126859   3.428   1.535   8.802  0.6777  0.7813 -0.8536
  888TIP3    H226860   3.438   1.510   8.654  0.9202  1.1794 -0.9035
  889TIP3   OH226861   3.655   4.866   7.465 -0.0578 -0.6402 -0.0671
  889TIP3    H126862   3.587   4.867   7.397 -0.3889 -1.0374  0.2533
  889TIP3    H226863   3.676   4.773   7.476 -0.3941 -0.6241  0.7625
  890TIP3   OH226864   7.464   2.035   9.614  0.5793 -0.5111 -0.3249
  890TIP3    H126865   7.484   1.982   9.536 -2.0501 -0.7482 -0.9342
  890TIP3    H226866   7.376   2.006   9.640 -0.2708  2.3901  0.3113
  891TIP3   OH226867   1.692   0.185   7.275  0.0663 -0.1328 -0.1588
  891TIP3    H126868   1.764   0.210   7.218 -0.6895 -0.9521 -1.5397
  891TIP3    H226869   1.625   0.252   7.259 -0.7294 -1.1666 -1.4563
  892TIP3   OH226870   5.977   3.507   7.931  0.0398 -0.2643  0.0794
  892TIP3    H126871   5.933   3.592   7.931 -1.1527 -0.8322  1.3511
  892TIP3    H226872   5.908   3.445   7.955  1.5012 -1.1958  2.1474
  893TIP3   OH226873   1.913   2.584   9.084  0.5094  0.3278 -0.0948
  893TIP3    H126874   1.868   2.501   9.104  0.7718 -0.0578 -1.0663
  893TIP3    H226875   1.843   2.641   9.053  0.1702  0.7925  1.4308
  894TIP3   OH226876   3.323   6.957   9.170 -0.0779 -0.0651 -0.0359
  894TIP3    H126877   3.294   7.042   9.205 -1.0345 -1.1509  1.9380
  894TIP3    H226878   3.262   6.939   9.098  0.1225  0.8743 -0.4668
  895TIP3   OH226879   4.222   3.654   8.269  0.3964  0.0505  0.3367
  895TIP3    H126880   4.266   3.578   8.309  0.2049 -0.7282 -0.8813
  895TIP3    H226881   4.133   3.651   8.306  0.5682  0.0534  0.7632
  896TIP3   OH226882   2.030   7.181   7.016 -0.0114  0.3531  0.4785
  896TIP3    H126883   1.967   7.252   7.015  0.6188  0.9753 -2.1282
  896TIP3    H226884   2.103   7.212   6.962  0.6906 -1.8765  0.0164
  897TIP3   OH226885   7.024   5.872   9.299 -0.1365  0.5961 -0.1660
  897TIP3    H126886   6.962   5.897   9.230 -0.8633  0.9687  0.6106
  897TIP3    H226887   6.984   5.796   9.341  0.4738  0.1506 -0.3696
  898TIP3   OH226888   0.685   1.280   9.315 -0.6413  0.2316  0.5798
  898TIP3    H126889   0.611   1.316   9.363 -1.8222 -1.4856  0.1492
  898TIP3    H226890   0.651   1.263   9.227  0.2066 -0.7591  0.4237
  899TIP3   OH226891   0.442   2.476   9.172  0.3330 -0.2378 -0.2054
  899TIP3    H126892   0.414   2.523   9.250  0.6261 -0.8408  0.2715
  899TIP3    H226893   0.477   2.543   9.114 -0.4288  0.2939 -0.0706
  900TIP3   OH226894   7.375   7.463   6.833  0.1033 -0.1004  0.2906
  900TIP3    H126895   7.339   7.550   6.854 -2.1729 -0.9997  0.4187
  900TIP3    H226896   7.431   7.478   6.757 -1.5678  1.2713 -0.7490
  901TIP3   OH226897   2.342   3.689   8.195  0.5124  0.1314  0.2315
  901TIP3    H126898   2.425   3.645   8.176  0.3916 -0.0776  0.1907
  901TIP3    H226899   2.276   3.620   8.191  0.0289  0.6727 -1.9412
  902TIP3   OH226900   6.768   5.122   7.782  0.1714 -0.2650  0.8853
  902TIP3    H126901   6.859   5.094   7.786  0.4844  0.3302 -1.1852
  902TIP3    H226902   6.720   5.044   7.754  0.3322 -0.1087  0.1423
  903TIP3   OH226903   3.670   2.423   8.024  0.0808  0.2964  0.3923
  903TIP3    H126904   3.750   2.460   8.063  0.6336 -0.4050 -0.0368
  903TIP3    H226905   3.680   2.441   7.930  1.0303 -2.0550 -0.0280
  904TIP3   OH226906   5.972   2.850   9.584  0.2139  0.0990 -0.2662
  904TIP3    H126907   6.054   2.898   9.597 -0.1192  0.3097  1.2323
  904TIP3    H226908   5.982   2.770   9.636 -0.4181  0.0018 -0.2820
  905TIP3   OH226909   3.177   4.791   7.965 -0.4170  0.1892 -0.3629
  905TIP3    H126910   3.259   4.764   7.924 -0.7193  0.2769 -1.0370
  905TIP3    H226911   3.192   4.883   7.990 -0.1331  0.0490 -0.0080
  906TIP3   OH226912   6.905   4.381   8.339 -0.4205  0.2584 -0.1941
  906TIP3    H126913   6.836   4.339   8.390  0.2254  0.1294  0.6016
  906TIP3    H226914   6.978   4.390   8.401  0.5106 -0.2204 -1.1993
  907TIP3   OH226915   5.629   1.245   8.923  0.1696  0.0137  0.0946
  907TIP3    H126916   5.637   1.340   8.933  1.5108 -0.1587  0.9602
  907TIP3    H226917   5.683   1.224   8.847 -1.7861  0.1375 -1.4085
  908TIP3   OH226918   7.495   4.621   7.532  0.1248  0.4376  0.0775
  908TIP3    H126919   7.465   4.698   7.485 -0.5193  0.1773  0.0390
  908TIP3    H226920   7.503   4.649   7.623  1.0971  0.8671 -0.1293
  909TIP3   OH226921   1.699   6.814   6.427  0.4170 -0.7510 -0.2082
  909TIP3    H126922   1.782   6.792   6.469  0.2293 -2.2332 -0.5637
  909TIP3    H226923   1.677   6.901   6.461  2.3624 -0.0913 -0.5010
  910TIP3   OH226924   3.674   5.403   8.693  0.4892 -1.0005 -0.2519
  910TIP3    H126925   3.751   5.422   8.746  1.0537 -1.5356 -0.8562
  910TIP3    H226926   3.706   5.405   8.602 -0.6932  1.0785 -0.6790
  911TIP3   OH226927   6.602   5.742   7.180  0.0513 -0.6213 -0.1530
  911TIP3    H126928   6.574   5.656   7.210  0.3085 -0.3901  0.8259
  911TIP3    H226929   6.529   5.800   7.202  0.7614 -0.2217  1.3133
  912TIP3   OH226930   1.600   6.468   7.730  0.1335  0.1886  0.7559
  912TIP3    H126931   1.623   6.558   7.753  2.0120 -0.2562  0.7961
  912TIP3    H226932   1.550   6.436   7.804 -2.8749  1.9469 -0.3300
  913TIP3   OH226933   0.929   3.844   8.482  0.4539 -0.2180 -0.4365
  913TIP3    H126934   0.859   3.779   8.475 -1.7723  1.8974  0.5719
  913TIP3    H226935   0.949   3.847   8.575  0.5153  0.5039 -0.4644
  914TIP3   OH226936   5.719   6.348   7.167  0.2118  0.1100  0.3057
  914TIP3    H126937   5.743   6.373   7.077 -0.2884 -1.0284 -0.1682
  914TIP3    H226938   5.688   6.429   7.207  1.1136  0.7763 -0.3256
  915TIP3   OH226939   3.135   1.648   7.612 -0.1084  0.2947 -0.0442
  915TIP3    H126940   3.077   1.636   7.537  1.9283  0.9348 -1.8145
  915TIP3    H226941   3.222   1.627   7.579  0.8323  0.2495  2.2685
  916TIP3   OH226942   1.297   5.829   6.901 -0.1726 -0.3871  0.3491
  916TIP3    H126943   1.270   5.741   6.875 -2.7962  0.0889  1.2232
  916TIP3    H226944   1.244   5.888   6.848  1.4291  0.7189 -0.0963
  917TIP3   OH226945   4.810   7.343   7.775 -0.0558 -0.1250 -0.1914
  917TIP3    H126946   4.787   7.331   7.867  0.3500  1.3985  0.1419
  917TIP3    H226947   4.867   7.269   7.754  0.8877  0.1716  1.1701
  918TIP3   OH226948   0.766   6.335   8.849  0.0813  0.2044  0.4451
  918TIP3    H126949   0.855   6.301   8.860  0.1174 -0.8256 -2.3138
  918TIP3    H226950   0.719   6.264   8.805 -1.2915  1.8105 -0.8034
  919TIP3   OH226951   3.013   6.772   7.716 -0.6316 -0.2414  0.3874
  919TIP3    H126952   3.006   6.685   7.677 -0.4938 -1.1379  2.2694
  919TIP3    H226953   3.099   6.805   7.688 -0.5921 -0.7933 -0.1504
  920TIP3   OH226954   1.250   0.946   7.222 -0.2959 -0.1632 -0.6390
  920TIP3    H126955   1.327   1.002   7.215 -0.4146  0.2531  0.9532
  920TIP3    H226956   1.181   0.992   7.174 -0.2798  0.8884  0.2989
  921TIP3   OH226957   6.491   0.383   8.869  0.3443 -0.5910  0.2319
  921TIP3    H126958   6.410   0.389   8.817  0.7763 -1.9284 -0.6547
  921TIP3    H226959   6.497   0.467   8.913 -1.2793 -0.2766 -0.0690
  922TIP3   OH226960   7.176   6.223   9.214 -0.2666 -0.6092 -0.0802
  922TIP3    H126961   7.218   6.152   9.166 -1.1195 -0.5141 -0.9970
  922TIP3    H226962   7.166   6.189   9.303  0.9195 -0.9593 -0.0568
  923TIP3   OH226963   0.071   4.664   6.635  0.0022  0.3939 -0.3949
  923TIP3    H126964   0.084   4.744   6.686  1.5294  1.2143 -1.9750
  923TIP3    H226965   0.130   4.600   6.677  0.8086  0.8902 -0.7474
  924TIP3   OH226966   4.828   1.756   9.009 -0.2341 -0.0002 -0.4221
  924TIP3    H126967   4.833   1.670   9.050  0.7393 -0.0573 -0.6370
  924TIP3    H226968   4.901   1.758   8.948  0.7226  1.5275  0.6895
  925TIP3   OH226969   1.043   0.077   9.136 -0.1252 -0.0184 -1.1197
  925TIP3    H126970   1.107   0.050   9.071  1.6840 -1.8310  1.2056
  925TIP3    H226971   1.065   0.168   9.157  1.0781 -0.3085 -1.0814
  926TIP3   OH226972   2.476   6.022   7.680  0.2220 -1.0639 -0.6749
  926TIP3    H126973   2.536   5.962   7.724 -0.6856  0.1975  2.5607
  926TIP3    H226974   2.397   6.022   7.734 -0.4212  1.7783 -1.4286
  927TIP3   OH226975   6.023   0.624   9.563 -0.3287 -0.4818 -0.7707
  927TIP3    H126976   6.008   0.699   9.621  0.2639 -0.9656  0.0239
  927TIP3    H226977   6.112   0.595   9.583 -1.3673 -2.9172  0.7217
  928TIP3   OH226978   4.227   0.372   6.926 -0.2696  0.2774  0.0888
  928TIP3    H126979   4.312   0.347   6.890  0.1059 -1.2078  1.8581
  928TIP3    H226980   4.179   0.290   6.934 -1.0590  0.8193  1.0989
  929TIP3   OH226981   5.943   1.019   9.058  0.5512 -0.1393 -0.1316
  929TIP3    H126982   5.988   0.942   9.093  0.1126 -0.4927 -0.3151
  929TIP3    H226983   5.923   0.995   8.967  0.2910  0.1364 -0.1495
  930TIP3   OH226984   4.916   4.137   8.034  0.2135  0.5338  0.6450
  930TIP3    H126985   4.844   4.115   7.975  1.1131 -1.0911  0.0904
  930TIP3    H226986   4.898   4.089   8.114  1.1791 -0.7611  0.1266
  931TIP3   OH226987   0.032   7.539   7.086 -0.1042 -0.0213 -0.1207
  931TIP3    H126988   0.032   7.534   6.990  0.4662  0.7424 -0.1631
  931TIP3    H226989   0.060   7.451   7.114  1.3897  0.2472 -0.6939
  932TIP3   OH226990   5.741   7.317   8.611  0.3568  0.3078  0.1805
  932TIP3    H126991   5.825   7.278   8.588  1.7404  3.3815 -0.5467
  932TIP3    H226992   5.681   7.288   8.542  1.7093  0.7387 -1.2290
  933TIP3   OH226993   4.430   1.796   8.970  0.5113 -0.2234 -0.0248
  933TIP3    H126994   4.425   1.735   8.897 -0.4001 -0.5680  0.3009
  933TIP3    H226995   4.341   1.797   9.006  0.6601  0.8330  0.3574
  934TIP3   OH226996   4.396   6.662   8.114 -0.2472  0.3783  0.4197
  934TIP3    H126997   4.340   6.737   8.093 -2.1999 -1.2344 -0.5634
  934TIP3    H226998   4.455   6.654   8.039 -1.1849 -0.0454 -0.2936
  935TIP3   OH226999   6.373   1.459   8.978 -0.6528  0.3040 -0.4673
  935TIP3    H127000   6.361   1.462   8.883  1.1180  0.9285 -0.7274
  935TIP3    H227001   6.349   1.546   9.008 -2.3180 -0.2404 -0.1570
  936TIP3   OH227002   0.131   2.816   9.350 -0.6323  0.4991  0.1422
  936TIP3    H127003   0.062   2.852   9.406 -1.6367 -0.3563 -0.4996
  936TIP3    H227004   0.097   2.731   9.322  1.5182 -0.8719  1.3796
  937TIP3   OH227005   0.945   4.321   8.546  0.6441 -0.1696 -0.0371
  937TIP3    H127006   0.921   4.261   8.476  0.3354 -1.3146  1.0259
  937TIP3    H227007   0.926   4.408   8.510  1.5829 -0.6442 -1.7771
  938TIP3   OH227008   3.605   5.041   7.930  0.1391 -0.1688 -0.1461
  938TIP3    H127009   3.670   5.112   7.932 -0.3199  0.2503 -0.1201
  938TIP3    H227010   3.543   5.062   8.000 -1.2906  0.6430 -1.6037
  939TIP3   OH227011   7.128   3.145   7.816  0.4417 -0.1543 -0.1991
  939TIP3    H127012   7.070   3.171   7.744  1.0626 -0.7180 -0.9232
  939TIP3    H227013   7.073   3.091   7.873 -0.1838  0.6821  0.0132
  940TIP3   OH227014   3.303   5.566   7.908  0.0591  0.1491 -0.5766
  940TIP3    H127015   3.349   5.540   7.829  1.6345 -0.2704  0.4261
  940TIP3    H227016   3.365   5.621   7.955  0.2390 -1.7462  1.5934
  941TIP3   OH227017   3.463   5.520   7.693 -0.4107  0.0918  0.1866
  941TIP3    H127018   3.555   5.502   7.712 -0.6393 -0.1676  1.0993
  941TIP3    H227019   3.431   5.440   7.652 -0.7478 -0.6511  1.8083
  942TIP3   OH227020   0.262   7.238   8.714 -0.7637 -0.3446  0.1877
  942TIP3    H127021   0.234   7.329   8.727  1.1380  0.4270 -0.7669
  942TIP3    H227022   0.222   7.213   8.630 -1.4038 -0.4544  0.5196
  943TIP3   OH227023   3.285   5.965   8.399  0.0832  0.1624  0.1810
  943TIP3    H127024   3.244   5.902   8.458 -0.2605  0.0564 -0.1639
  943TIP3    H227025   3.333   5.912   8.336  1.6791  0.2972  1.2001
  944TIP3   OH227026   4.364   4.422   7.890  0.4824 -0.0912 -0.3247
  944TIP3    H127027   4.387   4.403   7.799  2.4832  0.0198  0.1167
  944TIP3    H227028   4.416   4.360   7.942  0.0003  0.4007  0.7826
  945TIP3   OH227029   6.995   4.026   9.285  0.4456  0.1177 -0.1336
  945TIP3    H127030   6.984   4.033   9.380 -0.2137 -1.3688 -0.0658
  945TIP3    H227031   6.922   3.971   9.257  0.8419  0.2376 -1.4515
  946TIP3   OH227032   3.043   1.290   9.134 -0.1970  0.0217 -0.1392
  946TIP3    H127033   3.027   1.281   9.040 -1.4022 -0.8971  0.1238
  946TIP3    H227034   3.064   1.201   9.163 -1.7997 -0.0999  0.7750
  947TIP3   OH227035   7.606   2.685   6.967  0.3638 -0.0308 -0.1171
  947TIP3    H127036   7.653   2.667   6.886 -0.9869 -1.0212 -0.7284
  947TIP3    H227037   7.662   2.650   7.036  0.2224 -1.8728 -0.8814
  948TIP3   OH227038   1.775   0.818   7.189  0.3355  0.0601  0.0925
  948TIP3    H127039   1.820   0.840   7.107 -0.9057 -1.0028 -0.9115
  948TIP3    H227040   1.686   0.796   7.163  0.0082 -0.6730  1.6898
  949TIP3   OH227041   4.696   1.208   7.814 -0.1950 -0.3500  0.1298
  949TIP3    H127042   4.659   1.166   7.891 -0.1542 -0.0611  0.3074
  949TIP3    H227043   4.715   1.135   7.754 -2.4994 -0.4247 -0.6340
  950TIP3   OH227044   1.178   6.918   7.945 -0.1732 -0.7925  0.0375
  950TIP3    H127045   1.120   6.994   7.937  1.6565  0.7077  0.1121
  950TIP3    H227046   1.146   6.871   8.022 -0.0653  1.1439  1.3360
  951TIP3   OH227047   5.455   7.493   9.325  0.3398 -0.6903  0.2727
  951TIP3    H127048   5.527   7.430   9.312  0.3989 -0.5882  0.1019
  951TIP3    H227049   5.473   7.563   9.262  0.0666 -0.6846  0.2005
  952TIP3   OH227050   7.254   4.666   7.195 -0.0927  0.4156  0.0491
  952TIP3    H127051   7.327   4.725   7.177  0.5079 -0.6564 -1.2755
  952TIP3    H227052   7.178   4.709   7.156  0.1529  0.7823 -0.0283
  953TIP3   OH227053   6.848   5.010   9.160  0.7882 -0.0862 -0.3471
  953TIP3    H127054   6.865   4.945   9.228 -0.0232  1.3548  1.3087
  953TIP3    H227055   6.935   5.036   9.130  1.1440 -1.1587 -0.3065
  954TIP3   OH227056   4.936   1.519   9.110 -0.1651  0.1360 -0.4618
  954TIP3    H127057   4.950   1.424   9.110  0.2592  0.1554 -2.5700
  954TIP3    H227058   4.961   1.546   9.198 -1.6089 -1.8617  0.6437
  955TIP3   OH227059   0.887   4.111   8.369 -0.2073 -0.1731 -0.2352
  955TIP3    H127060   0.851   4.039   8.421 -0.7718  0.2860  0.0324
  955TIP3    H227061   0.951   4.070   8.311  2.6941 -0.3607  2.8215
  956TIP3   OH227062   2.028   0.221   8.086  0.2854 -0.5786 -0.1207
  956TIP3    H127063   1.949   0.272   8.065  0.8282 -0.2518 -1.4298
  956TIP3    H227064   2.065   0.265   8.162 -0.5036 -0.4144  0.1794
  957TIP3   OH227065   3.333   3.000   8.544  0.2378  0.4422 -0.6721
  957TIP3    H127066   3.308   3.091   8.559 -1.0880  0.4885 -2.7532
  957TIP3    H227067   3.382   3.002   8.462 -0.4364 -0.8117 -1.1241
  958TIP3   OH227068   7.024   3.140   7.075 -0.1881 -0.3637 -0.4472
  958TIP3    H127069   6.965   3.179   7.011 -1.2459 -1.3185 -0.0880
  958TIP3    H227070   7.017   3.046   7.060  2.0003 -0.4944 -1.0458
  959TIP3   OH227071   0.453   3.462   7.966 -0.2140  0.0756  0.8561
  959TIP3    H127072   0.474   3.478   8.058  2.3256 -0.9522  0.5242
  959TIP3    H227073   0.501   3.529   7.918 -0.4605 -0.2103  0.1967
  960TIP3   OH227074   4.157   1.755   9.050  0.0312  0.6454 -0.2922
  960TIP3    H127075   4.121   1.836   9.084  0.1565  0.1503  1.0519
  960TIP3    H227076   4.096   1.730   8.980 -0.6828  1.2512  0.0978
  961TIP3   OH227077   1.217   3.814   8.794  0.5474  0.6967  0.4995
  961TIP3    H127078   1.290   3.756   8.814  2.0516  2.5146  0.6325
  961TIP3    H227079   1.250   3.871   8.724 -2.5293 -1.6816 -3.3500
  962TIP3   OH227080   5.354   2.985   8.399  0.3904 -0.4895  0.0718
  962TIP3    H127081   5.336   2.904   8.351  0.6665 -0.9262  0.6950
  962TIP3    H227082   5.417   2.959   8.466 -0.7041 -0.0945  1.2805
  963TIP3   OH227083   7.489   6.125   6.609  0.1707 -0.1477 -0.3916
  963TIP3    H127084   7.533   6.183   6.672 -0.7203  0.9188 -0.7257
  963TIP3    H227085   7.402   6.112   6.645  0.5149 -1.7106 -0.0729
  964TIP3   OH227086   5.708   1.134   9.168  0.3635 -0.1768 -0.3766
  964TIP3    H127087   5.771   1.085   9.116 -1.2385 -0.8633 -1.7445
  964TIP3    H227088   5.668   1.195   9.106  0.3156  0.8927  0.6756
  965TIP3   OH227089   0.565   1.969   9.614  0.7240  0.0675  0.0216
  965TIP3    H127090   0.508   1.963   9.691 -0.0032 -1.3373 -0.5732
  965TIP3    H227091   0.590   2.061   9.609  0.5151  0.2500  1.7348
  966TIP3   OH227092   0.175   2.446   8.873  0.0354 -0.1979  0.1818
  966TIP3    H127093   0.105   2.426   8.811 -0.3314  0.3409  0.4137
  966TIP3    H227094   0.203   2.361   8.906  0.4931 -0.5264 -0.9948
  967TIP3   OH227095   5.955   6.559   8.049  0.6867  0.1144  0.1185
  967TIP3    H127096   5.995   6.498   7.986 -0.8107  1.9764 -2.8468
  967TIP3    H227097   5.861   6.540   8.043  0.4937  0.5209  1.6628
  968TIP3   OH227098   2.826   6.132   9.186  0.0894 -0.2690 -0.1295
  968TIP3    H127099   2.879   6.124   9.106  1.6655 -1.1234  0.9466
  968TIP3    H227100   2.791   6.044   9.200  1.5994 -0.7122  1.2390
  969TIP3   OH227101   5.675   0.801   9.140 -0.8620  0.3141  0.0679
  969TIP3    H127102   5.586   0.816   9.170 -0.1475  1.3448  1.8024
  969TIP3    H227103   5.666   0.781   9.047 -2.6115  4.9053 -0.9918
  970TIP3   OH227104   5.052   0.236   9.485 -0.3600  0.6824  0.3522
  970TIP3    H127105   5.120   0.168   9.474 -0.6656  0.7420 -2.6681
  970TIP3    H227106   4.978   0.189   9.524  0.0839 -0.3192  0.0388
  971TIP3   OH227107   7.165   2.318   6.738  0.0155 -0.2082 -0.0240
  971TIP3    H127108   7.129   2.403   6.764  1.4238 -0.1174  1.9218
  971TIP3    H227109   7.179   2.325   6.644  0.4081  1.8824  0.1338
  972TIP3   OH227110   6.111   5.449   7.325  0.8243  0.6391  0.0429
  972TIP3    H127111   6.038   5.399   7.290  1.0448 -1.2068  2.0426
  972TIP3    H227112   6.122   5.522   7.263 -3.5945  1.8759  0.4068
  973TIP3   OH227113   5.426   4.623   7.589 -0.3762  0.2931  0.4129
  973TIP3    H127114   5.503   4.641   7.643 -0.3461 -0.2309  0.5452
  973TIP3    H227115   5.352   4.644   7.646 -0.3344  0.8118  0.2807
  974TIP3   OH227116   2.669   0.244   7.391  0.3458  0.1844 -0.1113
  974TIP3    H127117   2.656   0.261   7.298  0.2216  0.1379 -0.1039
  974TIP3    H227118   2.587   0.274   7.432  0.6766  0.8668  0.0686
  975TIP3   OH227119   5.243   5.367   7.799  0.4896  0.1625  0.0774
  975TIP3    H127120   5.270   5.444   7.849  0.1914 -0.2795  0.9338
  975TIP3    H227121   5.147   5.369   7.803  0.2881  1.6254 -2.7835
  976TIP3   OH227122   6.364   1.773   9.551  0.6953 -0.0110 -0.0134
  976TIP3    H127123   6.298   1.748   9.486  0.9702  1.8110 -1.0713
  976TIP3    H227124   6.338   1.727   9.631 -2.1335  0.9304 -0.2586
  977TIP3   OH227125   6.003   3.901   8.010 -0.0498 -0.4930  0.4490
  977TIP3    H127126   6.071   3.941   7.956 -0.2359 -0.5686  0.1501
  977TIP3    H227127   6.049   3.860   8.082  0.0703  1.3107  1.4535
  978TIP3   OH227128   3.907   1.981   8.285  0.1729  0.1135 -0.0685
  978TIP3    H127129   3.973   1.914   8.307 -1.0797 -1.1492 -0.0179
  978TIP3    H227130   3.935   2.014   8.200  0.7206 -0.6139 -0.1875
  979TIP3   OH227131   4.157   1.936   7.762  0.3405  0.0718 -0.2877
  979TIP3    H127132   4.220   1.997   7.801  0.1088 -0.0098  0.2285
  979TIP3    H227133   4.076   1.953   7.810  0.4728 -1.2161  0.4357
  980TIP3   OH227134   3.212   2.445   8.043  0.0930  0.2149 -0.0731
  980TIP3    H127135   3.184   2.536   8.053 -0.0928  0.0444  1.0991
  980TIP3    H227136   3.298   2.442   8.085 -1.4608 -0.9125  3.4588
  981TIP3   OH227137   6.964   6.594   7.493  0.2053 -0.7330  0.0017
  981TIP3    H127138   7.010   6.669   7.457  0.7810 -1.2058 -0.2626
  981TIP3    H227139   7.033   6.535   7.523 -0.2438 -0.9320  0.6867
  982TIP3   OH227140   7.351   6.098   7.653  0.5892  0.6184 -0.4172
  982TIP3    H127141   7.392   6.184   7.644 -0.0695  0.9988  0.1073
  982TIP3    H227142   7.260   6.112   7.626  0.3583  0.1981  0.1257
  983TIP3   OH227143   6.278   7.413   9.083  0.1441 -0.0376  0.3849
  983TIP3    H127144   6.355   7.358   9.094  0.7373  0.9604  1.4929
  983TIP3    H227145   6.302   7.497   9.123 -0.7667  1.0045 -1.1152
  984TIP3   OH227146   7.004   3.870   8.961  0.1798  0.6569  0.1121
  984TIP3    H127147   7.021   3.960   8.933 -1.8786  0.9219 -0.4806
  984TIP3    H227148   6.918   3.850   8.923  0.1979 -1.2481  0.9931
  985TIP3   OH227149   1.792   5.393   7.733  0.1898 -0.7192 -0.0228
  985TIP3    H127150   1.798   5.487   7.714 -0.0722 -0.4186  1.3039
  985TIP3    H227151   1.711   5.365   7.691 -0.3177 -0.0935  0.5073
  986TIP3   OH227152   1.363   1.353   7.034  0.0349  0.4980  0.0984
  986TIP3    H127153   1.394   1.303   7.109  2.0779  0.9620 -0.3786
  986TIP3    H227154   1.286   1.305   7.003  0.2071 -0.6869  1.3983
  987TIP3   OH227155   5.960   1.510   6.879 -0.5791  0.1516  0.1417
  987TIP3    H127156   5.995   1.423   6.857 -0.3378  0.1575  0.4972
  987TIP3    H227157   5.898   1.529   6.809 -1.1027 -0.5821  0.3893
  988TIP3   OH227158   1.444   2.007   9.524 -0.2840  0.2916  0.8617
  988TIP3    H127159   1.401   2.082   9.482  0.9126  1.5326  1.7424
  988TIP3    H227160   1.381   1.975   9.588 -1.4755 -0.5674 -0.6830
  989TIP3   OH227161   7.144   6.070   9.450 -0.1883 -0.4477 -0.2610
  989TIP3    H127162   7.079   6.004   9.426 -1.8877 -0.3719  3.4470
  989TIP3    H227163   7.219   6.020   9.482  0.5680 -0.5027 -1.9894
  990TIP3   OH227164   5.786   0.406   9.131  0.5183  0.2672 -0.0815
  990TIP3    H127165   5.717   0.362   9.082 -0.3569 -1.0002  2.1757
  990TIP3    H227166   5.761   0.397   9.223  3.0115  0.9299  0.7547
  991TIP3   OH227167   1.611   7.308   8.728 -0.1786 -0.2260  0.2470
  991TIP3    H127168   1.516   7.319   8.721 -0.1703 -0.4379 -0.2223
  991TIP3    H227169   1.637   7.370   8.797 -0.6179  0.0338  0.1864
  992TIP3   OH227170   4.583   7.092   9.011 -0.5189  0.1845 -0.3233
  992TIP3    H127171   4.584   7.120   9.102 -0.9486  1.9081 -0.8017
  992TIP3    H227172   4.653   7.143   8.970 -1.0921  0.3160 -1.1718
  993TIP3   OH227173   2.778   5.741   7.225  0.8158 -0.0156  0.7243
  993TIP3    H127174   2.724   5.762   7.149 -0.3242 -1.5713  1.0511
  993TIP3    H227175   2.775   5.820   7.279 -0.4255  0.2326  0.3214
  994TIP3   OH227176   5.935   0.886   7.198 -0.1472 -0.1257 -0.4292
  994TIP3    H127177   6.002   0.919   7.138  0.2022  1.8576  0.9720
  994TIP3    H227178   5.882   0.827   7.144  2.2589 -1.2329 -1.7665
  995TIP3   OH227179   5.236   4.342   7.847  0.0692  0.3492 -0.2702
  995TIP3    H127180   5.141   4.351   7.856  0.2973  1.3525  1.6313
  995TIP3    H227181   5.272   4.407   7.908  2.0075  1.3731 -2.3481
  996TIP3   OH227182   3.768   3.051   8.966 -0.4556 -0.0751  0.2390
  996TIP3    H127183   3.686   3.004   8.954 -0.1016 -1.0923  1.4553
  996TIP3    H227184   3.756   3.100   9.047 -1.3635  3.2996 -1.7595
  997TIP3   OH227185   6.132   3.799   8.896 -0.1091  0.1146  0.2441
  997TIP3    H127186   6.142   3.725   8.835 -4.1048 -1.2296  0.8928
  997TIP3    H227187   6.039   3.823   8.889  0.2906  2.9007  2.5685
  998TIP3   OH227188   4.391   2.111   9.201  0.5643  0.2639 -0.0417
  998TIP3    H127189   4.314   2.067   9.237  1.1892 -0.3575  0.5293
  998TIP3    H227190   4.462   2.049   9.211  0.8699  0.2294 -1.9452
  999TIP3   OH227191   2.975   4.525   7.790  0.2879 -0.1518 -0.3989
  999TIP3    H127192   3.068   4.506   7.782 -0.0456 -3.1521  1.5583
  999TIP3    H227193   2.933   4.476   7.719  0.1246  1.3406 -1.3971
 1000TIP3   OH227194   3.988   1.059   7.899  0.2059  0.4582  0.3319
 1000TIP3    H127195   3.966   0.984   7.954  0.0788 -0.6549 -1.1827
 1000TIP3    H227196   4.067   1.096   7.940  0.4671 -0.6942  0.9112
 1001TIP3   OH227197   0.425   2.973   7.822 -0.1961 -0.3283  0.2546
 1001TIP3    H127198   0.505   2.965   7.770 -1.3770  0.6967 -1.8384
 1001TIP3    H227199   0.428   3.062   7.857 -0.9522  0.1406 -0.8276
 1002TIP3   OH227200   6.440   4.612   9.213  0.1179  0.1628 -0.3215
 1002TIP3    H127201   6.350   4.585   9.199  0.5238 -0.8483 -1.1808
 1002TIP3    H227202   6.492   4.540   9.177  1.2618  1.6471 -1.7939
 1003TIP3   OH227203   7.225   0.111   7.187  0.2727  0.0514 -0.3803
 1003TIP3    H127204   7.188   0.073   7.107 -0.6473  0.8315 -0.3341
 1003TIP3    H227205   7.178   0.067   7.258 -0.4962  0.9392 -0.3204
 1004TIP3   OH227206   3.174   5.511   9.125  1.1469  0.3260 -0.3020
 1004TIP3    H127207   3.214   5.426   9.142  1.9093  0.5669 -0.8526
 1004TIP3    H227208   3.081   5.497   9.144  1.2537 -0.6398 -0.4139
 1005TIP3   OH227209   4.826   7.278   9.227 -0.2123  0.0873 -0.1854
 1005TIP3    H127210   4.813   7.370   9.246  0.6371  0.4377 -1.1950
 1005TIP3    H227211   4.855   7.276   9.135  2.5889 -0.8934  0.5969
 1006TIP3   OH227212   6.975   2.870   8.575  0.2119 -0.5290  0.2509
 1006TIP3    H127213   7.033   2.926   8.524 -0.6163  0.9999  0.9175
 1006TIP3    H227214   6.910   2.839   8.512  0.1557  0.0010  0.0440
 1007TIP3   OH227215   6.326   3.677   8.718  0.1113  0.6104 -0.1746
 1007TIP3    H127216   6.272   3.693   8.641  1.5331  2.5226 -0.8656
 1007TIP3    H227217   6.415   3.700   8.689  0.6511  1.5938  2.0648
 1008TIP3   OH227218   7.472   3.903   8.867 -0.2095 -0.0147  0.4076
 1008TIP3    H127219   7.474   3.843   8.942  0.1813  2.0190  2.1127
 1008TIP3    H227220   7.381   3.931   8.861  0.2816  2.1937  2.1887
 1009TIP3   OH227221   3.326   1.070   8.214  0.3916  0.3765 -0.0567
 1009TIP3    H127222   3.383   1.120   8.155  0.0803 -0.3451 -0.9926
 1009TIP3    H227223   3.242   1.115   8.209  0.3989  0.3898 -0.0622
 1010TIP3   OH227224   0.356   1.974   9.813 -0.0504  0.3646  0.2234
 1010TIP3    H127225   0.339   1.989   9.907 -0.2523 -0.2595  0.2963
 1010TIP3    H227226   0.272   1.941   9.780 -0.4956  2.1732 -0.5522
 1011TIP3   OH227227   4.868   6.462   7.250 -0.8456 -0.9596 -0.1668
 1011TIP3    H127228   4.939   6.398   7.260  0.9055  0.8057 -0.6752
 1011TIP3    H227229   4.853   6.496   7.338 -0.4745 -0.7613 -0.1783
 1012TIP3   OH227230   5.464   0.499   7.893  0.0260 -0.2564 -0.2595
 1012TIP3    H127231   5.549   0.541   7.882  0.2879 -0.8438 -0.5651
 1012TIP3    H227232   5.432   0.532   7.976  1.0319 -0.8020  0.3753
 1013TIP3   OH227233   1.561   4.868   7.772 -0.3939  0.3287  0.0322
 1013TIP3    H127234   1.576   4.963   7.772  1.4343  0.0849 -0.3849
 1013TIP3    H227235   1.577   4.842   7.682  0.4698 -0.5523  0.4267
 1014TIP3   OH227236   0.786   1.588   8.903 -0.0195 -0.0412 -0.2365
 1014TIP3    H127237   0.758   1.569   8.993 -2.6018 -0.0046 -0.9376
 1014TIP3    H227238   0.712   1.560   8.849  1.0678  0.8191 -2.2802
 1015TIP3   OH227239   6.563   5.953   8.770  0.1489  0.4819 -0.1945
 1015TIP3    H127240   6.558   5.858   8.756  0.1056  0.4731 -0.1184
 1015TIP3    H227241   6.474   5.979   8.792  0.3091  0.4249  0.5392
 1016TIP3   OH227242   1.742   1.716   7.855 -0.4870  0.0977  0.0624
 1016TIP3    H127243   1.790   1.756   7.928  0.5483  0.1653 -0.6388
 1016TIP3    H227244   1.720   1.628   7.887  0.2057  0.0229  0.3632
 1017TIP3   OH227245   6.930   7.494   8.909 -0.0158 -0.1337  0.4610
 1017TIP3    H127246   6.946   7.498   8.815 -1.7113  1.5612  0.1872
 1017TIP3    H227247   6.865   7.424   8.920 -0.5608  0.3360  0.2429
 1018TIP3   OH227248   0.781   1.062   8.660 -0.4623 -0.3359 -0.8152
 1018TIP3    H127249   0.841   1.118   8.611 -1.5278  0.2992 -1.4262
 1018TIP3    H227250   0.747   1.118   8.730  0.9907 -1.2126  0.6676
 1019TIP3   OH227251   7.567   2.040   7.871  0.4983 -0.1841  0.7069
 1019TIP3    H127252   7.586   1.977   7.940  1.1037  1.6873  2.3262
 1019TIP3    H227253   7.652   2.078   7.849 -0.0110  0.9847  0.6875
 1020TIP3   OH227254   7.641   5.870   8.834  0.3020 -0.1700  0.3656
 1020TIP3    H127255   7.686   5.883   8.750  0.8352  0.6477  0.7693
 1020TIP3    H227256   7.559   5.826   8.810 -0.8204  2.3974 -0.9457
 1021TIP3   OH227257   5.010   6.225   7.366  0.4537 -0.1032  0.0007
 1021TIP3    H127258   5.026   6.271   7.448 -0.7657  2.8815 -1.2805
 1021TIP3    H227259   5.098   6.208   7.331  0.9605 -0.1003  1.2011
 1022TIP3   OH227260   1.612   1.415   6.970 -0.5813  0.5267 -0.0077
 1022TIP3    H127261   1.659   1.348   6.921 -0.3089 -0.5061  1.6163
 1022TIP3    H227262   1.519   1.391   6.960 -0.5665  0.6520 -0.4679
 1023TIP3   OH227263   5.404   4.920   7.937  0.6652  0.0729 -0.2689
 1023TIP3    H127264   5.430   5.011   7.950  0.5980  0.1545 -0.6924
 1023TIP3    H227265   5.322   4.911   7.987  1.2081 -0.0384  0.6186
 1024TIP3   OH227266   3.734   7.196   8.082  0.2096  0.3282  0.7027
 1024TIP3    H127267   3.758   7.158   8.167  2.3584 -0.9457 -0.3680
 1024TIP3    H227268   3.733   7.290   8.098  1.8717  0.2083  1.8974
 1025TIP3   OH227269   3.332   7.576   9.055 -0.4249  0.0522 -0.1158
 1025TIP3    H127270   3.308   7.591   8.963 -1.0483  1.3928  0.2457
 1025TIP3    H227271   3.273   7.507   9.084  1.4728 -2.2781 -1.3917
 1026TIP3   OH227272   2.097   1.634   8.256  0.3460 -0.5041 -0.0869
 1026TIP3    H127273   2.163   1.567   8.241  0.1270 -1.0568  1.2966
 1026TIP3    H227274   2.049   1.604   8.333 -0.5482  0.6325 -0.1748
 1027TIP3   OH227275   6.590   6.889   7.973  0.1432  0.5015 -0.6036
 1027TIP3    H127276   6.601   6.936   8.056  1.6416 -0.6080 -0.1405
 1027TIP3    H227277   6.519   6.828   7.990  1.2027 -0.5261  0.2708
 1028TIP3   OH227278   4.663   1.562   7.597  0.1428  0.4606 -0.0176
 1028TIP3    H127279   4.712   1.482   7.579 -0.7952 -0.3186  0.7761
 1028TIP3    H227280   4.674   1.615   7.518 -0.1046 -0.9148 -1.0131
 1029TIP3   OH227281   5.489   0.563   9.374 -0.9822 -0.3256 -0.5687
 1029TIP3    H127282   5.426   0.634   9.367  0.0108  0.4898 -1.9420
 1029TIP3    H227283   5.561   0.600   9.426 -0.8620 -0.6216 -0.5240
 1030TIP3   OH227284   3.471   4.422   8.736 -0.5650 -0.3680  0.2272
 1030TIP3    H127285   3.561   4.454   8.743 -0.4392 -0.4551 -0.7641
 1030TIP3    H227286   3.429   4.482   8.675 -0.8615 -0.9751 -0.1721
 1031TIP3   OH227287   1.632   2.471   8.238 -0.2566 -0.4445  0.1788
 1031TIP3    H127288   1.712   2.480   8.185  0.4726 -2.4299  0.8707
 1031TIP3    H227289   1.663   2.445   8.324 -1.5141  1.6732  1.3564
 1032TIP3   OH227290   1.635   5.849   8.885 -0.2273 -0.1573  0.2981
 1032TIP3    H127291   1.679   5.890   8.959 -0.2088 -0.6728  0.5764
 1032TIP3    H227292   1.582   5.779   8.923 -0.1051 -0.5232 -0.1888
 1033TIP3   OH227293   1.063   4.941   7.987 -0.3507  0.2651 -0.2217
 1033TIP3    H127294   1.116   4.951   7.908 -1.1924 -0.8020 -0.9565
 1033TIP3    H227295   1.110   4.876   8.039  0.1617  0.9090  0.1294
 1034TIP3   OH227296   5.533   4.106   7.563 -0.1322  0.5649  0.5721
 1034TIP3    H127297   5.542   4.063   7.648 -0.2093  3.1181  1.9811
 1034TIP3    H227298   5.464   4.171   7.577 -1.3967 -0.1081 -2.0022
 1035TIP3   OH227299   0.452   0.664   8.133  0.4459 -0.1993 -0.3946
 1035TIP3    H127300   0.533   0.618   8.154 -0.6012 -2.1947 -0.4632
 1035TIP3    H227301   0.474   0.718   8.057  1.5637 -1.1215 -0.7502
 1036TIP3   OH227302   6.039   2.552   9.504  0.0968  0.1975 -0.8386
 1036TIP3    H127303   6.103   2.503   9.555  0.1594  1.4909  0.4101
 1036TIP3    H227304   6.029   2.503   9.422  1.1010 -1.1448 -0.1834
 1037TIP3   OH227305   4.322   1.099   9.483 -0.1839  0.0705 -0.1225
 1037TIP3    H127306   4.312   1.079   9.390 -1.2461  0.8817 -0.2054
 1037TIP3    H227307   4.307   1.193   9.489  2.1420  0.4468  0.5970
 1038TIP3   OH227308   4.965   4.104   9.483 -0.2535 -0.0717 -0.2104
 1038TIP3    H127309   4.983   4.026   9.431  0.2888  0.6261 -1.1194
 1038TIP3    H227310   5.048   4.123   9.528  0.5745  1.5685 -2.2384
 1039TIP3   OH227311   1.082   1.089   7.065  0.3245  0.1945 -0.3502
 1039TIP3    H127312   1.010   1.103   7.127  0.6016 -0.6644  0.1820
 1039TIP3    H227313   1.054   1.015   7.012 -0.4673  1.6802 -2.1372
 1040TIP3   OH227314   2.264   5.886   7.100 -0.1963 -0.3314  0.6948
 1040TIP3    H127315   2.307   5.971   7.110 -1.2068  0.3222 -0.2538
 1040TIP3    H227316   2.171   5.907   7.097 -0.4372 -1.4219 -0.0160
 1041TIP3   OH227317   2.747   0.578   8.409 -0.2550 -0.5225 -0.1312
 1041TIP3    H127318   2.824   0.550   8.458 -1.2317 -1.8086  0.7450
 1041TIP3    H227319   2.757   0.538   8.323  0.5002  0.1035 -0.3435
 1042TIP3   OH227320   5.221   1.213   7.805 -0.3009  0.0789  0.0572
 1042TIP3    H127321   5.250   1.276   7.871  1.2621  1.3313 -1.7191
 1042TIP3    H227322   5.142   1.251   7.768 -2.0665 -1.3500  2.1059
 1043TIP3   OH227323   3.388   4.170   8.821  0.3176 -0.6771  0.3264
 1043TIP3    H127324   3.394   4.164   8.916 -2.7515  0.2898  0.6641
 1043TIP3    H227325   3.431   4.253   8.799  2.5558 -1.6873  0.5877
 1044TIP3   OH227326   6.970   6.110   8.556 -0.0021  0.5642  0.0503
 1044TIP3    H127327   6.878   6.136   8.557 -0.4816 -0.6533 -2.6578
 1044TIP3    H227328   7.010   6.168   8.491  1.0026  0.6249  0.7102
 1045TIP3   OH227329   7.445   1.785   8.835 -0.3443  0.5601  0.3679
 1045TIP3    H127330   7.522   1.777   8.893  0.0617  1.1760 -0.0755
 1045TIP3    H227331   7.396   1.859   8.871 -0.5875  0.3473  0.4793
 1046TIP3   OH227332   4.748   1.093   7.443 -0.5460 -0.4904 -0.0554
 1046TIP3    H127333   4.654   1.091   7.424 -0.4686 -1.4841 -0.3782
 1046TIP3    H227334   4.791   1.084   7.358 -0.1279  1.2376 -0.0542
 1047TIP3   OH227335   0.027   5.640   7.282 -0.2817  0.4316 -0.3289
 1047TIP3    H127336   0.090   5.579   7.245 -2.4635  0.1927 -4.2178
 1047TIP3    H227337   0.060   5.727   7.257 -0.6351  0.3901 -0.9735
 1048TIP3   OH227338   2.490   2.591   7.481 -0.2320 -0.2841  0.1045
 1048TIP3    H127339   2.414   2.640   7.447  0.0194 -0.6481 -1.0041
 1048TIP3    H227340   2.558   2.605   7.415  0.5091 -0.3918  0.8422
 1049TIP3   OH227341   6.379   4.151   7.733  0.0934  0.1002  0.8004
 1049TIP3    H127342   6.471   4.144   7.707  0.3149 -0.7672  1.7181
 1049TIP3    H227343   6.379   4.212   7.806 -0.1356  0.4837  0.4831
 1050TIP3   OH227344   0.523   0.925   9.543  0.3644 -0.6950 -0.1224
 1050TIP3    H127345   0.429   0.941   9.554  0.5640 -0.2112  1.0916
 1050TIP3    H227346   0.529   0.835   9.513 -0.4511 -1.1296  0.9488
 1051TIP3   OH227347   3.956   1.639   9.282 -0.2142 -0.3298 -0.0046
 1051TIP3    H127348   3.924   1.600   9.201 -3.4666  2.2058 -0.1353
 1051TIP3    H227349   3.975   1.730   9.260 -2.1675  0.7243  2.1356
 1052TIP3   OH227350   3.523   6.735   8.822 -0.3808  0.0595 -0.4135
 1052TIP3    H127351   3.466   6.776   8.758 -0.7884  2.3189  1.2773
 1052TIP3    H227352   3.612   6.754   8.792 -0.4855 -1.2162 -1.6523
 1053TIP3   OH227353   1.725   3.267   7.872  0.2778 -0.1154 -0.1562
 1053TIP3    H127354   1.747   3.294   7.961  2.3981  0.4810 -0.8106
 1053TIP3    H227355   1.695   3.177   7.881  0.2820  0.0002  1.1743
 1054TIP3   OH227356   4.374   1.727   7.408  0.4240 -0.4094  0.5333
 1054TIP3    H127357   4.466   1.715   7.432  0.5827 -1.8171 -0.6076
 1054TIP3    H227358   4.364   1.822   7.397  0.9952  0.0408  3.3150
 1055TIP3   OH227359   2.267   7.124   8.223 -0.4814  0.4830  0.4140
 1055TIP3    H127360   2.224   7.040   8.239  0.1858  0.1698  0.5982
 1055TIP3    H227361   2.262   7.137   8.128 -0.1771  0.0096  0.3318
 1056TIP3   OH227362   4.963   4.730   7.055 -0.3145 -0.6335  0.6058
 1056TIP3    H127363   4.909   4.715   7.133 -1.9423 -0.9439 -0.5180
 1056TIP3    H227364   4.984   4.823   7.059  1.1361 -0.9849  2.2999
 1057TIP3   OH227365   6.458   3.219   8.403  0.2150  0.2792  0.4974
 1057TIP3    H127366   6.487   3.226   8.494  0.2286 -1.6117  0.6836
 1057TIP3    H227367   6.530   3.176   8.358 -1.2916 -2.5141  0.5077
 1058TIP3   OH227368   0.432   5.754   8.647 -0.1430 -0.1794 -0.1483
 1058TIP3    H127369   0.354   5.733   8.698 -0.5392  0.5368 -0.4461
 1058TIP3    H227370   0.446   5.676   8.593 -0.2060 -0.6096  0.4497
 1059TIP3   OH227371   4.101   4.704   7.229  0.0197  0.0327  0.3280
 1059TIP3    H127372   4.096   4.787   7.181  2.0236  0.8156  1.3790
 1059TIP3    H227373   4.176   4.659   7.191  0.1947 -0.3842  1.1570
 1060TIP3   OH227374   2.633   0.274   7.135 -0.4239 -0.3477  0.8036
 1060TIP3    H127375   2.599   0.190   7.104  0.3411 -0.6408  0.7376
 1060TIP3    H227376   2.689   0.305   7.064  0.7319 -0.6568  1.5543
 1061TIP3   OH227377   7.531   6.938   7.937  0.1253  0.6515 -0.0636
 1061TIP3    H127378   7.593   6.870   7.912  0.7564  1.6137 -1.1875
 1061TIP3    H227379   7.446   6.903   7.911  0.0261 -1.0333  2.2307
 1062TIP3   OH227380   2.883   1.088   7.739 -0.1663  0.0292 -0.2652
 1062TIP3    H127381   2.852   1.146   7.808 -1.9395  0.3436 -1.2419
 1062TIP3    H227382   2.851   1.001   7.764 -1.0816  0.1952 -0.8114
 1063TIP3   OH227383   0.723   3.875   7.910  0.1435 -0.2084  0.0257
 1063TIP3    H127384   0.730   3.960   7.955 -1.2939 -0.0405 -0.0279
 1063TIP3    H227385   0.798   3.874   7.850 -0.6990  1.7494 -1.1555
 1064TIP3   OH227386   4.003   1.494   7.048 -0.3887 -0.0639 -0.0043
 1064TIP3    H127387   3.966   1.407   7.061 -0.6719 -0.1514 -1.2336
 1064TIP3    H227388   4.097   1.481   7.051 -0.3634 -0.7953 -2.0826
 1065TIP3   OH227389   4.037   6.915   7.639  0.5157 -0.0509 -0.5586
 1065TIP3    H127390   4.013   6.831   7.600  1.3868 -1.9117  2.5520
 1065TIP3    H227391   4.129   6.906   7.662 -0.0640  0.5771  2.4375
 1066TIP3   OH227392   5.920   2.425   9.288 -0.1852 -1.1704 -0.1020
 1066TIP3    H127393   5.914   2.456   9.198  1.6395 -1.1772 -0.2542
 1066TIP3    H227394   6.009   2.391   9.296 -0.5231 -1.7593  1.5261
 1067TIP3   OH227395   6.446   5.869   9.205  0.3200 -0.0138 -0.0283
 1067TIP3    H127396   6.460   5.956   9.167  0.6363 -0.4490 -0.9338
 1067TIP3    H227397   6.370   5.880   9.262  0.0161  0.7274 -0.5652
 1068TIP3   OH227398   0.133   6.912   7.662  0.3227 -0.1108  0.4313
 1068TIP3    H127399   0.055   6.936   7.612  0.4005 -0.6262  0.0555
 1068TIP3    H227400   0.099   6.879   7.745  0.1436 -0.1927  0.3267
 1069TIP3   OH227401   2.987   4.442   7.508 -0.7262  0.4025  0.1977
 1069TIP3    H127402   3.073   4.483   7.497 -0.9474  0.0935 -5.5695
 1069TIP3    H227403   3.006   4.349   7.521 -0.1157  0.2789 -1.4427
 1070TIP3   OH227404   5.566   1.255   8.548  0.1388 -0.3949  0.0339
 1070TIP3    H127405   5.484   1.220   8.584  0.4718  1.0799  2.4762
 1070TIP3    H227406   5.543   1.342   8.516  0.3935 -0.7026 -1.0031
 1071TIP3   OH227407   6.286   5.118   8.796  0.2665  0.1305  0.2786
 1071TIP3    H127408   6.230   5.176   8.849  0.8638 -0.6433  1.8036
 1071TIP3    H227409   6.351   5.085   8.857  1.6612  0.0307 -1.1990
 1072TIP3   OH227410   1.535   3.825   9.210  0.3729  0.1683  0.2314
 1072TIP3    H127411   1.561   3.804   9.120 -0.4734  0.4310 -0.0877
 1072TIP3    H227412   1.617   3.838   9.257  0.8450 -0.6512 -0.3387
 1073TIP3   OH227413   3.242   5.915   8.878 -0.2323  0.3859 -0.1067
 1073TIP3    H127414   3.181   5.875   8.941  1.4187 -0.8787  0.7621
 1073TIP3    H227415   3.327   5.876   8.899  0.7978  1.6987 -1.6302
 1074TIP3   OH227416   0.631   5.021   6.685 -0.0542  0.3684 -0.3917
 1074TIP3    H127417   0.547   4.979   6.704  0.1083  0.5279  0.7914
 1074TIP3    H227418   0.608   5.112   6.665 -0.0776  0.8827  1.6875
 1075TIP3   OH227419   3.504   6.869   7.806  0.1834  0.0141 -0.2758
 1075TIP3    H127420   3.456   6.932   7.859  0.5437  2.6776 -2.8741
 1075TIP3    H227421   3.595   6.899   7.809  0.3724 -0.3634 -1.5379
 1076TIP3   OH227422   6.844   0.201   6.505  0.0486 -0.5340 -0.3156
 1076TIP3    H127423   6.874   0.143   6.435 -0.4940 -0.8982 -0.2553
 1076TIP3    H227424   6.818   0.141   6.576  0.7724 -0.1626  0.2740
 1077TIP3   OH227425   2.179   4.563   6.954  0.4073  0.0156  0.2685
 1077TIP3    H127426   2.269   4.532   6.940  0.0534 -1.5076  1.1089
 1077TIP3    H227427   2.130   4.529   6.879  0.5336  1.0343 -0.3071
 1078TIP3   OH227428   0.015   4.146   7.079  0.0086  0.0257  0.2641
 1078TIP3    H127429   0.037   4.112   6.992 -3.0445 -1.9534  0.1243
 1078TIP3    H227430  -0.046   4.218   7.062  0.4863  0.5671  0.7744
 1079TIP3   OH227431   1.176   6.045   9.170 -0.2409  0.0014 -0.6264
 1079TIP3    H127432   1.120   6.011   9.100  0.8967  0.2548 -1.6978
 1079TIP3    H227433   1.254   6.075   9.125  0.3782  0.5018  0.7380
 1080TIP3   OH227434   5.407   5.216   7.645  0.3108 -0.0468 -0.0235
 1080TIP3    H127435   5.450   5.271   7.579  0.3760 -0.7286 -0.5662
 1080TIP3    H227436   5.345   5.275   7.688 -0.4063  0.2006 -1.3300
 1081TIP3   OH227437   3.977   3.865   8.010  0.3167  0.4070  0.1402
 1081TIP3    H127438   4.062   3.909   8.000  0.1390  0.5644 -0.7682
 1081TIP3    H227439   3.961   3.865   8.104  1.1737  0.6739  0.2922
 1082TIP3   OH227440   7.160   2.047   9.734 -0.2876  0.0028  0.2860
 1082TIP3    H127441   7.137   2.065   9.825 -0.6140 -0.3776  0.2809
 1082TIP3    H227442   7.111   1.968   9.712  0.0101 -0.0675 -0.1345
 1083TIP3   OH227443   5.411   2.842   8.002  0.3082 -0.3598 -0.5600
 1083TIP3    H127444   5.380   2.794   7.925 -0.3401  0.0561 -0.5611
 1083TIP3    H227445   5.366   2.801   8.076 -1.4253  1.1939 -0.7002
 1084TIP3   OH227446   1.751   4.820   9.300 -0.3445 -0.4169 -0.4794
 1084TIP3    H127447   1.793   4.902   9.324 -0.8395  0.0870 -1.3226
 1084TIP3    H227448   1.812   4.753   9.331 -0.9289  0.1595  2.1642
 1085TIP3   OH227449   4.551   1.379   8.980  0.2076  0.3212 -0.6158
 1085TIP3    H127450   4.617   1.389   8.911 -1.0760  1.0435 -1.7905
 1085TIP3    H227451   4.564   1.454   9.037  1.7772 -0.6744  0.4509
 1086TIP3   OH227452   6.762   3.872   9.205  0.5312  0.5193  0.2869
 1086TIP3    H127453   6.781   3.778   9.195  0.6828  0.5607  0.1812
 1086TIP3    H227454   6.732   3.900   9.119  0.5057  0.5727  0.3136
 1087TIP3   OH227455   0.768   1.055   9.463 -0.4103 -0.1442 -0.3646
 1087TIP3    H127456   0.684   1.026   9.497 -0.0207  1.5429  2.3605
 1087TIP3    H227457   0.748   1.135   9.414 -0.3611  0.9143  1.2534
 1088TIP3   OH227458   2.732   7.661   7.477 -0.4552 -0.1923  0.6108
 1088TIP3    H127459   2.782   7.717   7.536 -0.3489 -1.4902  1.8123
 1088TIP3    H227460   2.707   7.718   7.404  1.2432  0.9362  0.8505
 1089TIP3   OH227461   0.419   6.265   7.948 -0.3001 -0.5708  0.0100
 1089TIP3    H127462   0.350   6.311   7.996 -0.1253  0.0000 -0.2847
 1089TIP3    H227463   0.400   6.283   7.856  1.0783  0.8123 -0.0372
 1090TIP3   OH227464   6.245   0.475   8.742 -0.2639  0.2951  0.5605
 1090TIP3    H127465   6.206   0.462   8.655 -0.8885  1.4837  0.6430
 1090TIP3    H227466   6.210   0.559   8.772  1.4429  0.8458  1.1478
 1091TIP3   OH227467   1.939   3.964   9.019 -0.1011 -0.0476 -0.5785
 1091TIP3    H127468   1.885   3.996   8.947 -1.5326 -0.4493  0.2650
 1091TIP3    H227469   1.910   3.874   9.033  0.5322 -0.1542  0.1334
 1092TIP3   OH227470   1.037   6.129   8.119 -0.9997 -0.9065  0.1073
 1092TIP3    H127471   0.964   6.092   8.168  0.2821 -2.4732  0.9192
 1092TIP3    H227472   1.006   6.214   8.090 -2.9253 -1.2885  0.9344
 1093TIP3   OH227473   2.639   3.610   7.602  0.0677 -0.0610 -0.1289
 1093TIP3    H127474   2.676   3.543   7.660 -0.7188 -0.9371 -0.6273
 1093TIP3    H227475   2.621   3.684   7.660  1.0752 -0.2110  0.4053
 1094TIP3   OH227476   4.276   3.063   9.708 -0.9349 -0.2679  0.0950
 1094TIP3    H127477   4.297   2.978   9.746  1.0010  0.5361  0.9204
 1094TIP3    H227478   4.314   3.061   9.620  0.4960  0.2579  0.6696
 1095TIP3   OH227479   7.616   5.236   8.881  0.3132 -0.2658 -0.0087
 1095TIP3    H127480   7.667   5.287   8.943 -2.0710  0.8257  1.1882
 1095TIP3    H227481   7.624   5.146   8.912  0.5388  0.0473  0.8849
 1096TIP3   OH227482   6.234   6.337   9.347 -0.7455 -0.5733 -0.0187
 1096TIP3    H127483   6.183   6.318   9.268  0.0905 -1.9807 -0.2582
 1096TIP3    H227484   6.186   6.294   9.418 -0.5358 -0.8798 -0.0592
 1097TIP3   OH227485   6.999   2.214   8.884  0.6955 -0.0598  0.0305
 1097TIP3    H127486   6.992   2.307   8.867 -1.5143 -0.3044 -0.7162
 1097TIP3    H227487   6.943   2.199   8.960  1.8323 -0.6564  0.7832
 1098TIP3   OH227488   4.254   5.656   8.621 -0.0170 -0.0582  0.5130
 1098TIP3    H127489   4.168   5.641   8.661 -0.2764 -0.9486 -0.3538
 1098TIP3    H227490   4.269   5.579   8.567  0.9612  0.4861 -0.0108
 1099TIP3   OH227491   5.811   2.272   8.224  0.0026 -0.1474  0.0394
 1099TIP3    H127492   5.775   2.233   8.303  1.3316 -1.2275  0.1472
 1099TIP3    H227493   5.898   2.303   8.250  1.0395 -1.7777 -1.2879
 1100TIP3   OH227494   3.320   7.617   8.766  0.6541 -0.1109 -0.1685
 1100TIP3    H127495   3.293   7.699   8.725 -2.3432 -1.4393 -1.1193
 1100TIP3    H227496   3.384   7.580   8.706  1.3287  1.0621 -0.2011
 1101TIP3   OH227497   1.159   6.236   9.370 -0.1441 -0.7230  0.5779
 1101TIP3    H127498   1.237   6.205   9.416  0.3371 -0.3146  0.0585
 1101TIP3    H227499   1.157   6.184   9.289 -0.0380 -0.2768  0.2848
 1102TIP3   OH227500   4.574   3.362   9.125 -0.1633  0.0340  0.3081
 1102TIP3    H127501   4.666   3.387   9.129 -0.2011  0.5138 -1.1554
 1102TIP3    H227502   4.562   3.330   9.035 -1.3146 -0.4855  0.6241
 1103TIP3   OH227503   5.675   0.081   8.348  0.1334 -0.1746  0.8552
 1103TIP3    H127504   5.747   0.021   8.329 -0.7188 -0.8618 -0.2836
 1103TIP3    H227505   5.718   0.164   8.367  1.2330 -0.5716  0.1989
 1104TIP3   OH227506   2.404   3.072   8.296  0.5006 -0.3981 -0.1281
 1104TIP3    H127507   2.428   3.006   8.361  3.0766  0.0421 -0.4930
 1104TIP3    H227508   2.439   3.154   8.331 -0.0074  0.2317 -1.0441
 1105TIP3   OH227509   6.629   5.829   6.725  0.3671 -0.0047 -0.4825
 1105TIP3    H127510   6.708   5.817   6.778 -0.2078  0.8953  0.6251
 1105TIP3    H227511   6.571   5.757   6.751  0.2664  0.1686 -0.2207
 1106TIP3   OH227512   0.093   1.987   8.513 -0.3916 -0.5946 -0.3262
 1106TIP3    H127513   0.001   1.988   8.486 -0.4494  1.7726 -0.2890
 1106TIP3    H227514   0.141   1.963   8.433 -0.8471  1.9296 -1.4598
 1107TIP3   OH227515   4.979   3.043   9.340 -0.2444  0.3245  0.0793
 1107TIP3    H127516   4.995   3.069   9.431 -1.3226  0.5002  0.2283
 1107TIP3    H227517   4.982   2.948   9.341 -1.0908  0.2965  0.4671
 1108TIP3   OH227518   0.123   1.841   9.700 -0.2712 -0.2138 -0.5924
 1108TIP3    H127519   0.114   1.902   9.627  0.0759 -1.6977 -1.9312
 1108TIP3    H227520   0.128   1.755   9.659  0.9392 -1.0284  1.1205
 1109TIP3   OH227521   4.027   0.947   9.470  0.3357  0.2653  0.2892
 1109TIP3    H127522   4.121   0.948   9.490  0.2957  1.1631  0.4503
 1109TIP3    H227523   3.997   0.862   9.502  0.9353  0.3085  0.9903
 1110TIP3   OH227524   4.681   3.114   9.070 -0.4838 -0.2561  0.1759
 1110TIP3    H127525   4.695   3.143   9.160 -1.6650  0.6067  0.0959
 1110TIP3    H227526   4.587   3.122   9.056 -0.5431 -1.8999 -0.6360
 1111TIP3   OH227527   5.951   2.523   8.778 -0.9583 -0.4195 -0.0565
 1111TIP3    H127528   5.881   2.493   8.720 -1.4761  0.2679  0.2095
 1111TIP3    H227529   6.017   2.559   8.719 -1.8970  1.1526 -0.1972
 1112TIP3   OH227530   7.350   1.102   8.844  0.8718 -0.9058  0.6083
 1112TIP3    H127531   7.389   1.015   8.852  0.9898 -0.8687  0.4416
 1112TIP3    H227532   7.260   1.085   8.813  1.2856 -0.9144 -0.6631
 1113TIP3   OH227533   7.197   2.538   6.907 -0.3911  0.1236 -0.7457
 1113TIP3    H127534   7.235   2.610   6.958  0.8611 -1.1094  0.1270
 1113TIP3    H227535   7.102   2.551   6.914 -0.2409  0.4613  1.2379
 1114TIP3   OH227536   3.889   5.421   9.212 -0.1504 -0.1405  0.8930
 1114TIP3    H127537   3.974   5.387   9.184  0.3579 -0.2750  2.5416
 1114TIP3    H227538   3.910   5.491   9.274 -1.2401  0.6148  0.4484
 1115TIP3   OH227539   5.561   3.217   8.332 -1.3540  0.3682 -0.3419
 1115TIP3    H127540   5.478   3.212   8.380 -0.7042  0.9495  0.9023
 1115TIP3    H227541   5.611   3.142   8.363 -0.8801  0.8149 -0.0147
 1116TIP3   OH227542   7.010   6.020   7.217 -0.7186  0.6526  0.5538
 1116TIP3    H127543   6.926   5.980   7.196  1.0073 -2.7656 -0.6791
 1116TIP3    H227544   7.057   6.020   7.134  1.4525 -0.2033  1.7027
 1117TIP3   OH227545   4.126   2.191   7.376  0.1642  0.1312  0.6398
 1117TIP3    H127546   4.055   2.175   7.315  1.2050 -1.3886 -0.2425
 1117TIP3    H227547   4.083   2.226   7.454 -2.0541 -3.6142  1.3894
 1118TIP3   OH227548   3.940   1.703   7.268 -0.7900 -0.3333  0.0636
 1118TIP3    H127549   3.955   1.781   7.215 -0.9938  0.1027  0.6327
 1118TIP3    H227550   3.977   1.632   7.217  0.3022  0.2687 -0.0088
 1119TIP3   OH227551   6.553   3.398   7.978 -0.3849  0.1531 -0.3899
 1119TIP3    H127552   6.555   3.425   8.070  3.2514  2.9771 -1.0553
 1119TIP3    H227553   6.464   3.415   7.950 -1.5956 -0.7429  2.5122
 1120TIP3   OH227554   6.565   3.703   8.590  0.7372 -0.5299  0.0332
 1120TIP3    H127555   6.656   3.714   8.618  0.6308  0.5353  0.0133
 1120TIP3    H227556   6.554   3.765   8.518  0.4647 -1.8912 -1.1372
 1121TIP3   OH227557   5.382   7.047   8.762  0.0616 -0.3174  0.1483
 1121TIP3    H127558   5.310   7.009   8.813 -0.7321  0.9128  0.0210
 1121TIP3    H227559   5.404   7.128   8.810 -0.3595  0.6017 -1.1483
 1122TIP3   OH227560   1.041   1.175   9.447  0.4809  0.3390  0.2690
 1122TIP3    H127561   1.079   1.219   9.522 -0.6137  0.9128  0.5065
 1122TIP3    H227562   1.012   1.090   9.481 -2.1075  1.4650  1.1351
 1123TIP3   OH227563   1.175   4.778   8.230  0.4417  0.6576  0.3393
 1123TIP3    H127564   1.168   4.741   8.319 -1.8565  0.5353  0.1739
 1123TIP3    H227565   1.258   4.744   8.197 -0.1014 -1.9218  1.3248
 1124TIP3   OH227566   0.208   4.917   9.323 -0.1737 -0.1128 -0.0038
 1124TIP3    H127567   0.297   4.886   9.331  0.2413  0.8655 -0.6286
 1124TIP3    H227568   0.215   5.013   9.330 -0.8490  0.1932 -2.4627
 1125TIP3   OH227569   4.860   0.120   8.484 -0.2205 -0.3579  0.3710
 1125TIP3    H127570   4.814   0.198   8.451 -1.2903 -1.5237 -1.0353
 1125TIP3    H227571   4.828   0.049   8.429  1.4947 -1.6446  0.9668
 1126TIP3   OH227572   0.413   1.300   8.186 -1.0446  0.2878  0.1872
 1126TIP3    H127573   0.331   1.334   8.151 -1.0351 -0.9471 -1.1255
 1126TIP3    H227574   0.481   1.339   8.131 -1.0131 -1.4969 -1.1148
 1127TIP3   OH227575   1.941   3.653   7.978 -0.0794 -0.0281 -0.0559
 1127TIP3    H127576   1.884   3.656   8.055 -0.6309 -2.7455 -0.2563
 1127TIP3    H227577   1.907   3.722   7.920 -1.2692  0.3686  1.0727
 1128TIP3   OH227578   5.499   2.109   9.643 -0.4229 -0.3321  0.9270
 1128TIP3    H127579   5.459   2.107   9.731  1.4393  1.5816  1.9007
 1128TIP3    H227580   5.521   2.201   9.629  0.8943 -0.8655 -0.8236
 1129TIP3   OH227581   3.143   5.048   8.079 -0.2901  0.1888  0.5225
 1129TIP3    H127582   3.084   5.064   8.006  0.1799  2.0440  0.4991
 1129TIP3    H227583   3.098   5.084   8.155  0.7737  1.6578  0.4974
 1130TIP3   OH227584   7.169   7.436   9.029 -0.2706 -0.9363  0.0583
 1130TIP3    H127585   7.088   7.444   8.980 -1.3471 -0.5555  1.8255
 1130TIP3    H227586   7.221   7.372   8.980  0.5076  2.2725 -3.8539
 1131TIP3   OH227587   0.666   3.186   8.105  0.3535 -0.2494  0.0544
 1131TIP3    H127588   0.736   3.198   8.040 -1.0467 -1.4374 -1.7989
 1131TIP3    H227589   0.585   3.199   8.055 -0.8152 -2.3268  1.2635
 1132TIP3   OH227590   3.580   0.891   9.365  0.2848 -0.0623  0.3686
 1132TIP3    H127591   3.485   0.882   9.354  0.0370  2.5042 -0.2579
 1132TIP3    H227592   3.599   0.843   9.446 -0.9891 -3.1945 -1.0111
 1133TIP3   OH227593   4.889   0.888   9.441 -0.0100  0.4793  0.1664
 1133TIP3    H127594   4.838   0.808   9.455 -0.0602  0.5025  0.1192
 1133TIP3    H227595   4.851   0.951   9.502  0.4803  0.2718  0.6977
 1134TIP3   OH227596   4.161   4.103   8.027  0.0484 -0.2844 -0.2821
 1134TIP3    H127597   4.198   4.015   8.019  0.5529  0.0559 -2.2902
 1134TIP3    H227598   4.227   4.153   8.074  0.1906 -0.7305 -0.0029
 1135TIP3   OH227599   2.082   4.357   9.534  0.2249  0.2081 -0.0499
 1135TIP3    H127600   2.170   4.384   9.509 -0.3797  0.2912 -2.2685
 1135TIP3    H227601   2.095   4.304   9.613  2.1966  0.6145 -0.0525
 1136TIP3   OH227602   6.549   4.829   7.487  0.2438 -0.2263  0.0771
 1136TIP3    H127603   6.552   4.734   7.471 -1.7870 -0.5746  1.4510
 1136TIP3    H227604   6.588   4.840   7.574  0.9628  0.2739 -0.3028
 1137TIP3   OH227605   3.583   6.369   7.790 -0.0219 -0.4205  0.3243
 1137TIP3    H127606   3.642   6.345   7.718 -0.8879 -1.7264  0.0129
 1137TIP3    H227607   3.641   6.392   7.862  0.8650  0.7889 -0.7364
 1138TIP3   OH227608   4.771   3.560   7.896  0.5252 -0.1581 -0.4905
 1138TIP3    H127609   4.725   3.508   7.830 -0.9678  1.2361 -0.6118
 1138TIP3    H227610   4.701   3.594   7.952  1.7444 -1.3518  1.8987
 1139TIP3   OH227611   2.105   0.782   7.577  0.1482 -0.2222 -0.1738
 1139TIP3    H127612   2.128   0.870   7.605  0.7289  0.1322 -1.6380
 1139TIP3    H227613   2.175   0.758   7.515 -0.0141 -1.6956  0.1726
 1140TIP3   OH227614   3.793   5.177   8.087 -0.0942  0.1542 -0.4512
 1140TIP3    H127615   3.762   5.087   8.082 -0.3332  0.2403 -0.5372
 1140TIP3    H227616   3.887   5.169   8.102 -0.1668 -0.1095 -0.1255
 1141TIP3   OH227617   0.148   6.541   7.546 -0.2788 -0.2352 -0.3288
 1141TIP3    H127618   0.152   6.455   7.505  1.1696 -0.5617  0.4258
 1141TIP3    H227619   0.067   6.540   7.597  0.2295 -1.5615  0.4987
 1142TIP3   OH227620   7.189   1.528   7.708  0.3421 -0.2744  0.0806
 1142TIP3    H127621   7.216   1.605   7.759  2.0893 -1.6865  1.4174
 1142TIP3    H227622   7.179   1.561   7.619  2.4399  1.2653  0.3374
 1143TIP3   OH227623   6.668   7.147   7.877 -0.2801 -0.3208  0.0258
 1143TIP3    H127624   6.761   7.131   7.858 -0.5274  0.3241 -1.9440
 1143TIP3    H227625   6.648   7.086   7.948  1.5210 -0.8197  0.1752
 1144TIP3   OH227626   0.469   1.341   9.121  0.3836 -0.1197  0.4120
 1144TIP3    H127627   0.513   1.415   9.079 -2.1851  1.6518  0.6001
 1144TIP3    H227628   0.443   1.285   9.048 -0.3301  0.7759 -0.0485
 1145TIP3   OH227629   0.575   1.581   9.320 -0.3084  0.4040  0.0189
 1145TIP3    H127630   0.648   1.579   9.258  0.0794 -0.8695  0.4903
 1145TIP3    H227631   0.594   1.655   9.377  0.2784  0.4665 -0.2495
 1146TIP3   OH227632   0.183   1.513   8.962  0.7214  0.2222 -0.2222
 1146TIP3    H127633   0.220   1.597   8.988 -0.1951  0.0958  1.6496
 1146TIP3    H227634   0.127   1.533   8.888 -1.7007  1.8336  1.8781
 1147TIP3   OH227635   7.107   6.247   7.582 -0.5062 -0.2274 -0.2965
 1147TIP3    H127636   7.067   6.204   7.658  0.0466 -0.7549 -0.2951
 1147TIP3    H227637   7.147   6.326   7.618 -0.9276 -0.0667 -0.1759
 1148TIP3   OH227638   6.403   4.706   9.462 -0.4383  0.4595  0.5326
 1148TIP3    H127639   6.496   4.715   9.481 -0.3935  0.8952  0.1110
 1148TIP3    H227640   6.399   4.685   9.369 -0.6788 -1.3671  0.9025
 1149TIP3   OH227641   1.018   1.381   7.310  0.5326  0.4748 -0.0958
 1149TIP3    H127642   0.985   1.449   7.368  2.1326  1.8259 -0.6981
 1149TIP3    H227643   0.948   1.315   7.309 -0.1090  1.0168  2.2751
 1150TIP3   OH227644   4.826   2.862   9.040  0.0609  0.0579 -0.0924
 1150TIP3    H127645   4.817   2.932   9.104 -0.9349  0.6529 -0.8624
 1150TIP3    H227646   4.742   2.859   8.995  0.7664 -0.2799 -1.4426
 1151TIP3   OH227647   3.549   7.191   9.169  0.2780  0.0500  0.5528
 1151TIP3    H127648   3.552   7.115   9.112  2.9243 -0.3765  1.1117
 1151TIP3    H227649   3.461   7.190   9.207 -0.2473 -1.8239 -0.6106
 1152TIP3   OH227650   5.546   6.828   8.877  0.0266 -0.1634 -0.3400
 1152TIP3    H127651   5.523   6.850   8.787  0.5624  0.3637 -0.3586
 1152TIP3    H227652   5.605   6.899   8.904 -0.5118 -0.0528  0.5849
 1153TIP3   OH227653   4.602   0.123   7.791 -0.2569 -0.1164  0.5531
 1153TIP3    H127654   4.626   0.208   7.827  0.0774  0.0377 -0.0272
 1153TIP3    H227655   4.685   0.076   7.780 -0.1430  0.4571 -1.5502
 1154TIP3   OH227656   0.053   1.019   9.215 -0.2135  0.0014  0.0456
 1154TIP3    H127657  -0.037   1.020   9.182 -0.2434 -1.1447  0.0340
 1154TIP3    H227658   0.083   1.110   9.208 -1.7319  0.6166  1.0822
 1155TIP3   OH227659   4.215   0.422   6.596 -0.3848  0.2967  0.2050
 1155TIP3    H127660   4.296   0.467   6.618  0.9361 -0.4137 -2.8304
 1155TIP3    H227661   4.219   0.340   6.645  1.3927 -0.3044 -0.8635
 1156TIP3   OH227662   0.515   6.721   7.940 -0.0582  0.5230 -0.9971
 1156TIP3    H127663   0.421   6.713   7.954 -0.1623  2.0553 -0.5623
 1156TIP3    H227664   0.554   6.657   7.999 -0.8101  0.5171 -0.4958
 1157TIP3   OH227665   1.301   1.610   7.879  0.2150  0.5441 -0.1494
 1157TIP3    H127666   1.282   1.520   7.854 -2.6111  1.3078 -1.2162
 1157TIP3    H227667   1.312   1.657   7.796  0.5070  1.3921  0.3507
 1158TIP3   OH227668   6.247   2.215   8.512  0.1894 -0.0477  0.1587
 1158TIP3    H127669   6.253   2.119   8.510  0.2518 -0.0624  0.7289
 1158TIP3    H227670   6.168   2.235   8.463  1.9073 -0.1754 -2.9351
 1159TIP3   OH227671   7.513   0.502   9.394  0.5312 -0.1129  0.4099
 1159TIP3    H127672   7.451   0.534   9.460  0.8347 -1.6851  1.5062
 1159TIP3    H227673   7.516   0.571   9.328 -1.2215  0.6612  1.0998
 1160TIP3   OH227674   1.433   4.717   8.118 -0.1036  0.2648  0.5270
 1160TIP3    H127675   1.485   4.663   8.058  0.9439  2.3469 -0.5600
 1160TIP3    H227676   1.485   4.797   8.128 -3.1128  2.5831 -0.7755
 1161TIP3   OH227677   5.547   1.575   8.110 -0.4864 -0.3633 -0.1045
 1161TIP3    H127678   5.632   1.539   8.083 -0.8527 -0.9622 -0.4694
 1161TIP3    H227679   5.566   1.619   8.193  0.5787  1.2069 -1.1448
 1162TIP3   OH227680   4.715   2.102   8.280 -0.0086 -0.1199 -0.6839
 1162TIP3    H127681   4.644   2.160   8.252  0.3948  0.0027 -1.5057
 1162TIP3    H227682   4.679   2.014   8.270 -0.6148 -0.0242  0.5435
 1163TIP3   OH227683   4.112   3.046   9.025 -0.2978  0.1755  0.1242
 1163TIP3    H127684   4.107   3.036   9.120 -0.1127 -0.2992  0.0897
 1163TIP3    H227685   4.071   3.131   9.007  3.1486  2.2189  1.0022
 1164TIP3   OH227686   7.038   5.576   8.996 -0.0431 -0.3620 -0.2826
 1164TIP3    H127687   7.070   5.560   9.085  1.3310  0.2101 -0.6530
 1164TIP3    H227688   7.050   5.493   8.951 -0.0215 -0.4358 -0.1424
 1165TIP3   OH227689   6.883   6.933   7.852  0.4676 -0.6608  0.3366
 1165TIP3    H127690   6.841   6.935   7.767  1.0769 -0.9038  0.0217
 1165TIP3    H227691   6.827   6.877   7.906  0.0785 -0.4990  0.0954
 1166TIP3   OH227692   5.217   0.241   7.591  0.1452 -0.6109 -0.1457
 1166TIP3    H127693   5.283   0.184   7.631  1.2448 -0.3681 -1.5177
 1166TIP3    H227694   5.258   0.327   7.588 -0.4903 -0.3100 -0.4290
 1167TIP3   OH227695   0.540   5.842   6.766  0.1989  0.7727 -0.3760
 1167TIP3    H127696   0.627   5.803   6.758 -0.7073 -1.2215 -1.1578
 1167TIP3    H227697   0.502   5.834   6.678 -1.2703  0.3628  0.2756
 1168TIP3   OH227698   2.412   5.530   7.616 -0.0572 -0.3595  0.1767
 1168TIP3    H127699   2.469   5.597   7.654  0.5745 -0.8470  0.1007
 1168TIP3    H227700   2.397   5.468   7.687 -0.0045 -0.5428  0.0287
 1169TIP3   OH227701   6.879   3.714   9.605  0.2303 -0.1022  0.1528
 1169TIP3    H127702   6.887   3.714   9.700  0.9980 -0.3325  0.1009
 1169TIP3    H227703   6.818   3.785   9.585  0.9361  0.6936  0.7520
 1170TIP3   OH227704   7.532   2.822   7.374 -0.1684  0.1306  0.0527
 1170TIP3    H127705   7.515   2.733   7.343 -0.4507 -0.2163  1.1878
 1170TIP3    H227706   7.600   2.813   7.440  0.4297  0.8730 -0.4314
 1171TIP3   OH227707   6.130   3.816   8.535  0.3852  0.2698 -0.1806
 1171TIP3    H127708   6.116   3.896   8.586 -0.3156 -0.0944  0.2096
 1171TIP3    H227709   6.045   3.799   8.494  0.9446  0.5807 -1.5313
 1172TIP3   OH227710   6.681   1.324   7.651 -0.0617  0.2426  0.3607
 1172TIP3    H127711   6.757   1.305   7.596 -0.0070  0.5808  0.3146
 1172TIP3    H227712   6.638   1.398   7.608 -0.8145 -0.3876  0.0030
 1173TIP3   OH227713   5.571   1.456   7.706 -0.0030  0.1831  0.2587
 1173TIP3    H127714   5.517   1.440   7.784 -2.4242  0.2313 -1.3201
 1173TIP3    H227715   5.566   1.375   7.656  1.8237  0.0359  0.2507
 1174TIP3   OH227716   6.958   7.593   8.360  0.0220  0.8484 -0.0294
 1174TIP3    H127717   7.019   7.525   8.333 -1.8732 -0.2940 -1.7757
 1174TIP3    H227718   7.013   7.663   8.396  2.3722  0.1718 -2.0608
 1175TIP3   OH227719   6.443   5.404   8.985 -0.3274  0.1132 -0.6539
 1175TIP3    H127720   6.443   5.500   8.979 -0.1614  0.2166  0.7074
 1175TIP3    H227721   6.504   5.385   9.056  1.0186 -1.1059 -2.0500
 1176TIP3   OH227722   7.611   6.573   8.725  0.0308  0.1657  0.4127
 1176TIP3    H127723   7.619   6.603   8.815 -0.7071  0.5374  0.3648
 1176TIP3    H227724   7.670   6.630   8.675  0.1735  0.1918  0.6113
 1177TIP3   OH227725   0.575   1.879   7.195  0.9071 -0.2895  0.1327
 1177TIP3    H127726   0.633   1.830   7.253  0.5053  0.0874  0.8766
 1177TIP3    H227727   0.633   1.922   7.133  1.2395 -2.0902 -0.8638
 1178TIP3   OH227728   3.363   5.067   9.316 -0.4328 -0.3129 -0.0412
 1178TIP3    H127729   3.419   4.996   9.284  0.5057  0.3201  0.1584
 1178TIP3    H227730   3.403   5.092   9.399 -0.2836  0.9612 -0.4806
 1179TIP3   OH227731   4.131   7.437   8.213 -0.1390 -0.1481  0.4703
 1179TIP3    H127732   4.195   7.443   8.142 -0.1989  2.6985  0.5737
 1179TIP3    H227733   4.046   7.445   8.170 -0.3046 -0.7443  0.6653
 1180TIP3   OH227734   0.888   5.134   8.107  0.5373 -0.3511  0.1847
 1180TIP3    H127735   0.851   5.193   8.041 -0.7442  0.4560  1.5654
 1180TIP3    H227736   0.924   5.062   8.056 -0.4600  0.2136 -1.4114
 1181TIP3   OH227737   2.969   2.263   8.459  0.0081 -0.3700 -0.2642
 1181TIP3    H127738   3.061   2.288   8.471 -0.6261  2.1444 -0.0547
 1181TIP3    H227739   2.966   2.226   8.371  1.2492 -0.7970 -0.1597
 1182TIP3   OH227740   1.966   4.277   6.973  0.0661 -0.1198 -0.2667
 1182TIP3    H127741   2.000   4.366   6.959  1.9406 -0.7676 -0.1854
 1182TIP3    H227742   2.011   4.225   6.907 -2.0671 -0.8174 -1.2474
 1183TIP3   OH227743   1.268   5.190   9.261  0.0648  0.0216 -0.1562
 1183TIP3    H127744   1.268   5.095   9.252 -1.5433 -0.0299  0.1423
 1183TIP3    H227745   1.276   5.222   9.171  1.1680 -0.3824 -0.2086
 1184TIP3   OH227746   1.958   5.136   6.499 -0.3342  0.4481  0.0569
 1184TIP3    H127747   2.001   5.213   6.538 -0.3978  0.1190  0.7972
 1184TIP3    H227748   1.918   5.169   6.419 -1.3936  1.4715  0.9742
 1185TIP3   OH227749   2.790   2.385   8.949  0.0750  0.4228 -0.2257
 1185TIP3    H127750   2.723   2.318   8.965  2.9159 -2.1252  2.4289
 1185TIP3    H227751   2.824   2.365   8.862  0.7676 -1.6450  0.4571
 1186TIP3   OH227752   0.251   7.596   8.327  0.3683 -0.1945 -0.2319
 1186TIP3    H127753   0.309   7.669   8.350 -0.7416  0.5337  0.3204
 1186TIP3    H227754   0.225   7.614   8.236 -0.0155  0.1760 -0.0501
 1187TIP3   OH227755   7.457   1.400   8.399 -0.4786  0.1078  0.1087
 1187TIP3    H127756   7.436   1.489   8.428  0.0710  0.5004 -0.6653
 1187TIP3    H227757   7.374   1.365   8.368 -0.7029  0.3353  0.4384
 1188TIP3   OH227758   0.940   1.498   6.526  0.3028  0.4428 -0.1744
 1188TIP3    H127759   0.964   1.472   6.437 -1.1416 -0.6843 -0.2757
 1188TIP3    H227760   1.006   1.563   6.551  1.6552 -0.3790 -1.4598
 1189TIP3   OH227761   1.359   2.344   7.809 -0.2622 -0.2610 -0.5282
 1189TIP3    H127762   1.345   2.419   7.750  0.5894 -0.8576 -1.5237
 1189TIP3    H227763   1.312   2.272   7.767  0.4236 -0.7160 -0.5186
 1190TIP3   OH227764   4.987   3.336   7.165  0.3939  0.6647  0.0678
 1190TIP3    H127765   4.939   3.340   7.082  1.0579 -0.1695 -0.3652
 1190TIP3    H227766   4.978   3.245   7.193  0.9185  0.7354  0.4683
 1191TIP3   OH227767   4.111   4.448   9.223 -0.2948  0.4102  0.3454
 1191TIP3    H127768   4.065   4.531   9.238  1.4835  1.5029  0.0138
 1191TIP3    H227769   4.141   4.453   9.133  1.8617  0.4930  1.0089
 1192TIP3   OH227770   2.461   2.376   8.276  0.4982 -0.6518  0.1440
 1192TIP3    H127771   2.438   2.284   8.261  0.5075 -1.0026  2.0622
 1192TIP3    H227772   2.487   2.379   8.368 -0.0356  1.3899  0.2619
 1193TIP3   OH227773   0.293   6.652   7.153  0.2286 -0.0016  0.0917
 1193TIP3    H127774   0.366   6.597   7.181 -0.9834 -2.5339 -1.3661
 1193TIP3    H227775   0.253   6.684   7.234  1.3843 -0.7231  0.9674
 1194TIP3   OH227776   0.939   4.733   7.849 -0.1646  0.0122  0.2434
 1194TIP3    H127777   0.939   4.823   7.880 -0.6008 -0.3858  1.4318
 1194TIP3    H227778   0.847   4.709   7.844 -0.2809  0.6887 -3.3595
 1195TIP3   OH227779   1.155   4.972   7.234  0.6720 -0.1866 -0.0664
 1195TIP3    H127780   1.218   4.993   7.166  1.3681 -1.4218  0.1484
 1195TIP3    H227781   1.209   4.944   7.308 -0.0892  0.3290  0.7003
 1196TIP3   OH227782   2.582   3.285   8.714  1.2035  0.0449 -0.4429
 1196TIP3    H127783   2.503   3.306   8.664 -0.1080 -0.1004  1.4624
 1196TIP3    H227784   2.571   3.331   8.796  1.5508 -2.4656  1.1301
 1197TIP3   OH227785   2.880   3.918   8.887  0.4084  0.5408  0.8345
 1197TIP3    H127786   2.854   3.998   8.843 -1.4708  1.0133  2.6513
 1197TIP3    H227787   2.829   3.849   8.845 -0.4348  0.8015  1.4158
 1198TIP3   OH227788   4.799   1.892   9.283 -0.3646  0.1692 -0.2625
 1198TIP3    H127789   4.707   1.868   9.293 -0.2413 -0.9045 -1.3897
 1198TIP3    H227790   4.836   1.823   9.227  1.3960 -0.0591  1.0827
 1199TIP3   OH227791   5.331   3.166   8.609 -0.0615  0.3635  0.0796
 1199TIP3    H127792   5.245   3.178   8.650 -0.4379  1.6767 -1.0096
 1199TIP3    H227793   5.312   3.120   8.527  0.1579  1.3979 -0.5635
 1200TIP3   OH227794   0.234   1.956   8.251 -0.2183  1.0773 -0.3831
 1200TIP3    H127795   0.295   1.900   8.298 -1.8997  1.1081  2.0389
 1200TIP3    H227796   0.286   2.031   8.222  1.8421 -1.0553 -2.7243
 1201TIP3   OH227797   2.345   5.169   6.884  0.3803  0.0497 -0.3846
 1201TIP3    H127798   2.349   5.245   6.942  3.1243 -0.6572  0.5093
 1201TIP3    H227799   2.295   5.199   6.808  1.7906  2.9347 -0.3094
 1202TIP3   OH227800   6.603   1.235   8.936  0.2391  0.1536 -0.2106
 1202TIP3    H127801   6.560   1.281   8.864 -0.4329  1.5294  1.0156
 1202TIP3    H227802   6.608   1.300   9.007  3.3761 -0.2835  0.0893
 1203TIP3   OH227803   6.637   4.164   6.476  0.4123  0.1137 -0.2060
 1203TIP3    H127804   6.550   4.171   6.514  0.6253  1.2608  0.0876
 1203TIP3    H227805   6.643   4.072   6.448 -1.3650  0.3212 -1.4194
 1204TIP3   OH227806   2.199   5.521   6.743  0.1184  0.3671  0.3583
 1204TIP3    H127807   2.173   5.540   6.833  1.8153  1.2406  0.6936
 1204TIP3    H227808   2.257   5.593   6.719  0.3113 -0.2601 -1.1761
 1205TIP3   OH227809   1.584   0.878   7.495  0.1959 -0.3822 -0.6798
 1205TIP3    H127810   1.581   0.836   7.408 -1.9220 -2.0644  0.1132
 1205TIP3    H227811   1.542   0.963   7.482  0.4552 -0.3554 -1.4183
 1206TIP3   OH227812   2.939   5.262   8.598 -0.3429 -0.2807 -0.0908
 1206TIP3    H127813   2.849   5.245   8.571 -0.1844 -0.7900 -0.3119
 1206TIP3    H227814   2.930   5.301   8.685 -0.7780 -0.3781 -0.0863
 1207TIP3   OH227815   5.128   5.257   8.409 -0.0700  0.0007  0.4174
 1207TIP3    H127816   5.143   5.199   8.484 -2.2010 -3.0762 -1.3250
 1207TIP3    H227817   5.042   5.296   8.425 -0.1629 -0.0132 -0.0416
 1208TIP3   OH227818   0.507   7.366   8.262 -0.5221  0.0660 -0.0173
 1208TIP3    H127819   0.507   7.293   8.324 -1.3899  1.4342  1.7124
 1208TIP3    H227820   0.588   7.355   8.212 -1.3249 -2.8535 -0.8608
 1209TIP3   OH227821   0.350   7.533   9.438  0.3579 -0.5125 -0.1406
 1209TIP3    H127822   0.281   7.597   9.419  0.4211 -0.8258 -1.4804
 1209TIP3    H227823   0.315   7.449   9.409  1.3691 -0.6498 -1.0235
 1210TIP3   OH227824   0.410   0.652   8.973  0.0974 -0.5804 -0.8814
 1210TIP3    H127825   0.493   0.660   8.926  0.3055  1.3604 -0.2605
 1210TIP3    H227826   0.363   0.733   8.952  0.0648  0.2246  1.9562
 1211TIP3   OH227827   5.381   3.621   8.118 -0.2154  1.1040  0.1984
 1211TIP3    H127828   5.340   3.707   8.126 -1.7296  0.5771 -1.3680
 1211TIP3    H227829   5.307   3.560   8.116  0.7533 -0.0789 -0.4664
 1212TIP3   OH227830   6.483   2.920   6.797 -0.4200  0.4757  0.0566
 1212TIP3    H127831   6.452   2.867   6.870 -1.1547 -0.2051 -0.7167
 1212TIP3    H227832   6.487   2.858   6.723 -0.0562  1.2249 -0.5677
 1213TIP3   OH227833   5.979   7.387   8.233 -0.3769 -0.6781 -0.5255
 1213TIP3    H127834   5.987   7.363   8.141 -2.4132 -2.3910 -0.3276
 1213TIP3    H227835   5.985   7.303   8.280 -1.7238 -0.1243  0.7051
 1214TIP3   OH227836   2.647   1.715   8.725 -0.2002 -0.1239 -0.2277
 1214TIP3    H127837   2.667   1.625   8.750 -1.7770 -0.4646 -0.0688
 1214TIP3    H227838   2.682   1.725   8.637  0.7954 -0.5826  0.1016
 1215TIP3   OH227839   7.596   3.312   7.246 -0.0680 -0.4682  0.3094
 1215TIP3    H127840   7.517   3.311   7.192  0.9442 -0.6671 -1.2414
 1215TIP3    H227841   7.564   3.328   7.335 -1.5985  2.8056 -0.6754
 1216TIP3   OH227842   0.262   0.431   7.320 -0.3938  0.4279  0.0634
 1216TIP3    H127843   0.219   0.381   7.251 -1.3201  1.2968 -0.0161
 1216TIP3    H227844   0.253   0.522   7.293  0.2716  0.7135  0.7567
 1217TIP3   OH227845   0.963   0.851   7.618  0.5933 -0.0717 -0.2870
 1217TIP3    H127846   0.938   0.839   7.526 -1.2035 -1.1335  0.2913
 1217TIP3    H227847   1.015   0.932   7.618  0.5168  0.0291 -2.2072
 1218TIP3   OH227848   1.520   4.072   9.695 -0.3721 -0.3212 -0.2772
 1218TIP3    H127849   1.589   4.117   9.646 -1.2365 -0.0301 -1.2529
 1218TIP3    H227850   1.444   4.129   9.687 -0.3394  0.1626  2.1280
 1219TIP3   OH227851   0.181   5.617   6.986 -0.5520  0.1709 -0.2043
 1219TIP3    H127852   0.147   5.529   6.972 -1.2484  0.3256  0.4698
 1219TIP3    H227853   0.269   5.604   7.022 -0.4404 -0.2375 -0.6166
 1220TIP3   OH227854   3.772   1.167   8.325  0.3963 -0.4923  0.2669
 1220TIP3    H127855   3.679   1.189   8.323 -0.4138 -3.4965 -0.0359
 1220TIP3    H227856   3.797   1.178   8.416  0.4952  2.7979 -0.0700
 1221TIP3   OH227857   4.606   1.840   8.319  0.4414 -0.5025  0.3205
 1221TIP3    H127858   4.685   1.786   8.314  0.7394 -0.3586  2.5657
 1221TIP3    H227859   4.593   1.857   8.412 -0.9162  1.4536 -0.1360
 1222TIP3   OH227860   4.538   6.104   7.295  0.0860  0.5712 -0.1147
 1222TIP3    H127861   4.527   6.014   7.326  0.1392  1.0046  1.1949
 1222TIP3    H227862   4.627   6.105   7.259  0.2047  0.1918  0.1573
 1223TIP3   OH227863   1.050   4.366   9.151  0.3211  0.0420 -1.1060
 1223TIP3    H127864   1.110   4.334   9.219  4.0638  0.9454 -3.6670
 1223TIP3    H227865   0.995   4.430   9.197  0.6056 -1.5219  1.6457
 1224TIP3   OH227866   5.539   4.213   6.741 -0.9622  0.0522  0.5538
 1224TIP3    H127867   5.535   4.301   6.779 -1.7651  0.4071 -0.3118
 1224TIP3    H227868   5.449   4.194   6.715 -0.6566 -0.7138  0.0161
 1225TIP3   OH227869   2.304   3.847   9.409 -0.0855  0.4680  0.2159
 1225TIP3    H127870   2.384   3.811   9.372 -0.3180 -0.3816  0.5057
 1225TIP3    H227871   2.313   3.942   9.401  0.7132  0.3562 -0.2259
 1226TIP3   OH227872   2.028   0.462   8.694  0.1268  0.0738 -0.1220
 1226TIP3    H127873   2.060   0.538   8.743  2.5597 -1.4347  0.7760
 1226TIP3    H227874   2.016   0.394   8.761  0.8537 -1.2117 -1.2528
 1227TIP3   OH227875   7.575   6.317   8.916 -0.0259  0.3795  0.2564
 1227TIP3    H127876   7.648   6.363   8.875  0.1888 -0.3434 -0.1837
 1227TIP3    H227877   7.615   6.240   8.956 -0.8836 -1.7025 -2.5516
 1228TIP3   OH227878   3.670   7.115   8.771 -0.0360 -0.2249 -0.6926
 1228TIP3    H127879   3.683   7.196   8.821  1.7014 -1.0304  0.2566
 1228TIP3    H227880   3.599   7.070   8.817  0.3940 -0.1666  0.0521
 1229TIP3   OH227881   1.957   3.968   7.473 -0.1409  0.3218  0.7117
 1229TIP3    H127882   1.898   4.024   7.423 -1.7922 -0.4564  1.7058
 1229TIP3    H227883   1.947   3.882   7.434  2.2299  0.5859 -0.6726
 1230TIP3   OH227884   6.690   1.103   9.619 -0.0548 -0.3374  0.7222
 1230TIP3    H127885   6.762   1.127   9.678  0.2785  0.9554 -0.1592
 1230TIP3    H227886   6.634   1.181   9.616  1.4404  0.8503 -2.8196
 1231TIP3   OH227887   5.138   4.886   7.705 -0.2298 -0.3037 -0.0813
 1231TIP3    H127888   5.106   4.941   7.634  0.4243 -0.7123 -0.7030
 1231TIP3    H227889   5.127   4.940   7.784  0.9146  0.9475 -0.7444
 1232TIP3   OH227890   5.506   1.399   9.146  0.2821  0.4554  0.0197
 1232TIP3    H127891   5.419   1.359   9.142  0.7163 -0.8817  2.0500
 1232TIP3    H227892   5.518   1.421   9.238  1.5864  1.8594 -0.4446
 1233TIP3   OH227893   1.642   4.678   7.940  0.5088 -0.4892 -0.0332
 1233TIP3    H127894   1.604   4.756   7.898  0.2057  0.8570  2.5483
 1233TIP3    H227895   1.675   4.626   7.867  2.1622  2.7916 -1.8740
 1234TIP3   OH227896   5.210   4.607   8.178 -0.3704  0.6391 -0.2924
 1234TIP3    H127897   5.137   4.552   8.151 -0.4333 -0.2753  1.5559
 1234TIP3    H227898   5.172   4.667   8.243  0.3550  0.6466  0.1437
 1235TIP3   OH227899   5.805   2.227   7.493  0.1186  0.2548  0.1577
 1235TIP3    H127900   5.807   2.264   7.405  1.8276  1.5245  0.6594
 1235TIP3    H227901   5.715   2.197   7.505  0.1640 -1.1484 -2.4602
 1236TIP3   OH227902   6.592   6.798   8.448  0.1336 -0.0368 -0.5865
 1236TIP3    H127903   6.655   6.822   8.380 -0.3599 -1.8969 -1.7683
 1236TIP3    H227904   6.625   6.842   8.527  2.3408 -0.1090 -1.3799
 1237TIP3   OH227905   0.232   4.201   8.121 -0.6433  0.2132 -0.1352
 1237TIP3    H127906   0.160   4.138   8.122  0.2735 -0.8756 -0.3698
 1237TIP3    H227907   0.294   4.166   8.057  0.5313  0.6273  0.7356
 1238TIP3   OH227908   0.315   1.538   9.273 -0.0825  0.4480 -0.3863
 1238TIP3    H127909   0.411   1.546   9.274  0.0032 -0.3672 -0.9918
 1238TIP3    H227910   0.298   1.458   9.223 -1.0555  0.0823  0.4948
 1239TIP3   OH227911   6.411   2.481   7.597 -1.1161 -0.2149  0.1849
 1239TIP3    H127912   6.477   2.415   7.578  0.5326  0.7069  2.2817
 1239TIP3    H227913   6.331   2.432   7.613 -0.7194 -1.4401 -1.4536
 1240TIP3   OH227914   2.644   3.169   7.877  0.1077  0.7140 -0.0978
 1240TIP3    H127915   2.549   3.173   7.889  0.0247 -1.7301  0.4505
 1240TIP3    H227916   2.678   3.142   7.962  1.2603  1.0716 -0.4267
 1241TIP3   OH227917   1.411   3.868   7.922  0.1303 -0.5869 -0.1725
 1241TIP3    H127918   1.413   3.773   7.936  3.7531 -0.3001  2.7578
 1241TIP3    H227919   1.477   3.884   7.854  2.2472 -0.0682  1.8671
 1242TIP3   OH227920   1.669   2.008   6.676 -0.1540 -0.7175 -0.5059
 1242TIP3    H127921   1.607   1.994   6.604  1.2054 -0.0188 -1.9017
 1242TIP3    H227922   1.755   1.990   6.637  0.5798 -1.1526  1.2127
 1243TIP3   OH227923   1.238   1.263   8.477 -0.6561  0.6369 -0.4485
 1243TIP3    H127924   1.301   1.208   8.430  0.0457  0.8703  0.1967
 1243TIP3    H227925   1.223   1.218   8.560  0.0372  1.4657  0.1479
 1244TIP3   OH227926   3.014   5.592   8.695 -0.3169  0.7743 -0.5840
 1244TIP3    H127927   3.040   5.508   8.734  0.4568  0.6909 -1.2475
 1244TIP3    H227928   3.091   5.648   8.705  1.2932 -0.2435 -4.7959
 1245TIP3   OH227929   4.464   5.710   9.127  0.3131  0.1960 -0.2737
 1245TIP3    H127930   4.532   5.657   9.168  1.0535 -0.8424 -2.6638
 1245TIP3    H227931   4.457   5.676   9.038 -1.9160  1.6331 -0.7446
 1246TIP3   OH227932   5.797   1.221   8.675 -0.0636  0.3749  0.4664
 1246TIP3    H127933   5.838   1.306   8.683 -2.4898  1.5204  1.9945
 1246TIP3    H227934   5.719   1.237   8.621 -0.1722 -1.0438  0.1528
 1247TIP3   OH227935   6.107   0.012   8.856  0.5631  0.0488 -0.1503
 1247TIP3    H127936   6.115   0.018   8.951  0.7679 -0.4833 -0.1319
 1247TIP3    H227937   6.192  -0.022   8.827  1.1401  1.8445 -0.6923
 1248TIP3   OH227938   4.501   0.708   7.447 -0.4152  0.5732  0.6445
 1248TIP3    H127939   4.469   0.773   7.384 -2.0069  0.8525  1.6846
 1248TIP3    H227940   4.594   0.729   7.458 -0.3166  1.0886 -0.8925
 1249TIP3   OH227941   5.619   4.442   9.600 -0.1180 -0.6038  0.3866
 1249TIP3    H127942   5.560   4.498   9.550  1.3761  0.8459  0.1451
 1249TIP3    H227943   5.639   4.493   9.679  0.4800 -1.2453  0.6559
 1250TIP3   OH227944   1.141   4.475   7.293 -0.5000 -0.3099 -0.3728
 1250TIP3    H127945   1.196   4.399   7.311 -0.3977 -0.1559 -0.0286
 1250TIP3    H227946   1.192   4.550   7.323 -0.2206 -0.0156 -1.5267
 1251TIP3   OH227947   2.478   2.843   9.302  0.0709 -0.1179  0.2104
 1251TIP3    H127948   2.476   2.893   9.220 -1.2381  2.2360  1.5872
 1251TIP3    H227949   2.392   2.856   9.341  0.3994 -1.7958  1.6636
 1252TIP3   OH227950   5.139   7.189   8.605  0.5478  0.4178  0.1349
 1252TIP3    H127951   5.175   7.250   8.669  1.6791  0.7652 -0.8074
 1252TIP3    H227952   5.045   7.211   8.602  0.7289  1.3329  0.6429
 1253TIP3   OH227953   6.001   1.436   8.232  0.0691  0.3119 -0.1764
 1253TIP3    H127954   6.089   1.412   8.259 -0.3423  2.7696  4.2495
 1253TIP3    H227955   5.998   1.531   8.240 -2.5234  0.5132 -2.0697
 1254TIP3   OH227956   1.976   6.404   8.294  0.1215  0.6253  0.1005
 1254TIP3    H127957   1.950   6.494   8.315  1.2697  0.6570  1.5881
 1254TIP3    H227958   1.903   6.369   8.244 -0.6049  2.2080  0.0017
 1255TIP3   OH227959   4.588   6.946   7.004  0.4559 -0.4354  0.1513
 1255TIP3    H127960   4.648   6.918   7.073  1.3764  0.9721 -0.0312
 1255TIP3    H227961   4.591   6.876   6.939  1.4250 -0.6672  0.4399
 1256TIP3   OH227962   6.462   6.125   9.120  0.4952 -0.0586 -0.3724
 1256TIP3    H127963   6.540   6.136   9.175 -0.5200 -0.4323  1.1906
 1256TIP3    H227964   6.414   6.208   9.130 -1.0649 -1.1282  1.5830
 1257TIP3   OH227965   4.775   2.413   8.872  0.3342  0.4334 -0.0692
 1257TIP3    H127966   4.783   2.324   8.907  1.0645  0.1706 -0.8657
 1257TIP3    H227967   4.720   2.459   8.935  0.1993 -0.4997  0.5108
 1258TIP3   OH227968   1.625   6.733   7.848  0.2008  0.1341  0.4002
 1258TIP3    H127969   1.671   6.797   7.794  1.0163  0.2277  1.2030
 1258TIP3    H227970   1.622   6.772   7.935  1.0074 -1.0504  0.9823
 1259TIP3   OH227971   1.943   3.109   9.719  0.5704 -0.0577  0.3798
 1259TIP3    H127972   2.017   3.162   9.747 -0.9410  2.1425  0.3988
 1259TIP3    H227973   1.956   3.025   9.764  3.4203 -0.0544 -0.2376
 1260TIP3   OH227974   2.733   3.747   8.741 -0.2001  0.0176 -0.9209
 1260TIP3    H127975   2.706   3.657   8.720  0.1939 -0.4515  0.4485
 1260TIP3    H227976   2.704   3.799   8.666 -1.0152 -1.1489 -1.4498
 1261TIP3   OH227977   6.830   6.685   8.746 -0.3049  0.4758  0.1767
 1261TIP3    H127978   6.850   6.605   8.698  1.1944  1.5427 -1.0568
 1261TIP3    H227979   6.734   6.687   8.750 -0.4919  0.0464 -2.3354
 1262TIP3   OH227980   7.086   7.242   8.373 -0.5846  0.3550  0.1137
 1262TIP3    H127981   7.015   7.179   8.371  0.5153 -0.9787  1.1571
 1262TIP3    H227982   7.125   7.232   8.460  2.7391 -1.1490 -1.3846
 1263TIP3   OH227983   3.896   6.550   7.160 -0.0958 -0.1405 -0.2496
 1263TIP3    H127984   3.862   6.638   7.148  0.1654  0.1766  1.1605
 1263TIP3    H227985   3.838   6.509   7.224  1.6130  0.1521  1.6109
 1264TIP3   OH227986   4.041   5.243   7.978 -0.4565 -0.2934 -0.3413
 1264TIP3    H127987   4.136   5.240   7.984 -0.4704 -0.8445 -0.3131
 1264TIP3    H227988   4.021   5.211   7.891 -0.6734 -1.6031  0.1674
 1265TIP3   OH227989   6.545   3.537   7.175  0.4085 -0.2582 -0.5211
 1265TIP3    H127990   6.501   3.571   7.097 -1.3693 -0.1740  0.4608
 1265TIP3    H227991   6.506   3.586   7.247  1.8484 -0.5008  0.4585
 1266TIP3   OH227992   3.693   0.372   7.909 -0.5423 -0.3123  0.3307
 1266TIP3    H127993   3.737   0.457   7.898 -0.8102 -0.4063 -1.7049
 1266TIP3    H227994   3.601   0.390   7.891 -0.5248 -1.1201 -0.6280
 1267TIP3   OH227995   0.483   6.852   8.519 -0.4685 -0.2315  0.7408
 1267TIP3    H127996   0.494   6.888   8.607  1.0451  0.7464  0.1938
 1267TIP3    H227997   0.569   6.861   8.478 -1.0988 -0.7940 -0.7944
 1268TIP3   OH227998   3.908   6.280   9.090 -0.3426 -0.1174 -0.1416
 1268TIP3    H127999   3.872   6.239   9.011 -0.4481 -2.2094  0.9255
 1268TIP3    H228000   3.988   6.322   9.060 -0.2212 -1.1167 -1.3329
 1269TIP3   OH228001   6.148   6.203   8.084  0.1799  0.1862  0.2456
 1269TIP3    H128002   6.053   6.207   8.075  0.1357 -0.5032  0.2839
 1269TIP3    H228003   6.172   6.120   8.043  0.8764  0.7782 -0.5763
 1270TIP3   OH228004   7.039   2.335   9.313  0.0479  0.1755 -0.2647
 1270TIP3    H128005   7.092   2.340   9.393 -0.6827 -0.8543  0.3062
 1270TIP3    H228006   6.955   2.372   9.337  0.5125  1.9735 -1.2228
 1271TIP3   OH228007   6.846   3.392   8.890 -0.4250  0.2518  0.4505
 1271TIP3    H128008   6.768   3.427   8.934 -0.1553  0.6978  0.5782
 1271TIP3    H228009   6.906   3.467   8.884 -0.2473  0.0662 -0.1983
 1272TIP3   OH228010   1.479   6.806   6.921 -0.0713  0.0359  0.3818
 1272TIP3    H128011   1.540   6.743   6.883 -0.8229 -0.9512  0.7547
 1272TIP3    H228012   1.392   6.773   6.898 -0.4891  0.6735  0.9870
 1273TIP3   OH228013   2.825   2.464   6.976 -0.3139  0.7128 -0.3230
 1273TIP3    H128014   2.835   2.370   6.990 -2.5114  0.2121 -1.7198
 1273TIP3    H228015   2.914   2.495   6.962  0.3691 -1.3261 -0.8678
 1274TIP3   OH228016   3.917   6.279   8.364  0.5734 -0.0852  0.0909
 1274TIP3    H128017   3.886   6.231   8.441  0.8152 -1.5615 -0.6844
 1274TIP3    H228018   3.842   6.330   8.335  0.2973  0.0038  0.9543
 1275TIP3   OH228019   3.721   3.842   9.137  0.0580 -0.1034 -0.0472
 1275TIP3    H128020   3.786   3.772   9.138  1.0438  0.6265  3.5626
 1275TIP3    H228021   3.637   3.798   9.128  0.5911 -1.9361  2.8574
 1276TIP3   OH228022   6.910   2.292   8.299 -0.0959  0.0442 -0.0482
 1276TIP3    H128023   6.829   2.268   8.254 -1.0438 -0.4697  1.8576
 1276TIP3    H228024   6.956   2.209   8.311 -0.9087 -0.1889  1.8459
 1277TIP3   OH228025   7.674   7.069   8.117 -0.1373  0.0768  0.0451
 1277TIP3    H128026   7.641   7.060   8.027 -1.2046  2.1644  0.1602
 1277TIP3    H228027   7.612   7.019   8.170 -1.2522  1.2390 -0.1092
 1278TIP3   OH228028   5.515   1.514   8.464  0.4344  0.4525 -0.0664
 1278TIP3    H128029   5.572   1.582   8.429  0.9872 -0.2001 -0.4771
 1278TIP3    H228030   5.477   1.552   8.543 -0.8055  1.9436 -1.3191
 1279TIP3   OH228031   6.071   3.126   8.041 -0.8202  0.5392  0.1828
 1279TIP3    H128032   6.153   3.163   8.074 -0.9167  0.1588  0.8722
 1279TIP3    H228033   6.052   3.176   7.962  0.6689 -0.0938 -0.6322
 1280TIP3   OH228034   2.150   2.737   7.024 -0.1280  0.5502 -0.4501
 1280TIP3    H128035   2.151   2.642   7.012  0.9602  0.3586  0.9229
 1280TIP3    H228036   2.064   2.764   6.992 -0.5814 -0.9293 -0.5756
 1281TIP3   OH228037   7.059   1.436   8.376 -0.0935 -0.2711  0.3023
 1281TIP3    H128038   7.087   1.352   8.412  1.1699 -0.1317 -0.2986
 1281TIP3    H228039   7.118   1.451   8.302  2.4568  2.9821  2.6926
 1282TIP3   OH228040   5.568   2.318   9.873  0.1398 -0.8088 -0.0195
 1282TIP3    H128041   5.658   2.302   9.902  0.2449  0.5704  0.5227
 1282TIP3    H228042   5.574   2.316   9.777  0.9708  0.2005 -0.0163
 1283TIP3   OH228043   2.082   2.706   7.595 -0.2507 -0.8245  0.1364
 1283TIP3    H128044   2.169   2.746   7.587 -0.7183  0.0280 -1.2438
 1283TIP3    H228045   2.073   2.655   7.515 -1.5695  0.3032 -0.4782
 1284TIP3   OH228046   7.073   4.456   7.017 -0.0756  0.7164  0.3257
 1284TIP3    H128047   7.055   4.550   7.019  0.5550  0.8741 -0.6321
 1284TIP3    H228048   7.157   4.447   7.062 -0.8983  0.3970  1.8439
 1285TIP3   OH228049   1.187   2.124   7.718 -0.2102 -0.7613  0.3039
 1285TIP3    H128050   1.158   2.075   7.641  0.0563 -0.6698  0.1428
 1285TIP3    H228051   1.114   2.120   7.778 -0.5889 -0.4713 -0.1292
 1286TIP3   OH228052   0.929   7.433   8.922 -0.1408  0.7217  0.1118
 1286TIP3    H128053   0.866   7.466   8.986  1.0382  2.0682  0.6322
 1286TIP3    H228054   1.014   7.456   8.959  0.7620 -2.3941  0.1716
 1287TIP3   OH228055   3.389   1.193   7.543  0.3773  1.0146  0.3231
 1287TIP3    H128056   3.316   1.219   7.599  1.3292  1.4351  1.4231
 1287TIP3    H228057   3.348   1.155   7.465 -0.9964 -0.6448  1.7891
 1288TIP3   OH228058   0.614   6.565   8.731  0.1898  0.4847  0.2397
 1288TIP3    H128059   0.599   6.610   8.814  1.7809 -0.8774  1.3347
 1288TIP3    H228060   0.661   6.486   8.755  1.3599  0.3996 -2.0403
 1289TIP3   OH228061   2.458   5.664   7.069  0.1599  0.0064 -0.1985
 1289TIP3    H128062   2.545   5.666   7.028 -0.5543 -0.3741 -1.7908
 1289TIP3    H228063   2.406   5.727   7.018 -0.9379 -0.9641 -0.3176
 1290TIP3   OH228064   4.780   0.739   7.127  0.0087  0.3989  0.8162
 1290TIP3    H128065   4.769   0.645   7.117 -0.9908  0.6915 -1.2516
 1290TIP3    H228066   4.720   0.778   7.063  0.4642  2.4498  1.5448
 1291TIP3   OH228067   2.659   5.124   7.476 -0.1015 -0.0553  0.2821
 1291TIP3    H128068   2.639   5.180   7.552 -0.6805 -0.2032  0.2380
 1291TIP3    H228069   2.696   5.045   7.515 -2.2172 -0.9692  0.5648
 1292TIP3   OH228070   7.536   7.282   8.512 -0.5926 -0.1294  0.6638
 1292TIP3    H128071   7.580   7.210   8.557  1.1643  1.1053  1.0556
 1292TIP3    H228072   7.593   7.301   8.437 -0.9221  0.9488  0.6696
 1293TIP3   OH228073   5.509   6.403   7.482 -0.2704 -0.4396  0.6160
 1293TIP3    H128074   5.558   6.321   7.483  2.4379  0.9465 -2.0376
 1293TIP3    H228075   5.453   6.396   7.405 -0.6124 -0.0757  0.8272
 1294TIP3   OH228076   6.405   4.049   9.174  0.2218  0.2274  0.4153
 1294TIP3    H128077   6.387   3.981   9.109 -0.1293  1.1795 -0.5245
 1294TIP3    H228078   6.322   4.096   9.182  0.7839  1.3228  0.0880
 1295TIP3   OH228079   7.630   5.079   7.402 -0.0748  0.1240  0.5724
 1295TIP3    H128080   7.627   5.121   7.488  0.3115  0.4299  0.4410
 1295TIP3    H228081   7.616   5.150   7.339  1.4052  0.2216  0.3150
 1296TIP3   OH228082   1.449   2.626   8.363 -0.5289  0.1232 -0.6901
 1296TIP3    H128083   1.510   2.567   8.319 -0.7680 -0.5282 -0.1618
 1296TIP3    H228084   1.428   2.692   8.297 -0.8981 -0.8366 -1.5615
 1297TIP3   OH228085   5.104   3.324   9.285  0.4649 -0.3057 -0.1580
 1297TIP3    H128086   5.079   3.370   9.204 -0.6171 -0.4133  0.1037
 1297TIP3    H228087   5.033   3.261   9.300  0.7572 -0.4286  0.7648
 1298TIP3   OH228088   3.883   7.254   6.966 -0.5897 -0.0873 -0.4805
 1298TIP3    H128089   3.851   7.292   6.884  3.4991 -1.6683 -3.1169
 1298TIP3    H228090   3.850   7.164   6.965 -0.2138 -0.2274 -0.6542
 1299TIP3   OH228091   6.256   2.634   7.873 -0.2427  0.1408 -0.4837
 1299TIP3    H128092   6.178   2.689   7.879 -1.4560 -1.1589 -3.0457
 1299TIP3    H228093   6.222   2.544   7.873  1.5519 -0.6420  1.6537
 1300TIP3   OH228094   1.326   3.320   7.716 -0.2500 -0.1038 -0.6943
 1300TIP3    H128095   1.357   3.267   7.789  0.4659  2.1050  0.7292
 1300TIP3    H228096   1.387   3.300   7.645  1.3489  0.3469  0.4809
 1301TIP3   OH228097   2.086   5.932   6.459  0.4628 -0.1678 -0.9107
 1301TIP3    H128098   2.038   5.974   6.531  1.4382 -1.1296  0.3629
 1301TIP3    H228099   2.146   5.999   6.428 -1.1133  0.8026 -2.0113
 1302TIP3   OH228100   2.508   5.902   8.053 -0.2273 -0.3531 -0.3935
 1302TIP3    H128101   2.544   5.924   8.139 -1.4597 -1.1404  0.3623
 1302TIP3    H228102   2.523   5.980   8.000  1.8657 -0.3762  0.0775
 1303TIP3   OH228103   2.051   3.669   8.434  0.2220  0.6050  0.1034
 1303TIP3    H128104   1.964   3.707   8.438 -1.1519 -2.2912  0.6310
 1303TIP3    H228105   2.056   3.629   8.347 -0.3896 -2.0544  1.1869
 1304TIP3   OH228106   6.026   7.048   9.031 -0.1259  0.1668  0.2299
 1304TIP3    H128107   6.102   7.029   9.086 -0.3458 -1.3017  0.0780
 1304TIP3    H228108   6.045   7.001   8.949 -0.8938  0.3270 -0.0419
 1305TIP3   OH228109   0.368   3.336   7.089 -0.1436  0.1841 -0.7709
 1305TIP3    H128110   0.384   3.242   7.090 -0.0716  0.1847 -1.4307
 1305TIP3    H228111   0.450   3.376   7.117 -0.1711  0.0513 -0.5031
 1306TIP3   OH228112   0.196   6.570   8.217  0.6558  0.3278 -0.3024
 1306TIP3    H128113   0.187   6.654   8.263 -0.7928 -0.2531  0.5373
 1306TIP3    H228114   0.106   6.546   8.194  0.9619 -1.4058  0.2188
 1307TIP3   OH228115   5.406   3.119   8.075 -0.4732 -0.1272  0.8803
 1307TIP3    H128116   5.397   3.023   8.076 -3.1073  0.0636  0.7095
 1307TIP3    H228117   5.474   3.136   8.141 -2.3112 -1.9631  3.4915
 1308TIP3   OH228118   4.580   4.944   7.958 -0.3672  0.8441  0.2463
 1308TIP3    H128119   4.674   4.948   7.941 -0.5276  0.1163 -0.9582
 1308TIP3    H228120   4.563   5.016   8.019  0.6441  2.2403 -1.0467
 1309TIP3   OH228121   0.363   2.677   7.149 -0.3223  0.2424  0.7355
 1309TIP3    H128122   0.364   2.743   7.080 -0.7504  0.6976  1.1516
 1309TIP3    H228123   0.444   2.628   7.138 -0.0675  0.7505  0.3327
 1310TIP3   OH228124   5.678   6.387   8.642  0.1149  0.3352 -0.2997
 1310TIP3    H128125   5.740   6.355   8.576  0.0444  1.5701 -0.9902
 1310TIP3    H228126   5.734   6.418   8.713  0.2298  0.0837 -0.2765
 1311TIP3   OH228127   3.906   3.452   9.755 -0.7724 -0.0177  0.1629
 1311TIP3    H128128   3.959   3.383   9.715 -0.3912  1.2632 -1.6514
 1311TIP3    H228129   3.819   3.413   9.763 -0.5422 -0.7564 -0.7169
 1312TIP3   OH228130   2.861   4.048   7.172  0.0237  0.0127 -0.3897
 1312TIP3    H128131   2.782   4.014   7.216 -0.2391  2.1027  0.8495
 1312TIP3    H228132   2.932   4.026   7.232  0.1931 -0.4755 -0.7618
 1313TIP3   OH228133   7.371   5.390   8.772  0.2339  0.0208  0.0097
 1313TIP3    H128134   7.378   5.369   8.678 -0.4660 -0.2678  0.0127
 1313TIP3    H228135   7.444   5.343   8.813  0.9683  0.7183 -0.4773
 1314TIP3   OH228136   1.925   5.234   8.195 -0.9962  0.2845  0.1966
 1314TIP3    H128137   1.959   5.324   8.198  0.7144 -0.3285  0.5593
 1314TIP3    H228138   1.920   5.208   8.287 -0.8751 -0.2053  0.0659
 1315TIP3   OH228139   2.342   3.181   9.516 -0.0299 -0.0910 -0.4184
 1315TIP3    H128140   2.360   3.172   9.610  1.9994  0.8217 -0.6654
 1315TIP3    H228141   2.255   3.221   9.513  0.2665  0.7836  1.1336
 1316TIP3   OH228142   1.903   1.404   8.430  0.1872 -0.1016 -0.0446
 1316TIP3    H128143   1.898   1.494   8.462  1.4932  0.2574 -0.7803
 1316TIP3    H228144   1.813   1.382   8.403 -0.2023  0.8505  0.4738
 1317TIP3   OH228145   7.151   0.404   9.176 -0.1386  0.2773  0.6519
 1317TIP3    H128146   7.110   0.318   9.188 -0.2201  0.3049  0.5794
 1317TIP3    H228147   7.146   0.445   9.262  0.5584 -0.0728  0.8603
 1318TIP3   OH228148   4.125   0.283   7.881  0.2601  0.2326 -0.5358
 1318TIP3    H128149   4.207   0.332   7.872  0.1334  0.3060 -1.2854
 1318TIP3    H228150   4.088   0.280   7.793 -0.4354  0.0020 -0.2444
 1319TIP3   OH228151   6.964   0.050   8.042  0.0507  0.4213  0.0086
 1319TIP3    H128152   7.043   0.013   8.004  0.4898  1.1895  0.1588
 1319TIP3    H228153   6.976   0.041   8.136 -0.2147  0.2042  0.0249
 1320TIP3   OH228154   4.262   5.281   8.789 -0.3372  0.2251 -0.3512
 1320TIP3    H128155   4.194   5.270   8.855 -0.3048 -2.2111 -0.6200
 1320TIP3    H228156   4.342   5.298   8.840 -0.4185 -1.0314  0.2272
 1321TIP3   OH228157   7.443   7.408   7.884 -0.4042  0.4131 -0.2631
 1321TIP3    H128158   7.355   7.425   7.850 -0.1696 -0.3030 -1.2979
 1321TIP3    H228159   7.475   7.335   7.830  0.5985  0.2808  0.4894
 1322TIP3   OH228160   7.244   3.485   7.343 -0.5505  0.4187 -0.0934
 1322TIP3    H128161   7.207   3.449   7.262  0.8949  1.4416 -1.2704
 1322TIP3    H228162   7.316   3.425   7.365  0.6400  1.4534 -0.9969
 1323TIP3   OH228163   4.834   4.005   8.605  0.0365  0.0265 -0.8513
 1323TIP3    H128164   4.854   3.915   8.580 -0.7710 -0.1380 -0.9383
 1323TIP3    H228165   4.757   4.028   8.553  1.6196  1.6249 -2.6629
 1324TIP3   OH228166   4.695   1.932   7.150 -0.1624 -0.0002 -0.4552
 1324TIP3    H128167   4.721   1.996   7.083 -1.3849  0.9933 -0.0213
 1324TIP3    H228168   4.600   1.935   7.150 -0.2273 -1.4417 -0.0230
 1325TIP3   OH228169   7.623   6.586   9.013  0.3538 -0.1134  0.1896
 1325TIP3    H128170   7.539   6.541   9.006 -0.2961  0.6451  2.2380
 1325TIP3    H228171   7.679   6.525   9.060  0.6283 -0.2284 -0.2900
 1326TIP3   OH228172   3.730   2.169   7.456 -0.0701  0.5565 -0.5517
 1326TIP3    H128173   3.644   2.199   7.486  0.5250  1.4900  0.3095
 1326TIP3    H228174   3.792   2.210   7.517  0.9836 -0.1172 -1.1393
 1327TIP3   OH228175   4.476   6.245   6.821 -0.6869  0.1384 -0.3001
 1327TIP3    H128176   4.528   6.280   6.894  0.0236  0.3547 -0.9006
 1327TIP3    H228177   4.431   6.170   6.859  0.8495 -0.6825 -0.0003
 1328TIP3   OH228178   3.620   5.324   6.735 -0.0683 -0.2086  0.1798
 1328TIP3    H128179   3.640   5.292   6.823  0.8191  1.0405  0.4655
 1328TIP3    H228180   3.706   5.329   6.692 -0.5770 -1.8189 -1.1565
 1329TIP3   OH228181   2.436   4.912   8.269  0.6427 -0.7501 -0.0643
 1329TIP3    H128182   2.398   4.846   8.211  2.3908 -1.8186 -0.0818
 1329TIP3    H228183   2.439   4.992   8.216 -0.4290 -0.9489 -0.4451
 1330TIP3   OH228184   2.885   5.175   8.028  0.4276  0.3990  0.2044
 1330TIP3    H128185   2.793   5.154   8.013  0.3516  1.6707 -1.4392
 1330TIP3    H228186   2.901   5.151   8.119 -0.6741 -2.8121 -0.2969
 1331TIP3   OH228187   5.036   2.669   7.413 -0.1326 -0.6234  0.8580
 1331TIP3    H128188   4.972   2.725   7.369  1.6825  0.1717 -0.8944
 1331TIP3    H228189   5.022   2.582   7.376  0.0844 -0.3585  0.1400
 1332TIP3   OH228190   4.433   3.696   9.295 -0.3241  0.5951  0.8442
 1332TIP3    H128191   4.523   3.697   9.326  0.0436 -0.1959 -0.1546
 1332TIP3    H228192   4.412   3.789   9.280 -0.0645  0.8791  2.0881
 1333TIP3   OH228193   2.356   4.910   7.174  0.2661  0.9513 -0.0443
 1333TIP3    H128194   2.284   4.878   7.119 -1.9207  1.8574  2.0746
 1333TIP3    H228195   2.394   4.831   7.212 -0.5174  0.4898 -0.1881
 1334TIP3   OH228196   4.758   1.453   7.928  0.0211  0.1853 -0.1596
 1334TIP3    H128197   4.740   1.523   7.865 -2.1332  0.1980  0.4063
 1334TIP3    H228198   4.733   1.373   7.881 -1.5149  0.1883  0.6059
 1335TIP3   OH228199   3.564   3.234   8.188  0.1203  0.1157  0.2920
 1335TIP3    H128200   3.494   3.279   8.141  1.7296  0.5222 -1.8583
 1335TIP3    H228201   3.526   3.149   8.212 -1.3871  0.6885  0.0316
 1336TIP3   OH228202   2.502   2.677   7.917  0.0470  0.4576  0.0963
 1336TIP3    H128203   2.500   2.619   7.841  0.1640  0.6764 -0.0757
 1336TIP3    H228204   2.571   2.741   7.897  0.6359  0.0383  0.7364
 1337TIP3   OH228205   6.934   5.237   8.288 -0.2340  0.0687  0.1187
 1337TIP3    H128206   7.014   5.183   8.289  0.8877  1.4457  4.3109
 1337TIP3    H228207   6.963   5.321   8.254 -0.1310  0.2610  0.6763
 1338TIP3   OH228208   3.337   7.445   7.219 -0.0458  0.0507  0.2320
 1338TIP3    H128209   3.354   7.370   7.276 -0.6361 -1.3187 -1.3263
 1338TIP3    H228210   3.423   7.469   7.185 -0.1825 -2.3307 -2.1093
 1339TIP3   OH228211   6.812   7.235   8.204 -0.3503 -0.3952  0.1967
 1339TIP3    H128212   6.861   7.315   8.220 -1.2658  0.2216 -0.0070
 1339TIP3    H228213   6.876   7.174   8.167  0.7637 -0.3648  1.9735
 1340TIP3   OH228214   2.958   4.646   8.937 -0.2519  0.1799 -0.2937
 1340TIP3    H128215   3.010   4.678   9.010  0.6261 -1.6073 -0.0795
 1340TIP3    H228216   2.916   4.567   8.970 -0.3112 -0.3310 -1.5433
 1341TIP3   OH228217   6.946   2.169   7.976  0.3986 -0.6430 -0.4015
 1341TIP3    H128218   7.036   2.144   7.957  1.2654  1.8112  0.0804
 1341TIP3    H228219   6.953   2.257   8.014 -2.0546 -1.0696  1.2990
 1342TIP3   OH228220   5.477   3.080   7.801  0.4071 -0.4446  0.1901
 1342TIP3    H128221   5.447   3.076   7.892 -0.1401  0.2060  0.0457
 1342TIP3    H228222   5.560   3.128   7.806  1.3562 -2.0194  0.5561
 1343TIP3   OH228223   0.500   6.005   7.879  0.4843 -0.1878  0.0268
 1343TIP3    H128224   0.595   6.005   7.869  0.3023 -0.1895 -2.6104
 1343TIP3    H228225   0.479   6.094   7.906  1.2156 -0.1954  0.6723
 1344TIP3   OH228226   1.714   1.419   7.316  0.5449 -0.1900  0.5683
 1344TIP3    H128227   1.768   1.477   7.262 -0.0894  0.0891  0.2174
 1344TIP3    H228228   1.667   1.477   7.375 -3.2255  0.2471 -2.4426
 1345TIP3   OH228229   0.134   6.800   8.609  0.0216 -0.6976 -0.6642
 1345TIP3    H128230   0.196   6.788   8.537  1.5638 -1.2837  0.6945
 1345TIP3    H228231   0.189   6.812   8.687 -1.5035  2.6596  0.0963
 1346TIP3   OH228232   7.238   6.777   8.869 -0.4710  0.1755 -0.2473
 1346TIP3    H128233   7.279   6.716   8.808  0.7959 -1.2714  1.8728
 1346TIP3    H228234   7.165   6.727   8.907 -1.5159  1.2026 -0.8536
 1347TIP3   OH228235   2.240   5.872   8.252 -0.1728  0.1567 -0.3512
 1347TIP3    H128236   2.208   5.813   8.320 -0.7558  1.2159  0.3200
 1347TIP3    H228237   2.315   5.825   8.213 -1.2031 -1.4314 -0.5135
 1348TIP3   OH228238   7.565   3.745   7.722  0.2447 -0.0182  0.6103
 1348TIP3    H128239   7.476   3.725   7.751 -0.0945  1.6359  0.7755
 1348TIP3    H228240   7.557   3.757   7.627  0.7632 -2.1885  0.2267
 1349TIP3   OH228241   1.754   3.878   9.376 -0.1292 -0.4168 -0.1633
 1349TIP3    H128242   1.750   3.951   9.437 -0.2452  2.4371 -3.2532
 1349TIP3    H228243   1.848   3.863   9.364 -0.0821 -0.0935 -0.2187
 1350TIP3   OH228244   2.177   5.639   7.680  0.5514 -0.2988 -0.1761
 1350TIP3    H128245   2.235   5.701   7.636 -0.7129 -0.3169 -1.9681
 1350TIP3    H228246   2.236   5.575   7.719  1.7823  0.1424 -1.2443
 1351TIP3   OH228247   2.315   4.674   8.569  0.4681  0.4179  0.5892
 1351TIP3    H128248   2.259   4.657   8.644 -0.7281 -2.5768 -0.8386
 1351TIP3    H228249   2.386   4.610   8.577  1.8349  1.8595  0.5248
 1352TIP3   OH228250   6.240   6.606   8.977 -0.0876 -0.0211  0.0918
 1352TIP3    H128251   6.284   6.626   8.894  0.2066  1.3025  0.5291
 1352TIP3    H228252   6.178   6.537   8.955  0.9400 -0.6591 -0.9361
 1353TIP3   OH228253   0.393   2.477   8.074 -0.4517 -0.1838 -0.4271
 1353TIP3    H128254   0.337   2.400   8.084 -0.3305  0.0358  3.6276
 1353TIP3    H228255   0.338   2.541   8.029 -2.0939 -1.2098  0.0404
 1354TIP3   OH228256   6.952   3.641   9.349  0.0423  0.0344  0.0802
 1354TIP3    H128257   6.983   3.554   9.374 -1.9988 -0.4132  1.2759
 1354TIP3    H228258   6.913   3.677   9.429  1.1386  2.2319 -0.2834
 1355TIP3   OH228259   1.343   6.344   6.674  0.3945 -0.5628 -0.0971
 1355TIP3    H128260   1.326   6.412   6.609  1.4613 -1.1495 -1.0253
 1355TIP3    H228261   1.279   6.361   6.744  0.1644  0.9342 -0.6353
 1356TIP3   OH228262   0.648   4.075   7.646 -0.1662 -0.4562  0.5700
 1356TIP3    H128263   0.579   4.137   7.667 -0.0601 -0.8365  2.2551
 1356TIP3    H228264   0.605   4.007   7.595 -0.2359  1.0617 -1.4854
 1357TIP3   OH228265   2.316   5.500   8.207  0.0816 -0.5191 -0.5411
 1357TIP3    H128266   2.353   5.519   8.121  0.3496 -0.2981 -0.3784
 1357TIP3    H228267   2.224   5.480   8.190 -0.2986  1.2088 -0.7052
 1358TIP3   OH228268   3.596   6.508   8.967  0.0974  0.1210 -0.1087
 1358TIP3    H128269   3.540   6.584   8.953  3.2090  2.4669 -0.6235
 1358TIP3    H228270   3.578   6.451   8.892 -1.0499  1.1065 -0.6189
 1359TIP3   OH228271   3.998   5.773   7.097  0.2074 -0.0973  0.3251
 1359TIP3    H128272   3.930   5.721   7.053  2.3527 -0.9826 -2.2614
 1359TIP3    H228273   4.051   5.708   7.143 -0.5379  0.5729  2.2225
 1360TIP3   OH228274   4.739   4.165   7.811  0.3760  0.4005 -0.1940
 1360TIP3    H128275   4.779   4.082   7.783 -0.8151 -0.1370 -0.3878
 1360TIP3    H228276   4.713   4.207   7.729 -1.0807 -0.1249 -0.0420
 1361TIP3   OH228277   3.347   3.355   8.045  0.5845 -0.7194 -0.0165
 1361TIP3    H128278   3.260   3.350   8.087  0.2867 -1.8486 -0.7137
 1361TIP3    H228279   3.368   3.448   8.044 -1.1424 -0.2936 -0.8556
 1362TIP3   OH228280   1.051   3.151   7.396 -0.2967  0.2641  0.3505
 1362TIP3    H128281   1.070   3.226   7.452 -0.6885  1.5827 -1.2109
 1362TIP3    H228282   1.136   3.127   7.359 -0.3031  0.4972  0.1835
 1363TIP3   OH228283   5.879   5.381   6.990 -0.2068 -0.4716  0.5720
 1363TIP3    H128284   5.867   5.297   6.945 -0.6648 -0.4053  0.5696
 1363TIP3    H228285   5.826   5.443   6.940 -0.2034 -0.2660  0.8224
 1364TIP3   OH228286   7.526   2.405   8.771  0.4913  0.9440  0.0902
 1364TIP3    H128287   7.442   2.446   8.749  0.9329  1.0032 -1.5928
 1364TIP3    H228288   7.546   2.348   8.697  1.9773  0.9835  0.4178
 1365TIP3   OH228289   3.449   3.661   8.779  0.2205  0.5808  0.0507
 1365TIP3    H128290   3.396   3.741   8.778  0.1667  0.5443 -0.0476
 1365TIP3    H228291   3.399   3.600   8.834 -0.0623  0.3969 -0.4041
 1366TIP3   OH228292   1.553   5.233   9.028 -0.2135 -0.5177  0.2829
 1366TIP3    H128293   1.599   5.150   9.044  0.7609 -0.4953 -2.0363
 1366TIP3    H228294   1.462   5.206   9.009  0.1674 -1.1368 -0.7988
 1367TIP3   OH228295   6.258   5.340   9.214 -0.2839 -0.2741 -0.0298
 1367TIP3    H128296   6.274   5.430   9.242 -1.1725 -0.5537  1.4805
 1367TIP3    H228297   6.297   5.335   9.126  1.1556  1.1165  0.4850
 1368TIP3   OH228298   1.440   0.686   8.152  0.3097 -0.1711 -0.4130
 1368TIP3    H128299   1.488   0.763   8.182  0.0707  0.2500 -1.1030
 1368TIP3    H228300   1.416   0.706   8.062 -1.7291 -0.0972  0.0975
 1369TIP3   OH228301   5.396   4.744   7.338 -0.1174  0.6109 -0.3211
 1369TIP3    H128302   5.367   4.672   7.282 -0.4535  0.3069  0.2303
 1369TIP3    H228303   5.367   4.719   7.426 -1.1661  1.8937 -0.2580
 1370TIP3   OH228304   4.314   1.715   9.355  0.1530 -0.0531 -0.3146
 1370TIP3    H128305   4.254   1.642   9.338 -0.3684  0.2300  0.2339
 1370TIP3    H228306   4.256   1.787   9.382  0.7456  0.2132  0.2716
 1371TIP3   OH228307   5.707   4.399   8.595  0.1414  0.5442  0.1617
 1371TIP3    H128308   5.622   4.443   8.595 -0.4753 -0.5932 -1.0084
 1371TIP3    H228309   5.766   4.462   8.553 -0.4081  0.8410 -0.1832
 1372TIP3   OH228310   1.023   7.662   8.439 -0.7770 -0.4725 -0.0059
 1372TIP3    H128311   0.965   7.673   8.515 -0.4429 -1.1944  0.3744
 1372TIP3    H228312   1.046   7.751   8.412 -0.2325 -0.1974  1.2790
 1373TIP3   OH228313   6.177   2.553   6.721 -0.1970  0.0977 -0.0143
 1373TIP3    H128314   6.097   2.597   6.748 -0.5864 -1.5696  1.7597
 1373TIP3    H228315   6.170   2.547   6.626 -0.8068  2.4467 -0.1723
 1374TIP3   OH228316   4.727   2.288   7.155  0.5273  0.1226 -0.1229
 1374TIP3    H128317   4.820   2.307   7.158  0.3051  1.0921  1.7751
 1374TIP3    H228318   4.687   2.365   7.114  0.4779 -0.0021 -0.3151
 1375TIP3   OH228319   3.417   5.391   6.567 -0.1708  0.0052 -0.2390
 1375TIP3    H128320   3.496   5.388   6.622 -1.8564  0.6439  2.4201
 1375TIP3    H228321   3.385   5.301   6.565 -0.4809  0.0893  0.4893
 1376TIP3   OH228322   5.341   0.761   8.541 -0.6367  0.5601 -0.6746
 1376TIP3    H128323   5.350   0.839   8.595 -2.0118  0.9147 -0.9161
 1376TIP3    H228324   5.283   0.703   8.591  0.8569 -0.5969 -0.2121
 1377TIP3   OH228325   3.593   6.483   8.656 -0.3425 -0.4317 -0.1699
 1377TIP3    H128326   3.684   6.468   8.628 -0.3830  1.0079 -1.1830
 1377TIP3    H228327   3.597   6.563   8.708 -1.1857  0.3315 -1.2396
 1378TIP3   OH228328   6.354   1.204   9.154  0.0669  0.8285 -0.1716
 1378TIP3    H128329   6.332   1.262   9.081 -0.0214 -1.7941 -2.4251
 1378TIP3    H228330   6.272   1.193   9.202  0.0394  2.3275  0.1513
 1379TIP3   OH228331   2.355   0.326   9.001  0.0258 -0.2519 -0.2509
 1379TIP3    H128332   2.265   0.343   8.974  0.6641 -0.0702 -2.4525
 1379TIP3    H228333   2.408   0.351   8.925  1.9340 -0.4799  0.9356
 1380TIP3   OH228334   3.602   0.700   7.507 -0.0121  0.3623  0.0230
 1380TIP3    H128335   3.521   0.658   7.481  0.4682 -1.2907  1.0402
 1380TIP3    H228336   3.669   0.660   7.451  0.4597 -0.3091  1.0357
 1381TIP3   OH228337   1.636   2.387   8.942  0.0546  0.6197  0.2938
 1381TIP3    H128338   1.596   2.314   8.894  0.0404  1.0861 -0.4193
 1381TIP3    H228339   1.710   2.347   8.988 -0.5694 -0.0416  0.7515
 1382TIP3   OH228340   2.027   1.903   7.692 -0.1594 -0.2096  0.2383
 1382TIP3    H128341   2.098   1.863   7.642  0.8553 -0.3243  1.7101
 1382TIP3    H228342   1.950   1.852   7.669 -0.2173  0.9684 -2.7325
 1383TIP3   OH228343   1.791   0.737   8.255  0.3525 -0.3284  0.2966
 1383TIP3    H128344   1.785   0.727   8.160  0.7141  0.7758  0.1479
 1383TIP3    H228345   1.854   0.807   8.269  1.8243 -1.7759  1.4218
 1384TIP3   OH228346   4.012   1.110   7.274 -0.1661 -0.2162  0.4621
 1384TIP3    H128347   4.105   1.088   7.277 -0.2271 -0.6825 -0.6649
 1384TIP3    H228348   3.968   1.034   7.314 -0.1617 -0.7467 -0.5171
 1385TIP3   OH228349   4.847   0.688   8.402 -0.1669 -0.1528  0.2773
 1385TIP3    H128350   4.777   0.703   8.467  0.3267 -0.5918  0.9221
 1385TIP3    H228351   4.917   0.646   8.452  0.6270  0.4354 -0.3273
 1386TIP3   OH228352   5.868   2.518   7.492 -0.6442 -0.1127 -0.3001
 1386TIP3    H128353   5.842   2.435   7.531 -0.6168  0.0524  0.0777
 1386TIP3    H228354   5.916   2.494   7.413 -1.4179 -0.4331 -0.6777
 1387TIP3   OH228355   3.212   1.934   7.539  0.3434  0.2149 -0.5247
 1387TIP3    H128356   3.160   1.871   7.489 -2.3753 -0.3781  2.6975
 1387TIP3    H228357   3.210   2.013   7.486  0.3334 -1.1757 -2.7577
 1388TIP3   OH228358   5.680   4.777   8.567 -0.7187 -0.3096  0.4265
 1388TIP3    H128359   5.666   4.872   8.566 -0.7367 -0.3123  0.3880
 1388TIP3    H228360   5.628   4.745   8.641  0.3191 -0.1315  1.2541
 1389TIP3   OH228361   2.510   5.162   8.207 -0.3014  0.3434 -0.5802
 1389TIP3    H128362   2.584   5.223   8.211  0.4508 -0.4531 -1.5001
 1389TIP3    H228363   2.490   5.142   8.298  0.8371  0.3465 -0.3110
 1390TIP3   OH228364   4.780   1.416   8.830  0.6608  0.1842 -0.1770
 1390TIP3    H128365   4.842   1.488   8.836  0.7841  0.1210 -0.6229
 1390TIP3    H228366   4.833   1.341   8.803  0.2095  0.4183 -1.8421
 1391TIP3   OH228367   3.712   3.963   8.024 -0.3235 -0.6311  0.1950
 1391TIP3    H128368   3.761   4.018   8.086 -1.9253  1.5588 -0.3750
 1391TIP3    H228369   3.779   3.916   7.975  1.0890  0.1045  1.3557
 1392TIP3   OH228370   3.267   0.066   7.269 -0.3909 -0.0740 -0.3444
 1392TIP3    H128371   3.230   0.122   7.201  0.9968  0.5893 -0.5801
 1392TIP3    H228372   3.249  -0.023   7.239 -1.4784  0.2161 -0.6089
 1393TIP3   OH228373   4.033   4.116   8.905 -0.5779 -0.0691 -0.6128
 1393TIP3    H128374   4.097   4.148   8.969 -1.4224  1.6309 -0.5668
 1393TIP3    H228375   3.994   4.039   8.947 -0.8326  0.7724  0.7688
 1394TIP3   OH228376   4.068   5.381   8.245 -0.2728  0.1722  0.1711
 1394TIP3    H128377   4.024   5.304   8.282  0.4341 -1.3604 -1.9911
 1394TIP3    H228378   4.043   5.380   8.153  1.7257  1.1054 -0.4118
 1395TIP3   OH228379   1.953   5.194   7.585 -0.2301  0.1264 -0.1324
 1395TIP3    H128380   1.885   5.246   7.627 -0.7347  1.2948 -2.2063
 1395TIP3    H228381   2.012   5.259   7.547 -0.4708 -0.7566 -2.1681
 1396TIP3   OH228382   1.838   1.471   6.670  0.0633  0.8024  0.2602
 1396TIP3    H128383   1.828   1.467   6.575  1.3676 -0.0833  0.1360
 1396TIP3    H228384   1.796   1.392   6.703  0.0529  0.8557  0.3775
 1397TIP3   OH228385   7.606   3.778   8.669 -0.2549  0.3962  0.5702
 1397TIP3    H128386   7.605   3.795   8.763  0.2794  0.3532  0.5881
 1397TIP3    H228387   7.553   3.848   8.632 -2.1021 -0.6793  1.0539
 1398TIP3   OH228388   5.272   6.829   7.892 -0.4403  0.3378  0.0214
 1398TIP3    H128389   5.214   6.878   7.950  0.0442 -0.1169  0.9087
 1398TIP3    H228390   5.317   6.767   7.950 -0.2810 -0.4367 -0.9171
 1399TIP3   OH228391   6.959   2.562   7.739  0.3911 -0.0533  0.0982
 1399TIP3    H128392   6.896   2.611   7.791  0.7323  0.2249  0.2521
 1399TIP3    H228393   7.045   2.597   7.765  0.5482  0.4236 -0.9635
 1400TIP3   OH228394   0.827   2.859   8.862 -0.2938  0.9562  0.9821
 1400TIP3    H128395   0.737   2.838   8.837  0.0080  0.8574 -0.0816
 1400TIP3    H228396   0.821   2.890   8.952 -1.2786  0.1514  1.2093
 1401TIP3   OH228397   0.084   5.957   8.299 -0.5072 -0.1934 -0.4625
 1401TIP3    H128398   0.161   5.901   8.300 -1.3334 -1.4204  1.2811
 1401TIP3    H228399   0.041   5.938   8.216  1.3957  1.0721 -1.8022
 1402TIP3   OH228400   5.770   1.432   8.063 -0.3284  0.1360  0.2421
 1402TIP3    H128401   5.806   1.447   7.975  0.2939 -0.2271  0.4270
 1402TIP3    H228402   5.847   1.422   8.119 -0.7225 -0.1828  0.7350
 1403TIP3   OH228403   6.769   2.486   9.327 -0.2459  0.2349  0.4330
 1403TIP3    H128404   6.695   2.504   9.269  0.9608 -1.1325 -1.6889
 1403TIP3    H228405   6.734   2.429   9.394 -1.0399 -0.9418 -0.9222
 1404TIP3   OH228406   4.278   5.414   7.964  0.6924 -0.0064  0.2759
 1404TIP3    H128407   4.364   5.434   7.927 -0.1333  3.0955 -0.2071
 1404TIP3    H228408   4.257   5.489   8.019 -1.5849 -0.8228  0.6370
 1405TIP3   OH228409   4.633   5.830   7.335  0.9765 -0.2208 -0.4506
 1405TIP3    H128410   4.546   5.825   7.295  1.4596 -1.2631 -1.4033
 1405TIP3    H228411   4.691   5.785   7.274  1.9647 -0.7231  0.8133
 1406TIP3   OH228412   1.916   4.597   9.367 -0.8686  0.1827  0.5458
 1406TIP3    H128413   1.872   4.515   9.345 -0.1519  0.1531 -0.9177
 1406TIP3    H228414   1.988   4.571   9.425 -0.7044 -0.2172  0.1681
 1407TIP3   OH228415   6.341   4.333   7.946  0.2081 -0.5121 -0.5452
 1407TIP3    H128416   6.257   4.311   7.988 -0.2163  1.0052 -0.5453
 1407TIP3    H228417   6.335   4.427   7.929  2.1084 -0.2713 -0.1026
 1408TIP3   OH228418   6.703   0.304   9.230 -0.5348  0.1331  0.6405
 1408TIP3    H128419   6.619   0.269   9.200 -0.3848  0.3041  0.0027
 1408TIP3    H228420   6.761   0.293   9.155  0.3459 -1.0783  1.4542
 1409TIP3   OH228421   1.884   2.093   9.370  0.5501  0.2039  0.0914
 1409TIP3    H128422   1.889   2.034   9.294  0.7783 -0.2745  0.4756
 1409TIP3    H228423   1.830   2.045   9.433  1.6568 -0.0779  0.8407
 1410TIP3   OH228424   0.856   7.244   7.361  0.3131 -0.5657  0.0374
 1410TIP3    H128425   0.901   7.164   7.334 -1.6024 -1.5931 -0.3654
 1410TIP3    H228426   0.844   7.292   7.279 -1.3565 -1.4528 -0.2963
 1411TIP3   OH228427   3.017   0.549   9.651 -0.3351  0.3325  0.1534
 1411TIP3    H128428   2.988   0.485   9.586  0.2585 -0.5534  0.7406
 1411TIP3    H228429   2.961   0.626   9.635 -0.6332 -0.0932 -0.9683
 1412TIP3   OH228430   6.861   1.425   8.879  0.4158  0.4185 -0.3116
 1412TIP3    H128431   6.806   1.491   8.922  0.2593  0.4518 -0.5598
 1412TIP3    H228432   6.821   1.413   8.793  0.6065  0.2003 -0.3704
 1413TIP3   OH228433   7.595   1.523   8.855 -0.1052 -0.2339 -0.8710
 1413TIP3    H128434   7.547   1.454   8.809  0.7744  0.0330 -2.2498
 1413TIP3    H228435   7.605   1.593   8.791 -1.0071  1.2403  0.5057
 1414TIP3   OH228436   3.105   3.305   9.013 -0.2283 -0.1191 -0.1365
 1414TIP3    H128437   3.016   3.313   9.047 -0.6345 -0.0641 -1.1876
 1414TIP3    H228438   3.151   3.252   9.079 -0.7348  0.7530  0.9445
 1415TIP3   OH228439   1.920   5.621   8.936  0.2578 -0.1775 -0.0146
 1415TIP3    H128440   1.857   5.572   8.990  1.3645  0.5858  2.0696
 1415TIP3    H228441   1.904   5.590   8.847 -1.8984 -1.2478  0.6718
 1416TIP3   OH228442   0.007   3.378   9.219 -0.4905  0.0757  0.1458
 1416TIP3    H128443   0.090   3.419   9.243  0.0735 -0.6165 -0.5673
 1416TIP3    H228444   0.027   3.327   9.141 -1.2895 -1.1059  0.6729
 1417TIP3   OH228445   6.532   4.373   9.371  0.5824 -0.9130 -1.0518
 1417TIP3    H128446   6.452   4.382   9.423  2.1260  1.0573  1.2293
 1417TIP3    H228447   6.529   4.284   9.336 -0.9923 -2.0847  1.7738
 1418TIP3   OH228448   2.324   4.453   9.499 -0.1256  0.5535 -0.1165
 1418TIP3    H128449   2.367   4.534   9.529 -1.5915  2.7649 -3.4244
 1418TIP3    H228450   2.394   4.405   9.454  0.0655  1.7327 -1.1486
 1419TIP3   OH228451   3.893   4.231   8.398  0.3175 -0.2932 -0.0342
 1419TIP3    H128452   3.883   4.179   8.477 -0.8847 -0.6288 -0.3897
 1419TIP3    H228453   3.913   4.319   8.430 -0.1475 -0.4259  0.6441
 1420TIP3   OH228454   1.955   2.990   9.470  0.6193  0.0886 -0.3884
 1420TIP3    H128455   1.866   2.966   9.445  1.0802 -0.9506 -1.0908
 1420TIP3    H228456   1.948   3.014   9.563 -0.2376 -0.8595 -0.1912
 1421TIP3   OH228457   7.381   3.509   8.884 -0.1513  0.6121 -0.1576
 1421TIP3    H128458   7.343   3.486   8.968  1.6911 -0.8319  0.3465
 1421TIP3    H228459   7.320   3.572   8.846 -1.1845  1.0382  2.0917
 1422TIP3   OH228460   0.111   4.914   7.196  0.6340  0.1031 -0.5370
 1422TIP3    H128461   0.113   4.890   7.289 -2.2962  0.2406 -0.3655
 1422TIP3    H228462   0.150   5.002   7.194 -1.7847  1.3378  1.0841
 1423TIP3   OH228463   1.704   4.771   7.551 -0.4403  0.3379  0.6777
 1423TIP3    H128464   1.747   4.685   7.548 -0.6529  0.2332  0.6512
 1423TIP3    H228465   1.771   4.832   7.520 -0.0208  0.2916  1.4859
 1424TIP3   OH228466   7.270   1.568   8.767  0.0641 -0.3007 -0.0455
 1424TIP3    H128467   7.338   1.634   8.765 -1.4449  1.4015  1.2942
 1424TIP3    H228468   7.314   1.486   8.744  2.0199  1.1151 -1.6043
 1425TIP3   OH228469   0.953   5.134   7.131  0.5502  0.4016 -0.5287
 1425TIP3    H128470   1.019   5.066   7.147  0.5518  0.6369  0.5842
 1425TIP3    H228471   0.975   5.170   7.045  2.2825  0.9110  0.0862
 1426TIP3   OH228472   1.813   3.371   9.685 -0.1324 -0.2922  0.1626
 1426TIP3    H128473   1.856   3.290   9.712 -2.0022 -1.0482  1.0191
 1426TIP3    H228474   1.730   3.372   9.732 -0.1168  2.2263  0.3229
 1427TIP3   OH228475   2.181   6.350   8.112 -0.7660 -0.1987  0.2523
 1427TIP3    H128476   2.109   6.393   8.158 -0.0022  1.1301  0.2574
 1427TIP3    H228477   2.259   6.377   8.160  0.1278  1.6913 -2.0626
 1428TIP3   OH228478   5.687   4.646   9.251  0.1821 -0.1505  0.0256
 1428TIP3    H128479   5.704   4.561   9.212 -1.9722 -0.0629 -1.2605
 1428TIP3    H228480   5.727   4.709   9.192 -2.7757 -0.0391 -2.0722
 1429TIP3   OH228481   6.471   0.096   8.625 -0.8509  0.0268  0.0911
 1429TIP3    H128482   6.518   0.123   8.704  0.8714 -1.2744 -0.4323
 1429TIP3    H228483   6.534   0.111   8.554 -2.2075  0.7329 -1.0073
 1430TIP3   OH228484   0.343   3.932   9.411 -0.1554  0.3852  0.5528
 1430TIP3    H128485   0.319   4.018   9.446  0.9293  2.0273 -2.3731
 1430TIP3    H228486   0.437   3.940   9.391 -0.3511 -0.9340 -1.0954
 1431TIP3   OH228487   2.133   6.363   8.630  0.1944 -0.4823 -0.2803
 1431TIP3    H128488   2.120   6.363   8.536  0.1216  0.2317 -0.2743
 1431TIP3    H228489   2.061   6.415   8.665  0.1418 -0.8537  0.1835
 1432TIP3   OH228490   4.110   5.760   9.496  0.2938  0.1232 -0.4520
 1432TIP3    H128491   4.070   5.846   9.510 -0.3034 -0.1356 -0.5639
 1432TIP3    H228492   4.173   5.774   9.425  1.6241  0.9025  0.8059
 1433TIP3   OH228493   1.988   5.809   7.776 -0.4956 -0.4288  0.2805
 1433TIP3    H128494   2.061   5.764   7.733  0.9070  0.3728  1.7250
 1433TIP3    H228495   2.026   5.889   7.812 -2.5034  0.9665 -0.4917
 1434TIP3   OH228496   1.693   3.054   7.184  0.3546  0.3708  0.4710
 1434TIP3    H128497   1.683   3.147   7.165  0.2792  0.7842  2.3477
 1434TIP3    H228498   1.710   3.014   7.099 -2.0592  1.7422 -0.7889
 1435TIP3   OH228499   6.480   4.068   7.112  0.0313 -0.6019 -0.5681
 1435TIP3    H128500   6.419   4.126   7.065  1.6388  1.9279  0.2350
 1435TIP3    H228501   6.533   4.128   7.165  1.6193 -2.9049  0.6002
 1436TIP3   OH228502   4.146   6.200   8.873 -0.6731  0.0779  0.4111
 1436TIP3    H128503   4.194   6.201   8.790 -0.3212  0.0266  0.6111
 1436TIP3    H228504   4.098   6.282   8.874 -1.0468 -0.1311 -0.0561
 1437TIP3   OH228505   0.809   6.043   8.286 -0.2590 -0.0838  0.2149
 1437TIP3    H128506   0.851   6.000   8.360  0.1332 -1.3008 -0.6883
 1437TIP3    H228507   0.735   5.987   8.263 -0.5543  0.4317 -0.1256
 1438TIP3   OH228508   3.720   0.255   8.733 -0.1624 -0.0314  0.6414
 1438TIP3    H128509   3.760   0.168   8.739  3.7193  1.3461 -1.9081
 1438TIP3    H228510   3.655   0.246   8.663  1.0316 -0.6879 -0.4325
 1439TIP3   OH228511   5.911   0.624   8.542 -0.2637 -0.3456 -0.8278
 1439TIP3    H128512   5.880   0.666   8.462  1.2961 -0.5936 -1.6082
 1439TIP3    H228513   5.993   0.581   8.516 -0.8483 -2.3227  0.3661
 1440TIP3   OH228514   2.012   6.408   7.014 -0.8167 -0.3148  0.2880
 1440TIP3    H128515   2.090   6.463   7.012 -1.4119  0.5685  0.6524
 1440TIP3    H228516   2.022   6.348   6.940 -0.8990  1.3303 -1.1175
 1441TIP3   OH228517   6.169   1.611   7.526  0.2196  0.8286 -0.0394
 1441TIP3    H128518   6.191   1.546   7.459 -1.0007 -0.3879  0.6829
 1441TIP3    H228519   6.246   1.667   7.531  1.2516 -0.4542 -0.8231
 1442TIP3   OH228520   6.089   1.160   9.220  0.4899  0.1775  0.1212
 1442TIP3    H128521   6.044   1.154   9.305  1.1322  1.0120  0.5411
 1442TIP3    H228522   6.027   1.123   9.157  0.1637 -0.8393  1.0038
 1443TIP3   OH228523   7.208   5.554   8.419 -0.3366  0.4903  0.7544
 1443TIP3    H128524   7.285   5.512   8.380  0.3788  2.7104 -0.4059
 1443TIP3    H228525   7.140   5.546   8.351  0.2926  2.5187 -0.2017
 1444TIP3   OH228526   1.409   3.194   9.355 -0.3090 -0.2928  0.4204
 1444TIP3    H128527   1.324   3.198   9.398  0.1706 -0.4788  1.4201
 1444TIP3    H228528   1.443   3.283   9.358 -0.4585 -0.2252  0.0534
 1445TIP3   OH228529   1.532   2.163   8.797  0.4957 -0.3223 -0.1453
 1445TIP3    H128530   1.513   2.091   8.858  1.6337 -0.3286  0.2190
 1445TIP3    H228531   1.547   2.120   8.713  0.3648 -0.4383 -0.1095
 1446TIP3   OH228532   0.465   4.857   8.669  0.4210  0.0853  0.2459
 1446TIP3    H128533   0.474   4.766   8.640  0.7041 -0.2410  1.3164
 1446TIP3    H228534   0.454   4.907   8.588 -0.5429 -0.9860 -0.3236
 1447TIP3   OH228535   6.267   0.645   9.327 -0.3425 -0.3969  0.1663
 1447TIP3    H128536   6.360   0.653   9.305  0.1306 -2.4408  1.1699
 1447TIP3    H228537   6.264   0.658   9.422 -1.0976 -0.1702  0.1106
 1448TIP3   OH228538   5.568   3.233   8.741  0.1529  0.0582  0.8474
 1448TIP3    H128539   5.575   3.155   8.796 -0.2903  0.0429  0.8795
 1448TIP3    H228540   5.501   3.212   8.677 -2.6223  1.6875  3.0110
 1449TIP3   OH228541   0.607   6.435   9.073  0.3870  0.4050 -0.8568
 1449TIP3    H128542   0.655   6.414   8.993 -0.0680  0.4150 -1.1363
 1449TIP3    H228543   0.564   6.519   9.055 -0.8589 -0.2603 -1.1331
 1450TIP3   OH228544   1.579   5.917   8.291 -0.1371  0.7553 -0.5286
 1450TIP3    H128545   1.650   5.856   8.314 -0.5352 -0.1663 -1.6868
 1450TIP3    H228546   1.532   5.874   8.220 -0.1961  2.5794 -1.6730
 1451TIP3   OH228547   4.405   7.424   8.083 -0.1041 -0.1121 -0.3792
 1451TIP3    H128548   4.439   7.360   8.145 -0.3537  1.7917  1.8891
 1451TIP3    H228549   4.482   7.456   8.037  0.2111 -0.9291 -0.4375
 1452TIP3   OH228550   3.990   0.492   8.639 -0.2049 -0.0797  0.4832
 1452TIP3    H128551   3.999   0.576   8.595  0.7273  0.1512  1.0956
 1452TIP3    H228552   3.995   0.427   8.568  0.4793  0.3199  0.1609
 1453TIP3   OH228553   0.381   0.459   6.866 -0.0507 -0.4304  0.6132
 1453TIP3    H128554   0.371   0.379   6.813 -0.7652 -0.6726  1.1020
 1453TIP3    H228555   0.308   0.514   6.839 -0.0141 -0.2665  0.8538
 1454TIP3   OH228556   7.076   0.366   6.950  0.2795 -0.4900  0.1442
 1454TIP3    H128557   7.038   0.338   7.034 -0.9659 -0.5729 -0.4246
 1454TIP3    H228558   7.016   0.331   6.884  2.8755 -3.2664 -1.0232
 1455TIP3   OH228559   1.232   1.386   9.083  0.1029  0.4647  0.0118
 1455TIP3    H128560   1.150   1.387   9.132 -0.6106  0.9892 -1.1368
 1455TIP3    H228561   1.220   1.454   9.016  0.5761 -0.9774 -1.6018
 1456TIP3   OH228562   5.685   0.529   8.681  0.5492 -0.0307  0.5798
 1456TIP3    H128563   5.726   0.449   8.715  0.9879 -0.0687 -0.0333
 1456TIP3    H228564   5.753   0.570   8.628  0.5090  1.0404  1.3302
 1457TIP3   OH228565   7.112   5.111   9.157 -0.1135  0.6042  0.2996
 1457TIP3    H128566   7.207   5.114   9.164 -0.0607  0.2015 -0.2288
 1457TIP3    H228567   7.092   5.163   9.079 -0.2749  0.0637 -0.0173
 1458TIP3   OH228568   6.147   1.975   9.237 -0.2792  0.5751 -0.1989
 1458TIP3    H128569   6.203   1.899   9.223 -1.4696 -0.1679 -1.1252
 1458TIP3    H228570   6.156   2.027   9.157  0.5297  1.4328  0.4302
 1459TIP3   OH228571   4.013   3.099   8.465 -0.1225 -0.0952 -0.3540
 1459TIP3    H128572   3.995   3.099   8.559  0.8051  1.3362 -0.1358
 1459TIP3    H228573   3.936   3.141   8.426 -0.5762 -0.8265 -0.2682
 1460TIP3   OH228574   5.065   4.740   8.393 -0.5502  0.3123 -0.1456
 1460TIP3    H128575   4.973   4.717   8.382  0.2204 -2.7001 -1.3050
 1460TIP3    H228576   5.079   4.742   8.487 -1.7641  0.6921  0.0377
 1461TIP3   OH228577   3.061   7.482   8.147  1.4716 -0.3064  0.1591
 1461TIP3    H128578   3.132   7.419   8.155  1.1995 -0.6366 -0.0127
 1461TIP3    H228579   3.103   7.562   8.117  1.9909 -0.0529  1.4996
 1462TIP3   OH228580   6.649   4.424   8.741  0.0586  0.1195  0.5722
 1462TIP3    H128581   6.652   4.462   8.828 -0.4429  0.1818  0.5617
 1462TIP3    H228582   6.558   4.396   8.729 -0.7492  3.0222 -1.1410
 1463TIP3   OH228583   3.533   5.663   7.991 -0.0038 -0.0293  0.0134
 1463TIP3    H128584   3.599   5.715   7.945  0.0384  0.2306  0.3618
 1463TIP3    H228585   3.581   5.585   8.021  0.2019  0.2654  0.4613
 1464TIP3   OH228586   1.828   5.004   7.452  0.5148  0.1818  0.2814
 1464TIP3    H128587   1.843   5.082   7.505  0.9701 -0.3681  0.9824
 1464TIP3    H228588   1.734   5.004   7.434  0.4583  0.6977  0.5749
 1465TIP3   OH228589   2.710   0.991   8.351 -0.3740  0.6326 -0.1527
 1465TIP3    H128590   2.758   0.931   8.408  3.2466  1.6750 -1.8390
 1465TIP3    H228591   2.719   0.953   8.263 -4.0235  0.1609 -0.4718
 1466TIP3   OH228592   4.907   1.663   7.760  0.1084  0.3596  0.2059
 1466TIP3    H128593   4.819   1.680   7.727  0.6549 -0.5161 -1.8499
 1466TIP3    H228594   4.937   1.748   7.792 -1.6768  0.5481  1.5828
 1467TIP3   OH228595   0.327   0.070   7.534  0.0642 -0.1851  0.3565
 1467TIP3    H128596   0.306  -0.021   7.553  0.6162 -0.4711 -0.3400
 1467TIP3    H228597   0.243   0.111   7.513 -0.0987 -0.7293 -0.0943
 1468TIP3   OH228598   6.389   5.100   7.201 -0.0950 -0.1011  0.1023
 1468TIP3    H128599   6.414   5.133   7.115 -0.3498 -0.2142 -0.0161
 1468TIP3    H228600   6.341   5.019   7.182 -0.6643  0.1847  0.3208
 1469TIP3   OH228601   6.218   2.360   9.612  0.0262  0.0275 -0.5681
 1469TIP3    H128602   6.309   2.367   9.640 -0.4037 -0.7619  1.1333
 1469TIP3    H228603   6.214   2.277   9.564 -0.2451 -1.1996  1.4450
 1470TIP3   OH228604   5.628   0.233   8.970  0.2046  0.1814  0.1806
 1470TIP3    H128605   5.596   0.149   9.003  1.6788  0.1818  1.7187
 1470TIP3    H228606   5.694   0.210   8.905  0.6660  0.1197  0.6595
 1471TIP3   OH228607   1.064   3.889   9.228 -0.3324 -0.1272 -0.1804
 1471TIP3    H128608   1.107   3.861   9.147  1.8705  0.7828  0.6289
 1471TIP3    H228609   1.094   3.979   9.242  0.7980 -0.8300  2.5552
 1472TIP3   OH228610   6.876   5.819   8.141 -0.0310 -0.1749  0.2506
 1472TIP3    H128611   6.836   5.733   8.129 -1.2604  0.5604 -1.3737
 1472TIP3    H228612   6.968   5.806   8.117 -0.2857 -0.9803 -0.3366
 1473TIP3   OH228613   1.623   6.667   7.290  0.2606 -0.0565  0.7688
 1473TIP3    H128614   1.685   6.729   7.329 -0.1779  0.9120 -0.0516
 1473TIP3    H228615   1.542   6.682   7.338  0.0281  0.3316  0.2538
 1474TIP3   OH228616   5.933   0.469   7.863 -0.0272 -0.3387 -0.1056
 1474TIP3    H128617   5.974   0.389   7.832  0.9021  0.0417  0.1281
 1474TIP3    H228618   5.987   0.498   7.937 -0.8133  0.0744  0.3276
 1475TIP3   OH228619   5.450   6.156   8.733  0.1276  0.1444  0.0102
 1475TIP3    H128620   5.474   6.188   8.820  1.6760  2.5288 -1.1805
 1475TIP3    H228621   5.477   6.226   8.674  1.3094 -2.3642 -2.6532
 1476TIP3   OH228622   6.707   7.637   8.070  0.1302 -0.3899 -0.4265
 1476TIP3    H128623   6.783   7.696   8.069 -0.7789  0.8154 -0.3778
 1476TIP3    H228624   6.635   7.691   8.103 -0.8529 -1.3912 -0.8700
 1477TIP3   OH228625   5.579   2.785   9.457  0.3996 -0.3249 -0.0778
 1477TIP3    H128626   5.619   2.698   9.458 -2.5103 -1.8611 -1.8244
 1477TIP3    H228627   5.492   2.772   9.497  0.5779  2.2467  1.3246
 1478TIP3   OH228628   1.648   6.438   9.271  0.1911 -0.2486  0.1524
 1478TIP3    H128629   1.701   6.389   9.333  1.5393 -0.5499 -1.1904
 1478TIP3    H228630   1.710   6.492   9.222 -0.5137 -1.3974 -2.1952
 1479TIP3   OH228631   5.959   6.084   9.052  1.1924  0.4765 -0.2273
 1479TIP3    H128632   6.027   6.017   9.046 -0.9808 -1.8744 -0.2593
 1479TIP3    H228633   5.906   6.072   8.973  1.3307  3.0143 -0.7985
 1480TIP3   OH228634   7.594   7.229   7.781 -0.1611 -0.0735  0.2341
 1480TIP3    H128635   7.651   7.200   7.853  0.3818 -1.5104 -0.7413
 1480TIP3    H228636   7.654   7.244   7.708 -0.8578  0.1330 -0.2995
 1481TIP3   OH228637   5.342   6.647   8.912 -0.1106  0.3202  0.3173
 1481TIP3    H128638   5.300   6.703   8.978  1.4951  3.7796 -1.3345
 1481TIP3    H228639   5.431   6.682   8.904  0.0731 -0.5374 -2.9790
 1482TIP3   OH228640   0.704   3.128   6.992 -0.3961  0.3517  0.2508
 1482TIP3    H128641   0.608   3.134   6.993 -0.3783  1.1748 -0.9749
 1482TIP3    H228642   0.734   3.217   7.007  0.1872  0.1432  0.3514
 1483TIP3   OH228643   4.971   1.214   8.764  0.4698  0.3927  0.7666
 1483TIP3    H128644   5.022   1.134   8.779 -1.3274 -0.9989 -0.1561
 1483TIP3    H228645   5.011   1.252   8.685  0.3205 -0.5156  0.2263
 1484TIP3   OH228646   0.110   0.173   7.439 -0.4364  0.1274 -0.0490
 1484TIP3    H128647   0.082   0.264   7.444  0.8373  0.5251  0.1803
 1484TIP3    H228648   0.069   0.139   7.359  0.0501  1.2547 -0.7951
 1485TIP3   OH228649   1.368   3.967   9.370 -0.2304 -0.2704  0.1466
 1485TIP3    H128650   1.351   3.915   9.449  1.8611 -0.3660  0.6041
 1485TIP3    H228651   1.415   3.907   9.312  0.0906  0.4049 -0.3024
 1486TIP3   OH228652   7.326   5.596   7.797 -0.4893 -0.4767  0.0727
 1486TIP3    H128653   7.330   5.524   7.860  1.6363  0.6470  1.3094
 1486TIP3    H228654   7.417   5.614   7.773 -1.1302  0.1173 -2.2311
 1487TIP3   OH228655   4.752   1.935   8.011 -0.0511 -0.3380 -0.4343
 1487TIP3    H128656   4.815   1.929   7.940  0.1426  1.1667 -0.4271
 1487TIP3    H228657   4.745   2.029   8.029 -0.3458 -0.6547  1.3018
 1488TIP3   OH228658   6.541   6.654   9.038 -0.0974 -0.0897  0.0633
 1488TIP3    H128659   6.608   6.612   9.092 -0.5822 -0.3026  0.5088
 1488TIP3    H228660   6.459   6.633   9.083 -0.3471  1.3766  0.3149
 1489TIP3   OH228661   6.632   4.138   8.975  0.0387  0.0751 -0.4864
 1489TIP3    H128662   6.668   4.221   9.006 -2.5167  0.9888  0.2914
 1489TIP3    H228663   6.540   4.140   9.001 -0.3378 -2.6330 -1.2387
 1490TIP3   OH228664   1.281   3.125   9.977 -0.6472 -0.1945 -0.7605
 1490TIP3    H128665   1.347   3.169  10.030  0.4077 -2.1897 -0.3191
 1490TIP3    H228666   1.257   3.189   9.910  1.4298  0.7399 -0.6793
 1491TIP3   OH228667   5.757   7.195   7.611  0.1334  0.1132  0.1338
 1491TIP3    H128668   5.715   7.258   7.553 -1.0053 -0.6538  0.1081
 1491TIP3    H228669   5.685   7.146   7.650  1.0057 -1.3307 -0.0153
 1492TIP3   OH228670   1.401   6.341   7.911 -0.6333  0.0427 -0.0548
 1492TIP3    H128671   1.384   6.391   7.991  0.9656  0.0064  0.3364
 1492TIP3    H228672   1.375   6.252   7.932 -0.5943  0.1132  0.2973
 1493TIP3   OH228673   1.364   0.013   7.605  0.6281  0.6650 -0.5723
 1493TIP3    H128674   1.286  -0.013   7.654  0.8518 -0.2290 -0.6736
 1493TIP3    H228675   1.431   0.028   7.672  0.1124  2.4991 -0.3958
 1494TIP3   OH228676   3.413   6.611   7.780 -0.0508 -0.0371 -0.8984
 1494TIP3    H128677   3.483   6.546   7.777 -0.2259 -0.2795 -0.1139
 1494TIP3    H228678   3.457   6.693   7.803 -0.3679 -0.8828  3.5871
 1495TIP3   OH228679   2.551   2.087   9.443 -0.5706 -0.8971 -0.7591
 1495TIP3    H128680   2.486   2.091   9.513  0.0006  0.0549 -0.2738
 1495TIP3    H228681   2.624   2.037   9.481  0.2433  0.6290 -0.2240
 1496TIP3   OH228682   0.546   1.280   8.612 -0.3800  0.2895 -0.5536
 1496TIP3    H128683   0.596   1.205   8.582 -0.7306 -0.7754  1.3424
 1496TIP3    H228684   0.467   1.279   8.559  0.2469  0.1949 -1.5153
 1497TIP3   OH228685   0.287   5.148   9.169 -0.3841 -0.1119  0.4490
 1497TIP3    H128686   0.288   5.119   9.078  0.6440  0.6797  0.1828
 1497TIP3    H228687   0.376   5.182   9.184  0.2568 -2.4662  2.4958
 1498TIP3   OH228688   5.311   1.144   7.437 -0.4411 -0.0339 -0.1808
 1498TIP3    H128689   5.351   1.136   7.523 -0.7985  0.1737  0.0053
 1498TIP3    H228690   5.353   1.076   7.385  0.0315  0.0680  0.0569
 1499TIP3   OH228691   7.315   1.387   9.511 -0.4549 -0.0808 -0.0353
 1499TIP3    H128692   7.384   1.453   9.515  0.8333 -1.4151  0.7601
 1499TIP3    H228693   7.361   1.305   9.493 -2.0795 -0.6927 -1.8204
 1500TIP3   OH228694   6.419   2.789   9.249 -0.3177  0.2294 -0.0576
 1500TIP3    H128695   6.406   2.872   9.202  1.2227  0.2146 -0.5637
 1500TIP3    H228696   6.343   2.782   9.306 -1.2455  1.2383 -1.1048
 1501TIP3   OH228697   3.952   7.335   7.988 -0.1060  0.1264 -0.1280
 1501TIP3    H128698   3.898   7.267   8.029  0.8359 -0.4204  0.2331
 1501TIP3    H228699   4.002   7.289   7.922  2.0745  0.0114  1.4916
 1502TIP3   OH228700   7.342   2.268   7.574 -0.2364  0.0268 -0.2868
 1502TIP3    H128701   7.314   2.355   7.545 -1.3868 -0.6929 -1.4659
 1502TIP3    H228702   7.369   2.280   7.665  0.9991  1.8806 -0.8528
 1503TIP3   OH228703   3.644   5.308   9.208 -0.1323  0.0307  0.3027
 1503TIP3    H128704   3.656   5.239   9.273  1.4864 -0.0509 -0.0478
 1503TIP3    H228705   3.714   5.370   9.225 -0.8324  0.9845 -0.1758
 1504TIP3   OH228706   3.119   0.813   9.143  0.2428  0.2290  0.2247
 1504TIP3    H128707   3.093   0.758   9.217 -0.2293  2.4023  1.7725
 1504TIP3    H228708   3.037   0.847   9.107  0.5180 -0.1186 -0.7774
 1505TIP3   OH228709   7.329   4.127   9.573 -0.9107  0.2106  0.4869
 1505TIP3    H128710   7.256   4.134   9.512 -1.0958 -1.6494  0.4301
 1505TIP3    H228711   7.378   4.051   9.541  1.1356  1.4711  0.4474
 1506TIP3   OH228712   1.530   3.360   9.727 -0.4977  0.6570  0.3698
 1506TIP3    H128713   1.462   3.305   9.689  0.3541 -1.5965  1.8797
 1506TIP3    H228714   1.489   3.445   9.739 -2.1185  0.1807 -1.3877
 1507TIP3   OH228715   5.352   2.892   7.394  0.1924 -0.4800 -0.5895
 1507TIP3    H128716   5.287   2.906   7.464  0.6326  3.2330 -0.7306
 1507TIP3    H228717   5.437   2.898   7.438  0.5000 -1.6364 -0.9770
 1508TIP3   OH228718   7.502   0.771   7.354 -0.0241  0.1671  0.9210
 1508TIP3    H128719   7.572   0.800   7.412 -0.8545  0.6863  1.6878
 1508TIP3    H228720   7.483   0.847   7.300  0.5595 -0.2314  0.1419
 1509TIP3   OH228721   1.562   3.340   7.291 -0.2559 -0.1565 -0.3359
 1509TIP3    H128722   1.473   3.346   7.258  0.2549  1.7782 -1.5059
 1509TIP3    H228723   1.617   3.333   7.213  0.6174 -2.6312  0.3816
 1510TIP3   OH228724   1.577   5.940   9.455  0.0882  0.2851  0.6084
 1510TIP3    H128725   1.612   5.931   9.366  0.2591  0.2883  0.6761
 1510TIP3    H228726   1.484   5.920   9.446  0.0953  0.3369  0.4189
 1511TIP3   OH228727   2.364   6.263   9.202 -0.3787 -0.2383  0.1883
 1511TIP3    H128728   2.315   6.345   9.194 -0.4087 -0.2568  0.1806
 1511TIP3    H228729   2.301   6.202   9.239 -0.1478 -0.0665  0.8747
 1512TIP3   OH228730   0.951   5.338   7.490  0.1247  0.0954  0.2444
 1512TIP3    H128731   0.880   5.313   7.430  0.7110 -0.7303 -0.1167
 1512TIP3    H228732   1.031   5.316   7.443  0.6464  1.4175  0.4757
 1513TIP3   OH228733   5.029   5.861   8.935  0.0148 -0.1371  0.0880
 1513TIP3    H128734   5.073   5.933   8.891  2.0707 -1.6215 -0.4661
 1513TIP3    H228735   4.997   5.898   9.017  2.2093  1.1153  0.4490
 1514TIP3   OH228736   4.388   4.024   9.213  0.2369  0.2250 -0.1616
 1514TIP3    H128737   4.315   4.065   9.166 -0.4313  0.4719  1.0452
 1514TIP3    H228738   4.377   4.053   9.304 -0.2541 -2.5496  0.7815
 1515TIP3   OH228739   1.123   4.626   7.624  0.6218  0.2931  0.1558
 1515TIP3    H128740   1.038   4.583   7.613  0.9412 -0.1783 -0.5343
 1515TIP3    H228741   1.106   4.698   7.686  0.4140 -1.7878  2.6712
 1516TIP3   OH228742   5.991   1.783   7.652 -0.0432  0.2676  0.3836
 1516TIP3    H128743   6.051   1.809   7.722 -0.8429  1.6615  0.5949
 1516TIP3    H228744   6.043   1.725   7.596  1.2312  0.7573  1.0170
 1517TIP3   OH228745   5.919   1.298   7.431  0.6120  0.4501  0.4459
 1517TIP3    H128746   5.956   1.262   7.512 -0.4191  1.1875  1.2908
 1517TIP3    H228747   5.935   1.232   7.365  0.4993 -0.6768  1.5103
 1518TIP3   OH228748   0.131   7.227   7.920 -0.1071 -0.3795  0.0527
 1518TIP3    H128749   0.206   7.278   7.889 -0.8265  0.7274  0.0616
 1518TIP3    H228750   0.170   7.154   7.967  0.9744  0.0642 -0.1104
 1519TIP3   OH228751   2.548   7.041   8.907  0.1954 -0.6887 -0.3053
 1519TIP3    H128752   2.578   7.109   8.969 -0.9090 -0.1513 -0.3356
 1519TIP3    H228753   2.490   7.088   8.847  1.5087 -1.1244 -2.0033
 1520TIP3   OH228754   5.632   2.487   8.172 -0.2759  0.2666  0.3654
 1520TIP3    H128755   5.677   2.403   8.171 -1.2284 -0.2724 -1.1841
 1520TIP3    H228756   5.630   2.514   8.080 -2.6047  0.5239  0.4406
 1521TIP3   OH228757   5.078   0.789   9.128  0.2097  0.9907  0.3891
 1521TIP3    H128758   5.140   0.715   9.127  0.4617  1.1641 -1.9717
 1521TIP3    H228759   5.041   0.787   9.216  0.2966 -1.8860  0.4671
 1522TIP3   OH228760   6.268   2.691   8.914 -0.2252  0.0917  0.2811
 1522TIP3    H128761   6.217   2.746   8.974  2.8657  1.6310  1.7367
 1522TIP3    H228762   6.251   2.729   8.827 -2.0353  0.0778  0.5889
 1523TIP3   OH228763   3.687   4.034   8.894  0.5617  0.0279  0.3117
 1523TIP3    H128764   3.687   3.940   8.875  0.9508 -0.2026  1.3886
 1523TIP3    H228765   3.603   4.050   8.938 -0.3824  0.5796 -1.5729
 1524TIP3   OH228766   7.155   5.332   8.938 -0.4642  0.0596  0.0291
 1524TIP3    H128767   7.107   5.287   8.868 -0.1591  0.1826 -0.2613
 1524TIP3    H228768   7.221   5.385   8.892  0.1550 -0.3446  0.4305
 1525TIP3   OH228769   4.422   1.406   9.447 -0.1015 -0.2824 -0.0745
 1525TIP3    H128770   4.332   1.436   9.432  0.7162  1.4216 -2.2378
 1525TIP3    H228771   4.446   1.362   9.365  1.8600  1.7183 -0.6702
 1526TIP3   OH228772   6.770   5.676   8.432 -0.5903 -0.4541 -0.5472
 1526TIP3    H128773   6.709   5.606   8.412 -1.5341  0.3992 -0.7232
 1526TIP3    H228774   6.853   5.647   8.393 -1.3553 -0.7448 -2.0336
 1527TIP3   OH228775   5.113   0.277   8.493 -0.1667 -0.1354  0.0376
 1527TIP3    H128776   5.042   0.216   8.475 -0.3214 -0.3800  1.3242
 1527TIP3    H228777   5.127   0.270   8.588  0.8470  0.7007 -0.0250
 1528TIP3   OH228778   1.664   7.656   8.382 -0.4850  0.6441  0.6302
 1528TIP3    H128779   1.640   7.672   8.473 -0.1468 -2.2101  1.2966
 1528TIP3    H228780   1.759   7.652   8.382 -0.4961  0.2681  0.2142
 1529TIP3   OH228781   7.095   0.188   9.354  0.1323 -0.6406 -0.4734
 1529TIP3    H128782   7.066   0.104   9.319 -0.9005 -0.7292  0.5358
 1529TIP3    H228783   7.105   0.173   9.448 -1.9557  0.8130  0.0574
 1530TIP3   OH228784   6.675   6.959   8.638  0.3480  0.6174  0.1443
 1530TIP3    H128785   6.751   7.016   8.630 -0.7689  2.7153  2.8632
 1530TIP3    H228786   6.681   6.923   8.727  0.1026 -2.2901 -0.9044
 1531TIP3   OH228787   2.780   4.249   9.253 -0.0271  0.2744 -0.1623
 1531TIP3    H128788   2.755   4.280   9.340  0.3029  1.5059 -0.4887
 1531TIP3    H228789   2.756   4.320   9.194  0.8985 -0.0213 -0.9213
 1532TIP3   OH228790   4.619   5.767   6.907  0.0795 -0.7318 -0.3518
 1532TIP3    H128791   4.656   5.698   6.852  0.8790 -1.0102  0.5246
 1532TIP3    H228792   4.656   5.752   6.994 -0.0779  0.5374 -0.0439
 1533TIP3   OH228793   7.535   5.213   8.226 -0.1764  0.3956  0.1799
 1533TIP3    H128794   7.469   5.163   8.179  0.5312  0.1558 -0.5828
 1533TIP3    H228795   7.606   5.151   8.243  0.2685  0.8773  0.1332
 1534TIP3   OH228796   3.394   4.905   8.925 -0.3004 -0.3471  0.2121
 1534TIP3    H128797   3.464   4.943   8.977 -0.5580  0.3599  0.0549
 1534TIP3    H228798   3.438   4.845   8.864  0.2379  0.6188 -0.3626
 1535TIP3   OH228799   5.969   4.538   9.593  0.8579 -0.9408 -0.1778
 1535TIP3    H128800   5.925   4.598   9.534 -1.1887 -1.0145  1.1809
 1535TIP3    H228801   5.958   4.452   9.553  2.1950 -0.6720 -1.1944
 1536TIP3   OH228802   1.798   1.204   8.111  0.2043  0.1405  0.2726
 1536TIP3    H128803   1.792   1.155   8.193 -0.5334  1.0454  0.7738
 1536TIP3    H228804   1.709   1.205   8.076  0.4082  0.2362 -0.2601
 1537TIP3   OH228805   4.971   7.094   7.794 -0.0304  0.6148  0.1123
 1537TIP3    H128806   5.043   7.088   7.857 -1.1533  0.3871  1.4255
 1537TIP3    H228807   4.898   7.049   7.836  0.0067 -2.4121 -2.6614
 1538TIP3   OH228808   6.984   7.085   8.081 -0.3780  0.2332 -0.5845
 1538TIP3    H128809   6.950   7.042   8.003  1.7498  1.0049 -2.0306
 1538TIP3    H228810   7.059   7.032   8.108 -0.1882  0.7999  0.0396
 1539TIP3   OH228811   6.676   3.468   7.595 -0.4877 -0.5063  0.3884
 1539TIP3    H128812   6.766   3.492   7.571 -1.0685  0.6974 -0.6514
 1539TIP3    H228813   6.649   3.406   7.527 -0.7272 -0.2560  0.2590
 1540TIP3   OH228814   2.275   4.591   7.795  0.2140 -0.1427  0.5798
 1540TIP3    H128815   2.264   4.617   7.703 -2.2719  1.1945  1.1908
 1540TIP3    H228816   2.229   4.507   7.801  1.5300 -0.9157  0.3638
 1541TIP3   OH228817   6.756   3.873   7.696 -0.7601  0.0748 -0.0654
 1541TIP3    H128818   6.728   3.874   7.787 -0.5181 -0.2583  0.0117
 1541TIP3    H228819   6.823   3.805   7.691 -3.5889 -2.8946 -1.2884
 1542TIP3   OH228820   5.483   0.011   8.531 -0.3553 -0.1640 -0.0285
 1542TIP3    H128821   5.545   0.027   8.460  0.5155 -0.5994  0.6107
 1542TIP3    H228822   5.465   0.097   8.567  0.9288 -0.1432  0.6200
 1543TIP3   OH228823   2.862   0.825   8.534  0.5241  0.0329  0.5135
 1543TIP3    H128824   2.835   0.769   8.461 -0.5951 -0.3664  1.2111
 1543TIP3    H228825   2.923   0.771   8.584  0.5939 -0.0120  0.3833
 1544TIP3   OH228826   6.600   3.439   9.025 -0.2370  0.4174  0.4786
 1544TIP3    H128827   6.518   3.473   8.990  0.1229  0.5251 -0.2677
 1544TIP3    H228828   6.573   3.371   9.087 -0.8542 -0.3458 -0.5954
 1545TIP3   OH228829   4.091   4.452   8.245 -0.3856 -0.0645 -0.1021
 1545TIP3    H128830   4.159   4.385   8.235 -0.2996 -0.2212  1.3139
 1545TIP3    H228831   4.094   4.502   8.164  1.7660  0.2502  0.1227
 1546TIP3   OH228832   4.588   3.330   8.142  0.1923  0.0712  0.1583
 1546TIP3    H128833   4.679   3.321   8.113  0.0599 -2.4195  0.2676
 1546TIP3    H228834   4.554   3.241   8.140 -2.1949  0.9162  0.3804
 1547TIP3   OH228835   3.219   2.147   7.752 -0.3930 -0.0668 -0.6593
 1547TIP3    H128836   3.253   2.232   7.726 -1.8739  0.6632 -0.2974
 1547TIP3    H228837   3.279   2.084   7.712  1.0869  1.1282 -0.4264
 1548TIP3   OH228838   5.211   3.664   8.446 -0.4056  0.0312  0.8251
 1548TIP3    H128839   5.179   3.635   8.361  2.2546  0.8300 -0.5710
 1548TIP3    H228840   5.152   3.734   8.473 -0.7834  0.3513 -0.7910
 1549TIP3   OH228841   5.147   2.133   7.898 -0.0833 -0.2522  0.2374
 1549TIP3    H128842   5.098   2.213   7.886 -2.4200 -1.3424  1.8316
 1549TIP3    H228843   5.231   2.149   7.854 -0.8491  2.6334 -0.3383
 1550TIP3   OH228844   7.386   6.966   9.013  0.1442 -0.5963  0.2038
 1550TIP3    H128845   7.339   6.911   8.951 -0.2906  0.6453 -0.5994
 1550TIP3    H228846   7.408   6.907   9.085 -3.3704 -1.0795  1.0617
 1551TIP3   OH228847   4.701   5.999   7.853  0.6331  0.5181 -0.5569
 1551TIP3    H128848   4.646   5.979   7.929 -1.3113  0.0944 -1.9865
 1551TIP3    H228849   4.661   6.077   7.815  1.3485  0.5016 -1.3640
 1552TIP3   OH228850   6.309   0.664   7.987  0.2174 -0.0811 -0.0938
 1552TIP3    H128851   6.254   0.588   8.010  0.6083 -0.8339 -1.5526
 1552TIP3    H228852   6.399   0.630   7.992  0.4637  0.6334  0.4407
 1553TIP3   OH228853   4.468   3.302   8.434 -0.6430  0.2540  0.2927
 1553TIP3    H128854   4.520   3.344   8.364  0.5295 -0.1350  0.9010
 1553TIP3    H228855   4.454   3.372   8.498  0.7960 -0.0934  1.0239
 1554TIP3   OH228856   6.961   1.216   9.747 -0.0059 -0.2122 -0.3860
 1554TIP3    H128857   6.990   1.206   9.657 -1.0400 -0.1684 -0.7387
 1554TIP3    H228858   7.039   1.243   9.795  0.3874  0.4906 -1.4000
 1555TIP3   OH228859   6.368   1.806   7.578  0.3506 -0.2920  0.2058
 1555TIP3    H128860   6.458   1.801   7.545  0.2715 -2.3768  0.1945
 1555TIP3    H228861   6.379   1.823   7.672  0.8363 -1.4705  0.3934
 1556TIP3   OH228862   4.218   3.234   8.710  0.2349  0.3158  0.1065
 1556TIP3    H128863   4.228   3.141   8.694 -1.7292  0.2243 -0.8928
 1556TIP3    H228864   4.276   3.276   8.646  0.2199 -0.1881 -0.2394
 1557TIP3   OH228865   2.363   4.368   8.812  0.4295 -0.3233  0.2829
 1557TIP3    H128866   2.333   4.441   8.866  0.0598 -0.2507 -0.0126
 1557TIP3    H228867   2.437   4.402   8.763  1.5566 -0.7451  1.6338
 1558TIP3   OH228868   6.257   7.234   7.784  0.2578  0.3710 -0.5650
 1558TIP3    H128869   6.281   7.322   7.813 -2.1621  1.1033 -0.6138
 1558TIP3    H228870   6.325   7.211   7.720  3.1840  0.5245  2.1972
 1559TIP3   OH228871   2.717   3.400   9.562  0.4855 -0.0679 -0.2464
 1559TIP3    H128872   2.675   3.455   9.496  1.1663  1.5036  0.5897
 1559TIP3    H228873   2.653   3.393   9.632  0.2701 -0.6439 -0.4944
 1560TIP3   OH228874   4.784   1.537   8.297  0.0060  0.2269  0.1964
 1560TIP3    H128875   4.869   1.580   8.311 -0.7362  1.7566  0.2501
 1560TIP3    H228876   4.732   1.564   8.373 -0.3733 -1.1592  0.4531
 1561TIP3   OH228877   3.939   7.127   7.769  0.5845 -0.2257 -0.2684
 1561TIP3    H128878   3.852   7.117   7.730  1.4916  1.8386 -3.1471
 1561TIP3    H228879   3.992   7.060   7.725  0.7693 -0.5968  0.5042
 1562TIP3   OH228880   6.822   7.575   6.505  0.4184 -0.2756  0.1046
 1562TIP3    H128881   6.788   7.612   6.587 -1.0251  1.2157 -1.1060
 1562TIP3    H228882   6.745   7.565   6.450  1.5393  0.1112 -1.5923
 1563TIP3   OH228883   4.936   6.673   7.059  0.6613 -0.2461 -0.1137
 1563TIP3    H128884   4.989   6.620   7.000 -0.3319 -0.1205 -1.1354
 1563TIP3    H228885   4.901   6.611   7.122  0.4482 -0.6217 -0.6024
 1564TIP3   OH228886   1.812   3.431   9.237  0.0458  0.0478  0.1726
 1564TIP3    H128887   1.823   3.349   9.188 -1.1547  0.7289 -1.3321
 1564TIP3    H228888   1.757   3.406   9.312 -1.3761 -0.3536 -0.9413
 1565TIP3   OH228889   1.696   3.152   9.208  0.0585 -0.1001  0.1619
 1565TIP3    H128890   1.659   3.148   9.296 -0.0132 -2.5674  0.0839
 1565TIP3    H228891   1.790   3.161   9.222  0.4032 -3.3379  0.6702
 1566TIP3   OH228892   0.363   6.192   8.572 -0.2215  0.2402  0.5951
 1566TIP3    H128893   0.409   6.118   8.533  0.2388  0.2749  1.0488
 1566TIP3    H228894   0.278   6.195   8.528  0.5336  0.7031 -0.8853
 1567TIP3   OH228895   3.786   4.842   7.130 -0.1104 -0.5157  0.4436
 1567TIP3    H128896   3.712   4.836   7.071  0.5555 -2.8082 -0.2568
 1567TIP3    H228897   3.780   4.764   7.185  1.8661 -0.8688  0.2333
 1568TIP3   OH228898   1.012   5.648   8.936  0.3539 -0.3063  0.3349
 1568TIP3    H128899   1.029   5.737   8.904  2.3321 -1.2141 -1.3469
 1568TIP3    H228900   1.029   5.653   9.030  1.9956  0.7711  0.0178
 1569TIP3   OH228901   2.865   3.230   8.494 -0.4371  0.2025  0.1995
 1569TIP3    H128902   2.881   3.155   8.437  2.6082 -0.1964  1.3873
 1569TIP3    H228903   2.916   3.211   8.574 -1.4314  2.4782  1.4742
 1570TIP3   OH228904   0.391   6.593   7.680 -0.0803 -0.2516 -0.0131
 1570TIP3    H128905   0.306   6.556   7.656  0.3678 -1.8711  0.7941
 1570TIP3    H228906   0.407   6.562   7.769  1.3709 -0.0031 -0.1602
 1571TIP3   OH228907   1.649   3.717   9.004 -0.3254  0.0925  0.0324
 1571TIP3    H128908   1.716   3.684   9.063 -2.1062 -1.8907  1.1059
 1571TIP3    H228909   1.687   3.709   8.917  1.0439 -0.4054  0.6448
 1572TIP3   OH228910   4.435   7.356   9.298  0.1053 -0.3828  0.0376
 1572TIP3    H128911   4.432   7.451   9.306 -0.7754 -0.2310 -1.6211
 1572TIP3    H228912   4.379   7.325   9.370  0.0070  0.3678  0.2999
 1573TIP3   OH228913   2.460   1.275   7.913 -0.4145 -0.2434  0.2587
 1573TIP3    H128914   2.545   1.255   7.952 -0.3521 -1.4539 -0.4281
 1573TIP3    H228915   2.470   1.364   7.879  0.4894 -0.2651  0.4267
 1574TIP3   OH228916   0.754   6.943   8.880  0.4953 -0.0459  0.5698
 1574TIP3    H128917   0.670   6.988   8.877  0.2305 -0.5706 -0.3467
 1574TIP3    H228918   0.816   7.009   8.911  0.2135  1.0802 -1.1520
 1575TIP3   OH228919   2.392   2.045   7.398  0.7963 -0.2579  0.0727
 1575TIP3    H128920   2.297   2.055   7.403  0.7370 -0.4871 -0.6153
 1575TIP3    H228921   2.412   2.051   7.305  1.4647 -0.1448  0.2235
 1576TIP3   OH228922   1.941   6.826   8.817  0.4630  0.2359  0.2501
 1576TIP3    H128923   2.031   6.797   8.833  0.7332 -0.5360 -2.2941
 1576TIP3    H228924   1.944   6.920   8.830  1.9230  0.3782 -0.8715
 1577TIP3   OH228925   3.465   2.037   7.412  0.0133 -0.3756  0.2347
 1577TIP3    H128926   3.442   2.125   7.383  0.5535 -0.9420 -2.0852
 1577TIP3    H228927   3.501   1.994   7.334 -1.4083 -3.0634  0.9274
 1578TIP3   OH228928   5.832   2.924   9.227  0.3572  0.3875  0.0209
 1578TIP3    H128929   5.908   2.983   9.236  0.2952  0.2815  1.5957
 1578TIP3    H228930   5.792   2.925   9.314  0.7139 -2.4752  0.3006
 1579TIP3   OH228931   5.255   4.318   8.324  0.2989 -0.2336 -0.2198
 1579TIP3    H128932   5.273   4.224   8.330  0.6849 -0.1671 -0.3007
 1579TIP3    H228933   5.175   4.324   8.271  1.6080 -0.4080 -2.3097
 1580TIP3   OH228934   6.838   3.954   7.314 -0.2832 -0.1786  0.8130
 1580TIP3    H128935   6.767   3.929   7.255 -0.0975 -2.6922  1.5469
 1580TIP3    H228936   6.807   3.931   7.401  0.7930  0.1952  1.3176
 1581TIP3   OH228937   1.241   2.985   7.989 -0.1655 -0.3966  0.0429
 1581TIP3    H128938   1.187   3.000   8.066 -0.0581 -0.5191  0.1431
 1581TIP3    H228939   1.268   2.893   7.996  0.9155 -0.0611  0.5402
 1582TIP3   OH228940   1.759   2.428   8.622 -0.2619  0.1347 -0.0263
 1582TIP3    H128941   1.694   2.389   8.681 -1.2622  0.8753 -0.6020
 1582TIP3    H228942   1.802   2.354   8.581 -0.9021 -0.3783  0.2139
 1583TIP3   OH228943   5.186   2.817   9.318 -0.1635 -0.0449 -0.3109
 1583TIP3    H128944   5.245   2.889   9.298 -0.6932  0.6586  0.6245
 1583TIP3    H228945   5.214   2.786   9.404 -0.9028  0.0324 -0.0414
 1584TIP3   OH228946   1.800   1.486   9.562 -0.2162  0.0962  0.6661
 1584TIP3    H128947   1.723   1.438   9.593  0.3975 -1.6223 -0.3289
 1584TIP3    H228948   1.790   1.490   9.467  1.7250 -1.7614  0.2986
 1585TIP3   OH228949   5.933   5.935   7.970  0.1997 -0.2941 -0.4742
 1585TIP3    H128950   5.881   5.863   8.006 -0.8603  1.2403  1.2702
 1585TIP3    H228951   5.877   5.975   7.904 -0.2160  0.3855  0.2767
 1586TIP3   OH228952   1.844   5.172   8.491  0.8877 -0.1401 -0.5109
 1586TIP3    H128953   1.907   5.231   8.532 -0.2166 -0.1636  1.3405
 1586TIP3    H228954   1.852   5.091   8.540 -0.6327 -0.0997 -0.1378
 1587TIP3   OH228955   6.899   6.584   8.295  0.2223  0.1559 -0.3443
 1587TIP3    H128956   6.838   6.649   8.330  0.1289  0.5457 -1.1951
 1587TIP3    H228957   6.845   6.528   8.239  0.7979  1.1944 -2.0197
 1588TIP3   OH228958   7.311   7.502   7.459  0.1114  0.2701  0.0303
 1588TIP3    H128959   7.229   7.472   7.419  0.8926 -0.0064 -1.4078
 1588TIP3    H228960   7.339   7.427   7.513  0.5869 -0.5391 -1.2994
 1589TIP3   OH228961   0.716   4.269   8.722  0.1376 -0.4875  0.2667
 1589TIP3    H128962   0.751   4.279   8.810  2.0130  0.3414 -0.5276
 1589TIP3    H228963   0.785   4.302   8.664 -1.7199  0.6550 -1.4371
 1590TIP3   OH228964   0.132   7.232   6.988 -0.2137  0.0866  0.6382
 1590TIP3    H128965   0.113   7.162   6.925 -1.0399 -0.4613  1.4553
 1590TIP3    H228966   0.220   7.261   6.966 -0.8059  0.5551 -1.3354
 1591TIP3   OH228967   1.386   0.528   7.523 -0.4558  0.5854  0.1723
 1591TIP3    H128968   1.399   0.449   7.471 -0.0222 -0.9566  2.4570
 1591TIP3    H228969   1.291   0.530   7.540 -0.4904  0.6668 -0.0237
 1592TIP3   OH228970   3.138   2.508   8.934  0.2227 -0.1013 -0.1739
 1592TIP3    H128971   3.111   2.419   8.958  0.8468 -0.0423  0.7839
 1592TIP3    H228972   3.068   2.564   8.966 -0.6751 -0.2930 -1.6618
 1593TIP3   OH228973   2.605   1.346   8.526 -0.0090 -0.5888 -0.4418
 1593TIP3    H128974   2.655   1.288   8.469 -1.3837 -1.6694 -0.6215
 1593TIP3    H228975   2.595   1.427   8.476  2.9449  0.3515  0.2784
 1594TIP3   OH228976   1.020   6.692   7.468  0.6516 -0.4503 -0.1908
 1594TIP3    H128977   0.969   6.700   7.549  0.2259 -1.4919 -0.3460
 1594TIP3    H228978   1.044   6.782   7.447 -0.3375 -0.0233  0.3964
 1595TIP3   OH228979   6.373   6.267   7.135  0.2696  0.3171  0.2803
 1595TIP3    H128980   6.302   6.315   7.179 -0.4855 -1.6947  1.3791
 1595TIP3    H228981   6.339   6.178   7.124  2.2516 -0.4437 -0.1083
 1596TIP3   OH228982   0.688   6.639   7.654  0.0261  0.3295 -0.1895
 1596TIP3    H128983   0.599   6.648   7.686 -0.4868  0.6178 -1.6357
 1596TIP3    H228984   0.718   6.729   7.639 -0.7158  0.2258 -2.9550
 1597TIP3   OH228985   7.118   7.010   7.702  0.1152 -0.3796  0.4020
 1597TIP3    H128986   7.114   7.045   7.613  0.8437 -1.4338 -0.0624
 1597TIP3    H228987   7.028   7.018   7.734 -0.4264 -1.0588 -0.8534
 1598TIP3   OH228988   3.980   4.181   8.654  0.0245  0.3021 -0.1515
 1598TIP3    H128989   4.025   4.265   8.657 -1.4155  1.0989  0.6046
 1598TIP3    H228990   4.001   4.139   8.737 -0.4539  0.6108  0.1380
 1599TIP3   OH228991   1.700   0.733   7.733  0.4782  0.0826 -0.4678
 1599TIP3    H128992   1.662   0.789   7.665 -0.0804  1.5181  0.9575
 1599TIP3    H228993   1.656   0.648   7.721 -1.7459  1.1028 -0.1908
 1600TIP3   OH228994   6.028   7.345   7.974 -0.5740  0.3996  0.8773
 1600TIP3    H128995   6.009   7.267   7.922 -1.6085 -0.1581  2.0471
 1600TIP3    H228996   6.122   7.342   7.987 -0.4898 -0.2011  0.2195
 1601TIP3   OH228997   7.671   5.325   9.185  0.0569  0.4706 -0.4823
 1601TIP3    H128998   7.706   5.253   9.238  0.5132  0.8008 -0.3288
 1601TIP3    H228999   7.745   5.353   9.131  0.4256  2.0219  0.7639
 1602TIP3   OH229000   7.627   1.678   7.879  0.0745  0.1803 -0.2381
 1602TIP3    H129001   7.578   1.607   7.838 -0.9065  0.3012  0.6654
 1602TIP3    H229002   7.559   1.735   7.917  0.7893  1.9365 -1.4479
 1603TIP3   OH229003   5.363   6.051   6.648  0.1970  0.0152 -0.5973
 1603TIP3    H129004   5.439   6.026   6.595 -0.0576 -1.2584 -0.4050
 1603TIP3    H229005   5.312   6.108   6.590  0.4844 -0.4340 -1.3173
 1604TIP3   OH229006   4.333   5.442   8.268  0.4066  0.2428 -0.1848
 1604TIP3    H129007   4.242   5.413   8.265  1.2026 -2.7956  1.4403
 1604TIP3    H229008   4.363   5.420   8.356  2.4515  2.2298 -0.2912
 1605TIP3   OH229009   2.987   6.181   7.351 -0.2671 -0.0545 -0.1641
 1605TIP3    H129010   3.029   6.243   7.292  0.8246  0.3208  0.9543
 1605TIP3    H229011   2.921   6.232   7.397  2.0912  0.9589  2.3486
 1606TIP3   OH229012   0.021   2.582   9.233 -0.1487  0.1137  0.5932
 1606TIP3    H129013  -0.061   2.535   9.214 -0.7119  1.2854  0.0304
 1606TIP3    H229014   0.088   2.514   9.234 -0.8093 -0.6114 -1.0529
 1607TIP3   OH229015   7.355   6.663   8.611 -0.2263  0.5443 -0.3426
 1607TIP3    H129016   7.426   6.639   8.670 -1.2205  1.0497  1.1310
 1607TIP3    H229017   7.396   6.715   8.542  1.0145 -0.3406 -0.3029
 1608TIP3   OH229018   2.583   0.787   9.592  0.1993 -0.1037 -0.6198
 1608TIP3    H129019   2.537   0.863   9.559  0.4941 -0.1644 -1.1832
 1608TIP3    H229020   2.519   0.716   9.591  0.2437 -0.1406 -1.2131
 1609TIP3   OH229021   4.951   6.592   7.723 -0.4527 -0.4210  0.6539
 1609TIP3    H129022   4.969   6.526   7.790  0.6868 -0.6375  0.1533
 1609TIP3    H229023   4.993   6.671   7.757 -2.5563  0.3213  1.6716
 1610TIP3   OH229024   7.628   4.614   8.285 -0.5071  0.3910 -0.2562
 1610TIP3    H129025   7.641   4.520   8.286 -0.1287  0.4247 -1.4644
 1610TIP3    H229026   7.697   4.649   8.342 -1.3191 -0.1116  1.0908
 1611TIP3   OH229027   5.881   1.883   9.209 -0.0704 -0.1390  0.5703
 1611TIP3    H129028   5.969   1.910   9.235 -0.5907  1.3169  0.9125
 1611TIP3    H229029   5.882   1.889   9.113 -0.1327  1.0829  0.6256
 1612TIP3   OH229030   1.385   3.595   9.777 -0.2216  0.1800 -0.4709
 1612TIP3    H129031   1.375   3.646   9.697 -1.4061 -1.0203 -1.1371
 1612TIP3    H229032   1.419   3.657   9.841  1.4680  0.9901 -2.0755
 1613TIP3   OH229033   1.245   2.922   8.420  0.4236 -0.1220 -0.2859
 1613TIP3    H129034   1.193   3.002   8.412  0.9868  0.1247 -1.8588
 1613TIP3    H229035   1.333   2.953   8.443  0.0247 -0.5178  2.0461
 1614TIP3   OH229036   4.889   3.336   6.923 -0.0070 -0.0059 -0.2663
 1614TIP3    H129037   4.810   3.386   6.905 -0.4892 -0.1933  1.1821
 1614TIP3    H229038   4.890   3.267   6.857  0.6148  1.7783 -2.2102
 1615TIP3   OH229039   1.257   4.968   9.524  0.0677  0.0230 -0.5408
 1615TIP3    H129040   1.317   4.962   9.450  0.0076  0.0303 -0.5909
 1615TIP3    H229041   1.170   4.957   9.485 -0.1634  2.2913 -0.7985
 1616TIP3   OH229042   3.759   2.428   8.787  0.0768  0.1994 -0.1086
 1616TIP3    H129043   3.792   2.423   8.877  1.5811 -0.3966 -0.6623
 1616TIP3    H229044   3.837   2.426   8.732 -0.8278  0.2433 -1.4594
 1617TIP3   OH229045   5.383   2.697   7.759 -0.1627  0.6509 -0.2176
 1617TIP3    H129046   5.333   2.616   7.763 -0.0623  0.6280  0.6882
 1617TIP3    H229047   5.325   2.760   7.717 -0.7493  0.4813  0.3365
 1618TIP3   OH229048   4.763   4.395   9.315 -0.1494  0.2997 -0.4058
 1618TIP3    H129049   4.708   4.355   9.248  2.0752  0.5649 -2.5131
 1618TIP3    H229050   4.702   4.418   9.385 -2.1801 -2.4636 -1.1011
 1619TIP3   OH229051   4.780   4.686   8.388  0.1745 -0.4651  0.1991
 1619TIP3    H129052   4.788   4.603   8.435  0.3253 -0.7202 -0.2699
 1619TIP3    H229053   4.763   4.750   8.456  1.3536 -0.6711  0.7144
 1620TIP3   OH229054   5.715   3.443   7.645  0.3160  0.4651 -0.3517
 1620TIP3    H129055   5.660   3.507   7.691 -0.9150 -0.8252  0.0507
 1620TIP3    H229056   5.713   3.366   7.701  1.8268  0.0809 -0.7997
 1621TIP3   OH229057   6.013   3.505   8.819 -0.1854 -0.3965  0.0473
 1621TIP3    H129058   6.040   3.445   8.889 -0.4886 -0.2084  0.3286
 1621TIP3    H229059   5.950   3.563   8.861 -0.0331  0.0000 -0.2724
 1622TIP3   OH229060   2.191   2.136   9.428  0.0275 -0.1533 -0.4877
 1622TIP3    H129061   2.216   2.047   9.452  0.4783 -0.9651 -3.6245
 1622TIP3    H229062   2.108   2.126   9.381 -0.3828  1.2309 -0.1285
 1623TIP3   OH229063   3.577   2.986   8.695 -0.1124 -0.1782 -0.0684
 1623TIP3    H129064   3.490   2.971   8.657 -0.6731 -0.8684  1.4233
 1623TIP3    H229065   3.609   2.898   8.717  1.4111 -0.0267 -1.4837
 1624TIP3   OH229066   1.464   0.271   8.696  0.1053  0.0600 -0.0763
 1624TIP3    H129067   1.437   0.340   8.757  2.2241  1.0452 -0.1736
 1624TIP3    H229068   1.530   0.222   8.744  0.0485 -0.6815 -0.7354
 1625TIP3   OH229069   4.774   4.007   7.126  0.0592  0.1724 -0.4874
 1625TIP3    H129070   4.853   4.023   7.178  1.1128  0.2912 -2.0658
 1625TIP3    H229071   4.702   4.025   7.186  1.2157 -0.2323  1.0840
 1626TIP3   OH229072   1.199   5.280   7.349 -0.4340  0.1531  0.1869
 1626TIP3    H129073   1.186   5.253   7.258 -0.1845 -1.7259  0.6793
 1626TIP3    H229074   1.245   5.364   7.342  0.5852 -0.4921 -1.4214
 1627TIP3   OH229075   4.604   4.515   8.093 -0.2029 -0.4743 -0.4782
 1627TIP3    H129076   4.594   4.455   8.167  1.2606 -0.0285  0.1242
 1627TIP3    H229077   4.588   4.602   8.130 -1.4874 -0.3952 -1.1635
 1628TIP3   OH229078   5.110   7.577   8.480 -0.3702 -0.1343 -0.0008
 1628TIP3    H129079   5.047   7.569   8.551 -1.8767  0.1469 -1.2498
 1628TIP3    H229080   5.080   7.514   8.414  0.9425 -0.3372 -0.4432
 1629TIP3   OH229081   6.816   7.022   7.060 -0.1034 -0.0300 -0.7601
 1629TIP3    H129082   6.745   6.978   7.012 -0.2691 -1.2898  0.5586
 1629TIP3    H229083   6.816   6.979   7.145  0.3446  1.9667  0.2952
 1630TIP3   OH229084   0.433   4.858   9.071 -0.9183 -0.1086 -0.2608
 1630TIP3    H129085   0.365   4.791   9.066 -2.5714  1.5328 -1.0879
 1630TIP3    H229086   0.428   4.904   8.987  1.0853  0.2031 -0.2492
 1631TIP3   OH229087   7.631   1.047   6.784 -0.0667 -0.3264 -0.7935
 1631TIP3    H129088   7.619   1.099   6.705  0.0793 -2.3125 -2.2027
 1631TIP3    H229089   7.543   1.031   6.817 -0.2374 -0.7339 -1.4308
 1632TIP3   OH229090   6.918   1.860   9.657  0.4502 -0.0052 -0.2446
 1632TIP3    H129091   6.964   1.782   9.627  0.6174  0.5902 -1.5897
 1632TIP3    H229092   6.825   1.839   9.643  0.4978  0.0550 -0.6613
 1633TIP3   OH229093   3.520   1.439   7.949 -0.0340  0.1264 -0.4105
 1633TIP3    H129094   3.429   1.423   7.923 -0.1373  0.4714 -0.2590
 1633TIP3    H229095   3.524   1.410   8.040 -0.1218  0.5922 -0.2576
 1634TIP3   OH229096   3.355   1.829   8.855 -0.2340  0.0507  0.4296
 1634TIP3    H129097   3.265   1.827   8.823 -0.4841 -0.1083  1.1191
 1634TIP3    H229098   3.406   1.863   8.782 -0.7278 -0.6541 -0.2638
 1635TIP3   OH229099   1.024   7.637   7.381  0.4809 -0.0965 -0.2408
 1635TIP3    H129100   0.963   7.636   7.455 -1.1657 -1.8145 -1.5305
 1635TIP3    H229101   1.098   7.584   7.410  0.2500 -0.0348  0.4795
 1636TIP3   OH229102   6.864   4.786   8.906  0.3001  0.2614  0.2538
 1636TIP3    H129103   6.804   4.728   8.954 -1.3977  1.4299 -0.3415
 1636TIP3    H229104   6.951   4.759   8.934 -0.5338 -0.8181  2.0030
 1637TIP3   OH229105   6.660   3.166   8.241 -0.3227  0.0033 -0.2089
 1637TIP3    H129106   6.609   3.155   8.161  0.2424 -1.3847 -0.4065
 1637TIP3    H229107   6.740   3.116   8.225 -0.7958 -1.4987  1.7406
 1638TIP3   OH229108   3.618   0.204   8.203  0.4135  0.5332 -0.2017
 1638TIP3    H129109   3.569   0.144   8.147 -0.3997  0.1395  0.8955
 1638TIP3    H229110   3.640   0.277   8.146 -2.8858  1.5389 -0.4281
 1639TIP3   OH229111   0.078   1.803   7.677  0.1618 -0.6872 -0.0569
 1639TIP3    H129112   0.064   1.743   7.750  0.1787  0.2770  0.7576
 1639TIP3    H229113   0.008   1.782   7.615 -0.1881 -1.1376  0.4812
 1640TIP3   OH229114   6.368   5.953   6.958 -0.4646 -0.2388  0.5520
 1640TIP3    H129115   6.301   5.981   6.896 -0.9226 -0.1623  1.0662
 1640TIP3    H229116   6.321   5.895   7.018 -0.3799  0.8028  1.6741
 1641TIP3   OH229117   6.101   6.522   7.644 -0.7128  0.1636  0.0605
 1641TIP3    H129118   6.084   6.483   7.730 -0.1204 -0.0063  0.1062
 1641TIP3    H229119   6.121   6.613   7.663 -1.3906  0.3253  0.0215
 1642TIP3   OH229120   0.231   3.751   8.633 -0.1061 -0.1402 -0.2854
 1642TIP3    H129121   0.199   3.811   8.565 -0.1606  0.9531  0.6629
 1642TIP3    H229122   0.157   3.693   8.651 -1.3404  1.7383  1.1930
 1643TIP3   OH229123   4.477   5.195   8.098 -0.2207 -0.4077  0.2829
 1643TIP3    H129124   4.476   5.288   8.121  0.7093 -0.3019 -0.0761
 1643TIP3    H229125   4.401   5.184   8.041 -0.0218  0.2611 -0.1222
 1644TIP3   OH229126   4.417   1.001   9.208 -0.2059 -0.0857 -0.2240
 1644TIP3    H129127   4.360   1.036   9.139  0.8122 -0.5985 -1.3502
 1644TIP3    H229128   4.471   1.076   9.234  1.4041 -0.5551 -2.0533
 1645TIP3   OH229129   2.173   2.514   9.163 -0.4589 -0.3349 -0.6278
 1645TIP3    H129130   2.140   2.466   9.239  0.2177  0.5224  0.2467
 1645TIP3    H229131   2.097   2.558   9.126 -0.5842  0.3343  0.3951
 1646TIP3   OH229132   4.118   0.113   7.003  0.3517 -0.7904  0.0074
 1646TIP3    H129133   4.128   0.018   7.014 -0.3898 -1.0214 -1.1751
 1646TIP3    H229134   4.039   0.134   7.053  0.4686 -0.7995  0.2001
 1647TIP3   OH229135   5.834   0.690   8.282  0.3518  0.0229  0.0421
 1647TIP3    H129136   5.824   0.722   8.192 -0.2777 -0.6101 -0.1211
 1647TIP3    H229137   5.911   0.737   8.316  0.3773  0.5349 -0.7011
 1648TIP3   OH229138   6.410   5.672   8.998 -0.5391  0.4512 -0.2271
 1648TIP3    H129139   6.474   5.732   9.036  0.5038 -1.3883  1.0867
 1648TIP3    H229140   6.383   5.713   8.916  2.3922  1.2701 -0.8649
 1649TIP3   OH229141   4.521   6.961   8.103  0.1931  0.7494  0.4124
 1649TIP3    H129142   4.491   6.932   8.017 -0.4630  2.0682  0.1675
 1649TIP3    H229143   4.442   6.961   8.158  0.4607  0.6614  0.8055
 1650TIP3   OH229144   5.958   5.737   7.475 -0.2072 -0.2411 -0.0953
 1650TIP3    H129145   5.925   5.771   7.392 -1.5027 -1.6731 -0.2108
 1650TIP3    H229146   6.033   5.792   7.495 -0.3282  0.6265 -1.8251
 1651TIP3   OH229147   2.780   1.752   7.280  0.2867 -0.2112  0.0617
 1651TIP3    H129148   2.688   1.761   7.254 -0.4084 -2.6761  1.3207
 1651TIP3    H229149   2.791   1.813   7.353 -0.3151  0.1773 -0.1629
 1652TIP3   OH229150   6.510   1.499   9.377  0.2088  0.5245 -0.1937
 1652TIP3    H129151   6.541   1.414   9.348 -1.0760  0.5121 -1.6251
 1652TIP3    H229152   6.415   1.492   9.378  0.0339  2.1843 -1.1750
 1653TIP3   OH229153   5.129   5.351   8.847  0.0250  0.0239 -0.4313
 1653TIP3    H129154   5.194   5.381   8.782 -1.3275  1.1296 -1.3275
 1653TIP3    H229155   5.155   5.394   8.928 -0.7737  2.2370 -1.2718
 1654TIP3   OH229156   3.562   2.666   7.879 -0.2793 -0.3763  0.8569
 1654TIP3    H129157   3.584   2.746   7.832 -0.9560 -0.7998 -0.2160
 1654TIP3    H229158   3.610   2.597   7.834  0.5532 -0.5532  1.9730
 1655TIP3   OH229159   3.103   0.205   7.470 -0.5864 -0.6117 -0.2071
 1655TIP3    H129160   3.164   0.159   7.413  0.1022 -0.5558  0.4699
 1655TIP3    H229161   3.017   0.170   7.446 -0.1807 -1.4990 -0.4199
 1656TIP3   OH229162   6.732   0.353   8.695  0.5135 -0.3692  0.2727
 1656TIP3    H129163   6.791   0.302   8.751  1.2298  0.7702  0.5916
 1656TIP3    H229164   6.668   0.390   8.755  0.7980  0.1909  0.2340
 1657TIP3   OH229165   0.367   4.131   8.353 -0.1680  0.7190  0.4849
 1657TIP3    H129166   0.357   4.181   8.272  1.9249 -0.0610 -0.3498
 1657TIP3    H229167   0.424   4.185   8.408  0.8457 -0.0158  0.1946
 1658TIP3   OH229168   6.115   6.290   9.118 -0.3378 -0.0618 -0.0570
 1658TIP3    H129169   6.057   6.219   9.090  1.0202 -1.0302 -0.5513
 1658TIP3    H229170   6.063   6.370   9.107 -0.9968 -0.7090 -2.1494
 1659TIP3   OH229171   6.026   1.810   8.823 -0.0999 -0.5126 -0.0652
 1659TIP3    H129172   5.959   1.864   8.865 -0.7989 -1.7686  0.4952
 1659TIP3    H229173   6.109   1.847   8.853 -0.5643  0.3133  0.2189
 1660TIP3   OH229174   4.608   4.025   8.449  0.3161  0.1457 -0.6604
 1660TIP3    H129175   4.591   4.117   8.427  0.6575  0.1741 -0.8100
 1660TIP3    H229176   4.524   3.981   8.436 -0.2622  0.7115  0.8931
 1661TIP3   OH229177   7.407   6.736   9.202 -0.1523  0.5860  0.3164
 1661TIP3    H129178   7.494   6.723   9.240  0.7040 -1.5637 -2.0815
 1661TIP3    H229179   7.382   6.650   9.168 -2.7298  1.4128 -0.1110
 1662TIP3   OH229180   0.658   6.240   8.101 -0.5310 -0.3024 -0.3547
 1662TIP3    H129181   0.730   6.259   8.040 -0.3507  0.2829  0.0344
 1662TIP3    H229182   0.579   6.260   8.051 -0.5269 -2.3036 -1.2840
 1663TIP3   OH229183   5.269   6.820   9.234 -0.1947 -0.0183  0.0804
 1663TIP3    H129184   5.272   6.746   9.295  3.2925  0.3939  0.6266
 1663TIP3    H229185   5.219   6.888   9.281 -0.2541 -0.7732  1.1423
 1664TIP3   OH229186   1.002   3.219   6.654  0.1887 -0.0830  0.0373
 1664TIP3    H129187   0.947   3.295   6.671 -0.8074 -0.9984  0.9984
 1664TIP3    H229188   1.064   3.250   6.587 -0.6050  1.3660 -0.0786
 1665TIP3   OH229189   5.268   2.450   7.666  0.2894 -0.4996 -0.6847
 1665TIP3    H129190   5.246   2.432   7.575 -0.2648 -0.1878 -0.6153
 1665TIP3    H229191   5.345   2.395   7.684  0.3106 -0.6693 -1.2920
 1666TIP3   OH229192   1.879   7.430   6.960 -0.0462  0.0995  0.2362
 1666TIP3    H129193   1.785   7.424   6.980 -0.4350  2.6614 -0.3762
 1666TIP3    H229194   1.903   7.518   6.988  2.3161 -0.6689  0.7678
 1667TIP3   OH229195   0.646   4.432   9.452  0.3766  0.3619 -0.6302
 1667TIP3    H129196   0.735   4.425   9.486  0.3612 -0.3545 -0.7098
 1667TIP3    H229197   0.655   4.425   9.357  0.1140 -1.4808 -0.5643
 1668TIP3   OH229198   2.868   7.177   9.023 -0.6191  0.3140  0.2522
 1668TIP3    H129199   2.856   7.194   8.929  0.5015  1.5746  0.3042
 1668TIP3    H229200   2.963   7.175   9.034 -0.7379 -0.3897  1.2825
 1669TIP3   OH229201   0.588   2.908   6.661  0.0167  1.1870  0.2712
 1669TIP3    H129202   0.547   2.823   6.648  0.5171  1.2094 -1.9031
 1669TIP3    H229203   0.515   2.969   6.672 -0.4419  0.7921 -0.4936
 1670TIP3   OH229204   0.648   1.122   7.409 -0.3105 -0.4671 -0.6577
 1670TIP3    H129205   0.646   1.033   7.373 -1.7714 -0.7485  0.0516
 1670TIP3    H229206   0.661   1.109   7.503  0.0650  0.1157 -0.6242
 1671TIP3   OH229207   2.726   2.857   9.393 -0.0288  0.2044 -0.1031
 1671TIP3    H129208   2.746   2.765   9.408 -1.2026 -0.1038 -0.3640
 1671TIP3    H229209   2.642   2.857   9.349  0.9647  1.3026 -2.1632
 1672TIP3   OH229210   5.778   1.001   7.419  0.1014  0.0843 -0.5864
 1672TIP3    H129211   5.704   0.946   7.394 -0.4888  0.2741  0.6933
 1672TIP3    H229212   5.838   0.995   7.344 -1.3729  0.2565 -1.8364
 1673TIP3   OH229213   4.257   7.085   9.436 -0.4241 -0.2018  0.2949
 1673TIP3    H129214   4.325   7.018   9.432  1.1734  1.3090  0.7286
 1673TIP3    H229215   4.229   7.085   9.528 -0.6608 -0.4719  0.2258
 1674TIP3   OH229216   1.151   4.352   7.803  0.6808 -0.0171  0.1988
 1674TIP3    H129217   1.223   4.390   7.752 -0.5274  0.8015 -0.9759
 1674TIP3    H229218   1.078   4.347   7.741  0.3639 -3.1063  0.6596
 1675TIP3   OH229219   2.948   5.931   7.529 -0.2671 -0.5460 -0.6662
 1675TIP3    H129220   2.857   5.908   7.513  0.1083 -1.8365 -1.1136
 1675TIP3    H229221   2.967   6.002   7.467 -0.8664 -0.5253 -0.8277
 1676TIP3   OH229222   4.568   5.526   9.530 -0.0650  0.8229 -0.5616
 1676TIP3    H129223   4.587   5.610   9.571  0.8334  1.2066 -1.7224
 1676TIP3    H229224   4.473   5.516   9.539  0.2388  0.0789  3.0615
 1677TIP3   OH229225   6.049   7.618   8.538  0.0513 -0.6813  0.3882
 1677TIP3    H129226   6.127   7.669   8.517 -0.6034 -0.1269 -0.7730
 1677TIP3    H229227   6.023   7.649   8.625  0.6224 -0.2577  0.4187
 1678TIP3   OH229228   2.125   1.439   7.744  0.4242  0.4322 -0.4177
 1678TIP3    H129229   2.060   1.434   7.673 -1.0635 -0.7035  0.9397
 1678TIP3    H229230   2.151   1.349   7.759  1.5661  0.7771 -0.2502
 1679TIP3   OH229231   4.328   2.044   8.033 -0.0286 -0.0202 -0.0395
 1679TIP3    H129232   4.377   2.122   8.011 -0.1042 -0.1661 -0.7294
 1679TIP3    H229233   4.395   1.977   8.051  0.0844  0.5813  2.0978
 1680TIP3   OH229234   2.134   0.810   8.976 -0.0312  0.2326  0.4419
 1680TIP3    H129235   2.120   0.880   8.912  2.1367  1.4422  1.1685
 1680TIP3    H229236   2.200   0.846   9.036  1.7777 -2.6765  0.4082
 1681TIP3   OH229237   5.402   6.193   6.906 -0.3064 -0.5512 -0.7121
 1681TIP3    H129238   5.489   6.226   6.887 -0.4066 -0.3924 -0.8906
 1681TIP3    H229239   5.368   6.164   6.822 -1.4039  1.6914 -1.0947
 1682TIP3   OH229240   6.535   6.662   7.310  0.2767  0.1782 -0.2504
 1682TIP3    H129241   6.442   6.649   7.329  0.2783 -3.2722 -1.8691
 1682TIP3    H229242   6.558   6.742   7.357 -2.5975 -0.8589  3.4408
 1683TIP3   OH229243   0.333   4.678   7.311 -0.1743 -0.8000  0.2111
 1683TIP3    H129244   0.398   4.644   7.372 -0.6313 -0.0557  1.1322
 1683TIP3    H229245   0.282   4.740   7.362 -2.4643 -2.3012 -0.0894
 1684TIP3   OH229246   2.384   2.041   7.138  0.8529 -0.0037  0.1881
 1684TIP3    H129247   2.449   2.109   7.157 -0.1872  0.4777  2.3947
 1684TIP3    H229248   2.301   2.089   7.131  0.4381 -0.8135 -0.6195
 1685TIP3   OH229249   3.925   5.102   8.761 -0.3131  0.2118  0.1480
 1685TIP3    H129250   3.838   5.135   8.738 -0.3389  0.1895  0.2150
 1685TIP3    H229251   3.950   5.150   8.840 -0.0746  0.5411 -0.1252
 1686TIP3   OH229252   3.291   5.965   9.261 -0.2490 -0.3370  0.0116
 1686TIP3    H129253   3.291   6.040   9.200  0.7576 -0.7238 -0.4743
 1686TIP3    H229254   3.198   5.942   9.269 -0.4503  0.0873 -0.9329
 1687TIP3   OH229255   0.205   0.834   8.450  0.7478 -0.2169 -0.0035
 1687TIP3    H129256   0.180   0.849   8.359 -0.1440 -0.9472  0.1036
 1687TIP3    H229257   0.125   0.849   8.500  0.7982 -1.4700  0.4817
 1688TIP3   OH229258   1.657   6.661   6.811  0.0321 -0.0537  0.1090
 1688TIP3    H129259   1.647   6.621   6.725  1.1976  0.8274 -0.4572
 1688TIP3    H229260   1.735   6.715   6.804 -0.6949  1.2177  1.2638
 1689TIP3   OH229261   3.160   5.201   9.427 -0.1753 -0.1661 -0.4276
 1689TIP3    H129262   3.217   5.137   9.385  0.9964  0.4821  0.0931
 1689TIP3    H229263   3.210   5.283   9.423  0.1433 -0.1020  2.3797
 1690TIP3   OH229264   7.275   4.416   7.491  0.1345  0.1547  0.2625
 1690TIP3    H129265   7.287   4.510   7.479 -1.5478  0.6905  2.2357
 1690TIP3    H229266   7.337   4.393   7.560  0.2998 -0.1316  0.0208
 1691TIP3   OH229267   2.761   6.481   8.665 -0.2445 -0.4676 -0.4633
 1691TIP3    H129268   2.806   6.429   8.732 -0.2730  1.7729  1.4235
 1691TIP3    H229269   2.815   6.559   8.655 -0.2785 -0.7108 -3.1096
 1692TIP3   OH229270   6.762   6.204   9.110  0.0288  0.1444 -0.0041
 1692TIP3    H129271   6.728   6.253   9.035 -3.2015 -0.6410  0.7687
 1692TIP3    H229272   6.825   6.264   9.151 -0.8511  2.0677 -1.2826
 1693TIP3   OH229273   7.192   7.219   9.357 -0.3286 -0.4126  0.2428
 1693TIP3    H129274   7.227   7.132   9.377  0.7758 -0.4291 -1.5736
 1693TIP3    H229275   7.115   7.202   9.303  0.1963 -0.2533 -0.5579
 1694TIP3   OH229276   7.575   2.310   8.419 -0.2671  0.1740 -0.1955
 1694TIP3    H129277   7.562   2.215   8.415 -2.2359  0.3977 -0.1093
 1694TIP3    H229278   7.523   2.344   8.346  0.7337  1.1764 -0.4661
 1695TIP3   OH229279   6.309   5.303   8.231  0.4287  0.4795 -0.5742
 1695TIP3    H129280   6.285   5.296   8.139 -1.7279  2.7696 -0.3005
 1695TIP3    H229281   6.247   5.245   8.276 -1.1411  2.2838 -0.3109
 1696TIP3   OH229282   4.219   5.616   7.227 -0.3267  0.2382  0.1847
 1696TIP3    H129283   4.256   5.533   7.195 -1.2523 -0.4148  0.7682
 1696TIP3    H229284   4.294   5.661   7.267  0.3328  0.0056 -0.7511
 1697TIP3   OH229285   1.757   1.427   7.697  0.3276  0.3361 -0.1445
 1697TIP3    H129286   1.807   1.348   7.717  0.7670  0.5910 -0.2253
 1697TIP3    H229287   1.780   1.489   7.767 -0.2084  0.3084  0.0606
 1698TIP3   OH229288   6.181   5.342   8.926 -0.2663  0.4321  0.4109
 1698TIP3    H129289   6.156   5.430   8.899 -0.4423 -0.0573 -1.1455
 1698TIP3    H229290   6.275   5.349   8.946 -0.0701  0.8050 -0.5630
 1699TIP3   OH229291   6.005   0.931   7.926  0.2204  0.0000 -0.0932
 1699TIP3    H129292   6.046   0.893   8.004 -0.8207 -2.4732 -0.6384
 1699TIP3    H229293   5.941   0.994   7.959 -0.2261 -1.0392  1.0753
 1700TIP3   OH229294   6.106   1.136   7.663  0.6283  0.0483 -0.4181
 1700TIP3    H129295   6.167   1.200   7.628  1.4119 -0.9413 -0.9109
 1700TIP3    H229296   6.121   1.057   7.610  0.8485 -1.0496  1.2218
 1701TIP3   OH229297   4.004   0.225   7.643  0.1598  0.4534  0.1698
 1701TIP3    H129298   3.910   0.210   7.648  0.3663 -0.6563  1.0594
 1701TIP3    H229299   4.041   0.142   7.613  0.7242  1.4493 -2.1824
 1702TIP3   OH229300   1.961   4.151   9.398 -1.0470  0.0285 -0.0389
 1702TIP3    H129301   1.989   4.176   9.309  0.2655 -0.8411  0.0979
 1702TIP3    H229302   1.993   4.223   9.453 -0.3374 -0.2530 -0.0710
 1703TIP3   OH229303   2.539   3.392   8.997 -0.5128  0.2900  0.9632
 1703TIP3    H129304   2.628   3.403   9.033  0.0881  0.5280 -0.5383
 1703TIP3    H229305   2.506   3.481   8.988  0.7217  0.5541 -2.3041
 1704TIP3   OH229306   5.987   1.205   7.190  0.0566 -0.7574 -1.1266
 1704TIP3    H129307   6.004   1.148   7.115  0.1352 -0.5618 -1.2599
 1704TIP3    H229308   6.041   1.282   7.174  2.1808 -1.8380  0.4800
 1705TIP3   OH229309   3.934   3.524   8.980 -0.3636 -0.2726 -0.0866
 1705TIP3    H129310   3.871   3.508   8.910 -1.3421 -0.2627  0.7659
 1705TIP3    H229311   3.985   3.443   8.985 -0.2395 -0.2453 -0.8505
 1706TIP3   OH229312   3.634   0.352   9.005  0.2597  0.1690 -0.3586
 1706TIP3    H129313   3.656   0.346   8.912 -1.0524  0.4898 -0.7121
 1706TIP3    H229314   3.615   0.261   9.030  0.8897  0.0434 -0.3263
 1707TIP3   OH229315   4.680   3.332   8.635 -0.1130 -0.2452  0.3423
 1707TIP3    H129316   4.637   3.327   8.721 -0.2092 -0.7880  0.2667
 1707TIP3    H229317   4.755   3.389   8.649 -0.1510 -0.2964  0.7765
 1708TIP3   OH229318   4.689   7.515   7.444 -0.0563 -0.3452  0.4202
 1708TIP3    H129319   4.717   7.605   7.429 -0.0387 -0.2540  0.9928
 1708TIP3    H229320   4.680   7.478   7.356  2.9309 -0.7235  0.1734
 1709TIP3   OH229321   5.823   4.951   8.192 -0.5711  0.4631  0.3807
 1709TIP3    H129322   5.839   4.998   8.274 -0.2714 -0.8545  1.1132
 1709TIP3    H229323   5.729   4.961   8.177 -1.2035 -1.5487  2.4153
 1710TIP3   OH229324   1.386   2.277   8.229  0.0730  0.2513 -0.2055
 1710TIP3    H129325   1.345   2.350   8.183 -0.0780  0.2328 -0.1044
 1710TIP3    H229326   1.467   2.312   8.264  0.6335  0.0264 -1.2397
 1711TIP3   OH229327   3.225   0.436   7.605 -0.3321  0.1344  0.5362
 1711TIP3    H129328   3.185   0.444   7.691 -1.0377 -1.2668  0.3822
 1711TIP3    H229329   3.177   0.364   7.563 -0.0592  0.8259 -1.0503
 1712TIP3   OH229330   0.568   6.365   7.063  0.6992 -0.0527 -0.0489
 1712TIP3    H129331   0.651   6.326   7.092 -0.2852 -0.8938  1.8229
 1712TIP3    H229332   0.559   6.337   6.972  1.8317 -1.0743  0.1290
 1713TIP3   OH229333   3.416   5.103   8.118 -0.1356  0.1747 -0.1599
 1713TIP3    H129334   3.333   5.076   8.078  0.3952  0.0240 -1.1858
 1713TIP3    H229335   3.392   5.174   8.177 -0.9675  0.3095 -0.6475
 1714TIP3   OH229336   2.010   6.770   9.163  0.0617 -0.0913  0.1085
 1714TIP3    H129337   2.072   6.742   9.230 -1.3627 -0.3412  1.3730
 1714TIP3    H229338   2.047   6.852   9.129  2.6340 -1.7239 -1.4049
 1715TIP3   OH229339   1.859   5.996   9.522 -0.2488 -0.0153 -0.6507
 1715TIP3    H129340   1.901   5.912   9.500  1.1734  0.4303  0.1929
 1715TIP3    H229341   1.766   5.976   9.524 -0.0218 -1.3190 -1.5584
 1716TIP3   OH229342   1.649   5.709   6.529 -0.0394  0.0338  0.2056
 1716TIP3    H129343   1.606   5.778   6.580 -1.2478 -0.0586 -0.6473
 1716TIP3    H229344   1.723   5.752   6.487  0.1061  0.4503  0.8729
 1717TIP3   OH229345   0.045   6.110   9.198  0.1013  0.0308 -0.4796
 1717TIP3    H129346   0.128   6.074   9.230 -1.2586 -1.1928  1.8932
 1717TIP3    H229347  -0.002   6.035   9.162 -1.3810 -0.0530  1.4467
 1718TIP3   OH229348   6.542   6.674   8.774  0.4206  0.2094  0.3663
 1718TIP3    H129349   6.457   6.675   8.731  1.0918 -1.7602 -1.2033
 1718TIP3    H229350   6.523   6.662   8.867 -1.0235  0.3513  0.1045
 1719TIP3   OH229351   3.247   0.718   7.781 -1.1382  0.0837  0.6498
 1719TIP3    H129352   3.211   0.787   7.837 -1.3988 -0.5985  1.3356
 1719TIP3    H229353   3.201   0.730   7.697 -1.0496  0.8453  0.6980
 1720TIP3   OH229354   3.803   2.461   9.356 -0.2358 -0.3002 -0.0659
 1720TIP3    H129355   3.845   2.473   9.271 -0.7252 -2.6280 -0.7160
 1720TIP3    H229356   3.795   2.549   9.391  4.3856  0.4410 -0.2130
 1721TIP3   OH229357   2.940   2.969   8.362 -0.0307  0.2225  0.4379
 1721TIP3    H129358   2.999   2.954   8.287 -0.7791  0.0699 -0.1356
 1721TIP3    H229359   2.994   2.950   8.439  0.7943  0.5001 -0.0529
 1722TIP3   OH229360   1.727   6.129   7.955  0.3058  0.3696  0.3779
 1722TIP3    H129361   1.706   6.037   7.971  0.3362  0.3073  0.0568
 1722TIP3    H229362   1.696   6.146   7.866  1.6201  0.2726 -0.1210
 1723TIP3   OH229363   0.034   4.227   9.009 -1.0155  0.2806  0.5476
 1723TIP3    H129364   0.103   4.219   9.075 -1.7464 -2.1026  1.0928
 1723TIP3    H229365   0.016   4.321   9.005  1.3728  0.8435  1.2766
 1724TIP3   OH229366   4.396   7.326   8.771  0.0433 -0.0814 -0.0060
 1724TIP3    H129367   4.380   7.411   8.731  1.4221 -0.2956 -1.0684
 1724TIP3    H229368   4.455   7.344   8.844 -0.0916 -0.0682  0.1005
 1725TIP3   OH229369   4.642   7.565   8.034 -0.4454  0.3526  0.2719
 1725TIP3    H129370   4.718   7.585   8.088 -0.6555  0.3958  0.5500
 1725TIP3    H229371   4.668   7.592   7.946 -0.4458  1.1419  0.5078
 1726TIP3   OH229372   6.103   3.260   7.797 -0.5327 -0.2478 -0.4742
 1726TIP3    H129373   6.046   3.271   7.721 -0.6609  1.2382 -0.1935
 1726TIP3    H229374   6.142   3.173   7.786 -1.8568 -0.7593 -1.3403
 1727TIP3   OH229375   3.084   4.828   7.180 -0.2585  0.5848 -0.4394
 1727TIP3    H129376   3.049   4.830   7.269  0.0449 -0.8609 -0.2606
 1727TIP3    H229377   3.148   4.900   7.178  0.5907 -0.0961  0.8924
 1728TIP3   OH229378   5.604   6.805   7.680  0.6021 -0.0343 -0.0048
 1728TIP3    H129379   5.681   6.821   7.735  0.1170 -1.4047  1.1333
 1728TIP3    H229380   5.630   6.732   7.624  0.2519 -0.2692  0.1380
 1729TIP3   OH229381   0.213   1.938   8.748  0.0649 -0.5625  0.1136
 1729TIP3    H129382   0.297   1.901   8.720  1.2280  0.8049  1.5901
 1729TIP3    H229383   0.168   1.959   8.667  1.1259 -1.3618 -0.7183
 1730TIP3   OH229384   5.262   2.382   9.826 -0.1383 -0.0044 -0.2120
 1730TIP3    H129385   5.222   2.296   9.839 -0.7513  0.1691 -0.8868
 1730TIP3    H229386   5.350   2.374   9.864 -0.6034 -0.5653  0.7735
 1731TIP3   OH229387   0.482   4.877   9.425  0.2128 -0.4085 -0.5782
 1731TIP3    H129388   0.560   4.892   9.371  0.2581  1.4964 -0.0869
 1731TIP3    H229389   0.461   4.964   9.459 -0.6371 -1.3150  1.3371
 1732TIP3   OH229390   2.574   2.959   6.920  0.2428 -0.1136  0.6806
 1732TIP3    H129391   2.624   2.983   6.843  1.2304 -1.2971  0.9267
 1732TIP3    H229392   2.631   2.981   6.994 -0.1490 -0.2135  1.0220
 1733TIP3   OH229393   6.134   5.590   7.973  0.1864  0.0253 -0.2380
 1733TIP3    H129394   6.058   5.590   7.915 -0.7699  1.6378  0.9318
 1733TIP3    H229395   6.206   5.622   7.919 -0.3859  0.2343 -0.8878
 1734TIP3   OH229396   6.059   2.210   8.011 -0.0058 -0.4165  0.1410
 1734TIP3    H129397   6.069   2.195   7.917 -2.7718 -1.1870 -0.1202
 1734TIP3    H229398   6.130   2.161   8.051  0.2958 -1.3872 -1.4984
 1735TIP3   OH229399   4.195   4.369   8.673 -0.0328 -0.2783 -0.2843
 1735TIP3    H129400   4.187   4.424   8.595  1.7166  0.4270  0.0058
 1735TIP3    H229401   4.280   4.327   8.665 -1.1783 -2.7404 -0.3196
 1736TIP3   OH229402   0.731   1.100   6.895 -0.2107 -0.1149  0.1728
 1736TIP3    H129403   0.779   1.072   6.817  0.4366 -0.0557  0.5332
 1736TIP3    H229404   0.756   1.035   6.962 -0.4783  0.0366  0.4199
 1737TIP3   OH229405   0.353   6.619   8.979 -0.0344  0.0175  0.4658
 1737TIP3    H129406   0.336   6.527   8.963  0.1680 -0.0688  0.7309
 1737TIP3    H229407   0.278   6.649   9.031 -0.7129  0.3090 -0.6574
 1738TIP3   OH229408   0.737   7.301   9.162 -0.5277 -0.1642  0.5073
 1738TIP3    H129409   0.831   7.287   9.159 -0.0130  2.7490 -0.0591
 1738TIP3    H229410   0.701   7.217   9.192  2.3062 -0.9253  2.1347
 1739TIP3   OH229411   1.058   0.460   7.852  0.2743  0.7695 -0.5373
 1739TIP3    H129412   1.032   0.524   7.786 -0.6679 -1.0796 -2.0378
 1739TIP3    H229413   1.126   0.408   7.809 -1.1135 -1.1528 -0.4941
 1740TIP3   OH229414   1.859   3.244   8.178 -0.1519 -0.2510 -0.1360
 1740TIP3    H129415   1.903   3.165   8.211 -0.9345 -0.6613 -0.0527
 1740TIP3    H229416   1.786   3.257   8.238  0.6689  1.2612  0.5818
 1741TIP3   OH229417   0.160   0.695   7.360  0.6961  0.0043 -0.0361
 1741TIP3    H129418   0.174   0.700   7.265  0.3502 -2.1739 -0.2676
 1741TIP3    H229419   0.169   0.785   7.391  0.6477  0.7975 -2.1577
 1742TIP3   OH229420   5.524   5.140   8.305 -0.2307  0.1777 -0.3289
 1742TIP3    H129421   5.465   5.214   8.318 -0.0626  0.6441 -2.0915
 1742TIP3    H229422   5.593   5.172   8.247  0.0305 -1.2514 -0.8685
 1743TIP3   OH229423   1.496   5.757   7.977  0.5792 -0.0601  0.0972
 1743TIP3    H129424   1.463   5.743   7.888 -1.5528  1.4883  0.5523
 1743TIP3    H229425   1.585   5.791   7.966  0.5885 -0.5281 -1.3961
 1744TIP3   OH229426   5.616   0.804   8.699  0.3850 -0.5519 -0.2459
 1744TIP3    H129427   5.590   0.844   8.616  0.0240 -2.2010 -0.9689
 1744TIP3    H229428   5.631   0.712   8.677  3.5235 -0.4189  0.8401
 1745TIP3   OH229429   6.289   5.872   8.240 -0.1036 -0.2750 -0.1811
 1745TIP3    H129430   6.286   5.882   8.144 -3.1190 -0.8965 -0.2451
 1745TIP3    H229431   6.298   5.777   8.253  2.1115 -0.0641  0.2421
 1746TIP3   OH229432   2.556   1.404   6.996 -0.2148 -0.4030 -0.2543
 1746TIP3    H129433   2.518   1.327   6.953  0.0049  0.2421 -1.6574
 1746TIP3    H229434   2.482   1.464   7.005 -0.0996 -0.2319 -0.4488
 1747TIP3   OH229435   6.570   5.733   7.743  0.1117  0.1100  0.1778
 1747TIP3    H129436   6.638   5.694   7.688 -0.5841  3.1713 -3.2916
 1747TIP3    H229437   6.611   5.809   7.782 -0.6119  0.5105  0.1784
 1748TIP3   OH229438   2.273   2.311   7.965 -0.4059 -0.7173  0.3130
 1748TIP3    H129439   2.221   2.379   8.009 -0.2190 -0.6383  0.4157
 1748TIP3    H229440   2.297   2.250   8.035 -2.1492 -1.9230 -0.0854
 1749TIP3   OH229441   3.785   7.204   8.522 -0.0829 -0.3727 -0.0437
 1749TIP3    H129442   3.747   7.155   8.595  0.8797  1.1252  1.5463
 1749TIP3    H229443   3.878   7.179   8.522  0.0452  0.0886 -0.3811
 1750TIP3   OH229444   4.841   3.254   9.816 -0.2136  0.1581  0.6020
 1750TIP3    H129445   4.772   3.192   9.838 -0.5520  0.4241  0.3048
 1750TIP3    H229446   4.795   3.337   9.804 -0.0050  0.1044 -0.7478
 1751TIP3   OH229447   2.403   0.665   8.271  0.3321  0.5778 -0.1537
 1751TIP3    H129448   2.339   0.702   8.210 -0.7515  0.5326  0.9177
 1751TIP3    H229449   2.392   0.715   8.351  1.5248  0.4352  0.1146
 1752TIP3   OH229450   6.094   4.385   7.679  0.0188 -0.0208 -0.3393
 1752TIP3    H129451   6.038   4.443   7.730  0.7390 -0.3675  0.8753
 1752TIP3    H229452   6.078   4.298   7.715 -0.0770 -0.4042 -1.2689
 1753TIP3   OH229453   4.742   6.825   9.100  0.6645 -0.1078  0.1954
 1753TIP3    H129454   4.680   6.896   9.116  0.2320 -0.1180 -1.2610
 1753TIP3    H229455   4.706   6.751   9.149 -0.2009  0.0323 -0.2014
 1754TIP3   OH229456   2.324   6.803   7.612 -0.0739  0.0607  0.3208
 1754TIP3    H129457   2.301   6.720   7.570  0.9722 -0.9395  1.6388
 1754TIP3    H229458   2.239   6.844   7.629 -0.5620 -0.0988 -1.5312
 1755TIP3   OH229459   2.800   6.216   8.620 -0.2197  0.6873 -0.3330
 1755TIP3    H129460   2.893   6.237   8.616 -0.2651  0.8304 -0.6880
 1755TIP3    H229461   2.757   6.285   8.569 -0.3802 -0.1815 -1.4144
 1756TIP3   OH229462   0.500   6.683   6.601 -0.0231  0.1821 -0.0353
 1756TIP3    H129463   0.549   6.602   6.589  0.2085  0.5401 -1.8257
 1756TIP3    H229464   0.465   6.677   6.690  1.5165 -1.0280  0.5450
 1757TIP3   OH229465   2.975   0.004   7.274 -0.2331 -0.4486 -1.3424
 1757TIP3    H129466   2.981   0.046   7.188 -0.2271  0.0040 -1.1263
 1757TIP3    H229467   2.883  -0.019   7.284 -0.5904  1.0928 -0.7435
 1758TIP3   OH229468   5.648   1.536   8.925  0.0149 -0.0653 -0.4304
 1758TIP3    H129469   5.617   1.626   8.916  1.4131  0.3944 -0.9272
 1758TIP3    H229470   5.603   1.503   9.003 -1.7959  0.4861 -1.1953
 1759TIP3   OH229471   4.060   4.087   7.125  0.0833 -0.1260  0.5821
 1759TIP3    H129472   4.090   4.038   7.202  0.2832 -1.2132 -0.1589
 1759TIP3    H229473   4.003   4.026   7.079 -2.3540  1.4714  1.2938
 1760TIP3   OH229474   4.511   7.442   9.012 -0.4859 -0.3201 -0.1003
 1760TIP3    H129475   4.564   7.411   9.086 -1.0834  0.0295  0.4849
 1760TIP3    H229476   4.496   7.534   9.030 -1.4133 -0.4409 -0.1806
 1761TIP3   OH229477   4.174   3.818   8.724  0.2667  0.5324 -0.4703
 1761TIP3    H129478   4.220   3.901   8.737  0.7696  0.3119 -0.8095
 1761TIP3    H229479   4.123   3.806   8.805  0.9978  0.6611  0.0223
 1762TIP3   OH229480   1.476   4.967   9.346 -0.8667 -0.4822 -0.7653
 1762TIP3    H129481   1.544   4.932   9.289  0.7050  0.1409  0.6717
 1762TIP3    H229482   1.512   5.047   9.382 -2.1502 -0.3956  0.4419
 1763TIP3   OH229483   6.909   5.596   7.069  0.9668 -0.1650 -0.0106
 1763TIP3    H129484   6.854   5.660   7.025  2.2165  0.4798 -0.6785
 1763TIP3    H229485   6.998   5.630   7.060  1.8382 -2.5593 -1.4488
 1764TIP3   OH229486   0.084   5.392   6.911  0.1276 -0.2960  0.1221
 1764TIP3    H129487   0.007   5.425   6.866 -0.2139 -2.0311 -0.6757
 1764TIP3    H229488   0.098   5.305   6.873  0.5074 -1.3818  2.5765
 1765TIP3   OH229489   7.459   4.698   8.045 -0.3163  0.2541 -0.2086
 1765TIP3    H129490   7.473   4.784   8.085  0.6692 -0.0611  0.1521
 1765TIP3    H229491   7.428   4.643   8.117 -0.8101  0.2663 -0.4084
 1766TIP3   OH229492   0.121   0.554   7.036 -0.1623  0.0930 -0.1535
 1766TIP3    H129493   0.104   0.557   6.942  2.6527 -1.2362 -0.8048
 1766TIP3    H229494   0.140   0.645   7.060 -0.3604  0.3562 -0.9727
 1767TIP3   OH229495   0.698   2.176   7.138  0.1237  0.2526 -0.2485
 1767TIP3    H129496   0.693   2.086   7.106 -1.1838  0.3961 -0.4969
 1767TIP3    H229497   0.617   2.188   7.188 -0.0758  1.5183 -0.8437
 1768TIP3   OH229498   1.870   7.047   7.826 -0.1544  0.2498 -0.3233
 1768TIP3    H129499   1.830   7.131   7.849 -1.3612 -0.1111 -1.0585
 1768TIP3    H229500   1.799   6.996   7.787  1.2690  0.0711 -2.9313
 1769TIP3   OH229501   3.745   6.067   8.559  0.0014 -0.1823  0.2530
 1769TIP3    H129502   3.826   6.016   8.555  0.6788  0.8895 -0.5164
 1769TIP3    H229503   3.688   6.018   8.617  1.5466 -0.5074  1.5739
 1770TIP3   OH229504   0.174   3.591   6.941 -0.3989 -0.2862 -0.2507
 1770TIP3    H129505   0.151   3.656   7.007 -0.1607 -1.4897  1.0542
 1770TIP3    H229506   0.268   3.603   6.928  0.4162 -2.5524  2.5698
 1771TIP3   OH229507   5.273   1.587   9.411 -0.3919 -0.4050 -0.2683
 1771TIP3    H129508   5.185   1.554   9.394 -0.4789 -0.2160 -0.1887
 1771TIP3    H229509   5.272   1.610   9.504 -0.6771  0.8686 -0.5718
 1772TIP3   OH229510   4.472   0.046   8.980 -0.5381  0.0806 -0.3955
 1772TIP3    H129511   4.428   0.100   9.047  0.5945 -0.8097  1.1375
 1772TIP3    H229512   4.565   0.069   8.988 -0.4794  0.6251 -2.3356
 1773TIP3   OH229513   1.319   5.798   8.613 -0.0717 -0.0283  0.0745
 1773TIP3    H129514   1.263   5.872   8.590  2.4263  1.9080 -0.2577
 1773TIP3    H229515   1.327   5.804   8.708  0.5879  0.5188 -0.0081
 1774TIP3   OH229516   4.123   4.890   8.827  0.4580  0.1568 -0.4817
 1774TIP3    H129517   4.181   4.931   8.762  1.5186  1.0397  0.9765
 1774TIP3    H229518   4.047   4.948   8.831  1.4952  1.4947  0.8210
 1775TIP3   OH229519   0.173   1.602   8.686  0.5171 -0.8622 -0.2167
 1775TIP3    H129520   0.102   1.638   8.633  2.2487 -0.8952 -2.7381
 1775TIP3    H229521   0.218   1.678   8.722 -0.8498 -0.8448  1.6028
 1776TIP3   OH229522   1.379   6.163   8.983  0.4014 -0.3744 -0.4327
 1776TIP3    H129523   1.461   6.135   9.023 -0.0243  2.0166  2.4298
 1776TIP3    H229524   1.405   6.230   8.919  0.7311 -0.3007 -0.2231
 1777TIP3   OH229525   7.664   4.408   9.489  0.0557  0.6366 -0.2994
 1777TIP3    H129526   7.730   4.417   9.558 -0.6716 -0.2920  0.5580
 1777TIP3    H229527   7.692   4.468   9.420  1.7757  0.2694  0.0452
 1778TIP3   OH229528   7.235   4.848   8.288 -0.3055 -1.2274  0.4696
 1778TIP3    H129529   7.328   4.847   8.313 -0.4073 -0.3933  0.9424
 1778TIP3    H229530   7.233   4.806   8.202  0.3120 -2.4942  1.0458
 1779TIP3   OH229531   7.292   1.809   9.137  0.5490 -0.1467  0.0103
 1779TIP3    H129532   7.340   1.875   9.187  0.7798  0.0119 -0.4093
 1779TIP3    H229533   7.361   1.757   9.094  0.3706  0.9670 -1.7443
 1780TIP3   OH229534   3.730   0.219   9.737 -0.0766  0.1606  0.1751
 1780TIP3    H129535   3.725   0.126   9.714  0.1770  0.3511 -0.7039
 1780TIP3    H229536   3.660   0.260   9.687 -1.3193  0.2285  1.8715
 1781TIP3   OH229537   0.271   5.107   8.909 -0.6051 -0.0111  0.0283
 1781TIP3    H129538   0.297   5.074   8.823 -2.3054  1.8422 -1.3097
 1781TIP3    H229539   0.183   5.070   8.923 -0.2636 -0.4538  1.0794
 1782TIP3   OH229540   2.522   3.695   8.953 -0.1420  0.0099  0.4253
 1782TIP3    H129541   2.498   3.787   8.944  0.6185  0.1854  0.1671
 1782TIP3    H229542   2.613   3.690   8.924 -0.1861 -0.8305  0.3974
 1783TIP3   OH229543   2.566   2.011   8.077 -0.1788  0.0821  0.6920
 1783TIP3    H129544   2.538   1.958   8.002  0.0073 -1.3812  1.6162
 1783TIP3    H229545   2.650   1.972   8.103 -0.3330  0.4478  1.7722
 1784TIP3   OH229546   1.011   3.628   7.641 -0.1857  0.1100  0.1911
 1784TIP3    H129547   1.047   3.656   7.725  1.0443 -2.1274  0.4933
 1784TIP3    H229548   0.971   3.707   7.604  0.9535  1.6017  1.9858
 1785TIP3   OH229549   1.013   4.946   9.428 -0.8592  0.5284 -0.1972
 1785TIP3    H129550   1.006   4.933   9.333 -0.3337 -0.2501 -0.1346
 1785TIP3    H229551   0.947   4.887   9.465  0.1555 -0.4961 -0.0012
 1786TIP3   OH229552   1.887   6.138   9.148  0.7004  0.2364 -0.5249
 1786TIP3    H129553   1.949   6.122   9.220  0.4294  0.6533 -0.1999
 1786TIP3    H229554   1.932   6.201   9.091  0.9713 -0.1975 -0.7981
 1787TIP3   OH229555   2.233   3.213   8.124  0.2949  0.1439 -0.0706
 1787TIP3    H129556   2.299   3.153   8.158  1.2406  0.6426 -0.9888
 1787TIP3    H229557   2.170   3.222   8.196  0.5351 -1.3333  0.3591
 1788TIP3   OH229558   6.937   3.372   8.125 -0.6794 -0.2508  0.3174
 1788TIP3    H129559   6.991   3.293   8.122  0.8818  0.6854  1.7799
 1788TIP3    H229560   6.900   3.373   8.214 -0.5336  0.7195  0.3869
 1789TIP3   OH229561   6.239   0.076   7.761  0.1728 -0.4182  0.4625
 1789TIP3    H129562   6.333   0.062   7.749  0.0499 -0.0656 -1.2794
 1789TIP3    H229563   6.199  -0.006   7.733 -0.0795 -0.0930 -0.1634
 1790TIP3   OH229564   6.612   0.491   8.107  0.0218 -0.4659  0.1188
 1790TIP3    H129565   6.634   0.511   8.016 -3.0834 -0.0969 -0.6626
 1790TIP3    H229566   6.619   0.576   8.152 -0.5827 -0.1963 -0.2871
 1791TIP3   OH229567   1.604   2.039   8.532 -0.2321  0.1204 -0.2496
 1791TIP3    H129568   1.557   2.022   8.450 -0.3273 -0.1725 -0.1326
 1791TIP3    H229569   1.597   1.958   8.581 -0.4861  0.4141  0.2074
 1792TIP3   OH229570   7.588   3.225   8.815  0.4236  0.3135  0.1984
 1792TIP3    H129571   7.602   3.319   8.819  1.1302  0.2735 -0.8899
 1792TIP3    H229572   7.499   3.213   8.848  0.0477  1.4498 -0.3335
 1793TIP3   OH229573   0.599   0.432   8.441 -0.0909 -0.5674 -0.3304
 1793TIP3    H129574   0.582   0.479   8.359  2.2789  0.4657 -0.3260
 1793TIP3    H229575   0.552   0.481   8.508  0.2212  0.2678 -0.7095
 1794TIP3   OH229576   6.287   5.788   8.792  0.0349 -0.2102 -0.2164
 1794TIP3    H129577   6.277   5.726   8.721  1.1118  0.4466 -0.9584
 1794TIP3    H229578   6.273   5.874   8.751  0.1526  0.1417  0.4636
 1795TIP3   OH229579   5.023   6.451   8.556  0.5687  0.4356 -0.1197
 1795TIP3    H129580   4.986   6.486   8.637  0.6491  0.2992 -0.0233
 1795TIP3    H229581   5.080   6.521   8.523  0.2692  0.6225 -0.2386
 1796TIP3   OH229582   7.068   2.945   7.329  0.5715 -0.3484  0.0213
 1796TIP3    H129583   7.152   2.989   7.343  0.3011  0.7369 -1.4232
 1796TIP3    H229584   7.051   2.956   7.235 -2.1466  1.2916  0.5682
 1797TIP3   OH229585   6.381   4.949   8.578 -0.5345  0.0710  0.0073
 1797TIP3    H129586   6.381   4.858   8.608 -1.5777  0.5591  1.6018
 1797TIP3    H229587   6.348   4.999   8.652  1.1436  1.9277 -0.4121
 1798TIP3   OH229588   7.220   1.909   7.281 -0.8145  0.1130  0.3944
 1798TIP3    H129589   7.294   1.849   7.288 -1.0843 -0.4850 -1.2720
 1798TIP3    H229590   7.155   1.861   7.229 -0.5946  2.2119 -2.0094
 1799TIP3   OH229591   1.585   1.297   8.373  0.1395 -0.0107  0.4977
 1799TIP3    H129592   1.582   1.307   8.468  0.2967  0.3865  0.4653
 1799TIP3    H229593   1.521   1.229   8.354 -0.8395  0.8002  0.7767
 1800TIP3   OH229594   6.622   5.425   9.197  0.7439 -0.3005  0.0436
 1800TIP3    H129595   6.638   5.396   9.287  0.3110 -0.8174 -0.0410
 1800TIP3    H229596   6.623   5.521   9.203 -0.3693 -0.3160  0.8183
 1801TIP3   OH229597   6.167   2.390   7.809  0.1123  0.6433  0.5546
 1801TIP3    H129598   6.072   2.404   7.819 -0.3216 -1.2287 -0.5098
 1801TIP3    H229599   6.178   2.367   7.717  1.1606 -2.1004  1.2834
 1802TIP3   OH229600   0.212   0.203   9.258 -0.4802  0.0080 -0.0562
 1802TIP3    H129601   0.256   0.274   9.213 -2.6613  0.5880 -1.3846
 1802TIP3    H229602   0.199   0.136   9.191  0.3428 -1.1009  0.8572
 1803TIP3   OH229603   7.065   1.209   8.568  0.7547 -0.0441 -0.2164
 1803TIP3    H129604   7.084   1.150   8.642 -1.2732 -1.7994 -0.9693
 1803TIP3    H229605   6.987   1.256   8.595  0.5265 -0.0359 -0.8705
 1804TIP3   OH229606   4.688   3.887   9.105  0.2172  0.1412  0.4130
 1804TIP3    H129607   4.726   3.863   9.021  4.3639 -2.7716  2.7803
 1804TIP3    H229608   4.609   3.833   9.111 -0.4351  0.7687 -1.6999
 1805TIP3   OH229609   7.114   3.433   7.068  0.2655  0.7039 -0.2725
 1805TIP3    H129610   7.071   3.349   7.051 -0.4476  1.4448 -2.4626
 1805TIP3    H229611   7.054   3.498   7.033  1.1742  2.0910  0.6515
 1806TIP3   OH229612   4.491   0.757   7.987  0.6445  0.1516  0.3050
 1806TIP3    H129613   4.412   0.810   7.997  2.0196  2.8298 -1.7986
 1806TIP3    H229614   4.528   0.753   8.075 -0.2660  1.4476  0.7714
 1807TIP3   OH229615   6.472   7.374   6.906 -0.1959  0.3093 -0.0426
 1807TIP3    H129616   6.551   7.321   6.899  1.3295  2.3713  0.5642
 1807TIP3    H229617   6.502   7.464   6.898 -2.7195  1.1318 -1.3916
 1808TIP3   OH229618   3.541   2.446   8.471  0.3016  0.9879  0.0735
 1808TIP3    H129619   3.524   2.428   8.378 -1.8204 -0.4883  0.6577
 1808TIP3    H229620   3.498   2.374   8.517  1.7002  1.4233  2.2219
 1809TIP3   OH229621   0.844   1.798   7.331  0.0277 -0.3780 -0.5311
 1809TIP3    H129622   0.927   1.813   7.286  1.6685 -1.7092  1.8474
 1809TIP3    H229623   0.859   1.831   7.420 -2.9039  1.7319 -0.6684
 1810TIP3   OH229624   6.712   0.782   6.886 -0.0543  0.0550 -0.4055
 1810TIP3    H129625   6.624   0.808   6.914 -0.3435  0.4925 -1.6608
 1810TIP3    H229626   6.755   0.864   6.863  0.0767 -0.3003 -1.4758
 1811TIP3   OH229627   2.227   6.182   6.948 -0.4221  0.5475  0.4237
 1811TIP3    H129628   2.140   6.168   6.909 -1.0249  0.9730  1.5933
 1811TIP3    H229629   2.212   6.183   7.042  1.0181 -0.4344  0.6963
 1812TIP3   OH229630   1.852   0.300   7.667 -0.1350 -0.2967  0.6003
 1812TIP3    H129631   1.776   0.286   7.723  0.3038 -0.5990  1.1334
 1812TIP3    H229632   1.924   0.257   7.713  0.1853 -0.7812 -0.3345
 1813TIP3   OH229633   7.022   1.269   9.489 -0.4075 -0.2369 -0.0122
 1813TIP3    H129634   6.978   1.319   9.420 -0.5733 -1.7306 -1.0323
 1813TIP3    H229635   7.115   1.291   9.479 -0.6231  1.0125  0.5434
 1814TIP3   OH229636   1.865   6.333   7.498 -0.0774 -0.0299  0.1353
 1814TIP3    H129637   1.861   6.382   7.416 -1.1919 -0.6976 -0.2243
 1814TIP3    H229638   1.903   6.395   7.560  0.5485  0.5709 -0.8084
 1815TIP3   OH229639   4.190   4.457   8.934 -0.7706  0.2524 -0.0342
 1815TIP3    H129640   4.283   4.455   8.957 -0.2927  1.9971 -1.5767
 1815TIP3    H229641   4.182   4.399   8.859 -0.7684  0.7263 -0.4023
 1816TIP3   OH229642   6.672   7.666   8.863 -0.1413  0.9314 -0.0470
 1816TIP3    H129643   6.748   7.624   8.903 -1.1965  0.8754  2.0710
 1816TIP3    H229644   6.701   7.689   8.775  0.6326 -3.8023 -1.2684
 1817TIP3   OH229645   1.994   0.257   8.918 -0.3114 -0.5018  0.3520
 1817TIP3    H129646   1.950   0.339   8.940 -0.7732 -0.2167 -1.4646
 1817TIP3    H229647   1.965   0.196   8.985 -1.0187  0.4858  0.9735
 1818TIP3   OH229648   1.847   4.783   6.804  0.0041  0.2996 -0.2889
 1818TIP3    H129649   1.775   4.720   6.811  0.3542  0.0133  0.8225
 1818TIP3    H229650   1.896   4.754   6.727  0.1753 -0.8199  0.2245
 1819TIP3   OH229651   4.977   1.557   9.408 -0.0930 -0.0285  0.9804
 1819TIP3    H129652   4.882   1.561   9.397 -0.0137 -0.0608  0.2293
 1819TIP3    H229653   5.000   1.641   9.447 -0.1768  0.9149 -0.9078
 1820TIP3   OH229654   1.325   4.557   8.795 -0.2198 -0.2773 -0.5148
 1820TIP3    H129655   1.288   4.584   8.879  2.1861 -0.6736  0.7756
 1820TIP3    H229656   1.419   4.547   8.813  0.5243  0.4674 -3.4898
 1821TIP3   OH229657   2.208   5.363   8.746 -0.3066 -0.1065  0.3153
 1821TIP3    H129658   2.152   5.392   8.674  1.7986 -1.0639 -1.8174
 1821TIP3    H229659   2.158   5.291   8.786 -2.3840  1.6897  1.1982
 1822TIP3   OH229660   4.640   5.037   8.869  0.1080  0.3788  0.1187
 1822TIP3    H129661   4.562   5.012   8.918  1.2504 -1.5482  1.0886
 1822TIP3    H229662   4.607   5.081   8.792 -1.8408  1.6345  1.5905
 1823TIP3   OH229663   7.264   6.854   7.898 -0.1434  0.1832  0.0290
 1823TIP3    H129664   7.232   6.877   7.985 -2.5553  0.6169 -0.9003
 1823TIP3    H229665   7.203   6.896   7.838  1.2862 -0.3507 -1.8819
 1824TIP3   OH229666   6.270   2.899   7.670  0.2969  0.0309  0.5448
 1824TIP3    H129667   6.352   2.946   7.651 -0.2531  0.2515 -1.5934
 1824TIP3    H229668   6.276   2.819   7.617 -1.2441  0.5121 -0.4016
 1825TIP3   OH229669   4.216   1.512   8.600  0.3966  0.2113  0.1920
 1825TIP3    H129670   4.156   1.493   8.672 -0.6860 -0.6058 -0.9056
 1825TIP3    H229671   4.248   1.427   8.572 -1.9730  0.0958 -2.6089
 1826TIP3   OH229672   1.839   5.896   9.058  0.3121  0.3540 -0.1193
 1826TIP3    H129673   1.915   5.839   9.051 -0.0004 -0.4735  2.2868
 1826TIP3    H229674   1.874   5.981   9.086  0.3825 -0.1143  1.3112
 1827TIP3   OH229675   7.232   0.016   7.660 -0.0715  0.2721 -0.0606
 1827TIP3    H129676   7.259  -0.043   7.590  0.3966 -1.2524  1.3345
 1827TIP3    H229677   7.137   0.014   7.657 -0.0588  0.3861 -0.7711
 1828TIP3   OH229678   1.554   1.266   7.724 -0.5228  0.0602 -0.3662
 1828TIP3    H129679   1.625   1.324   7.697  0.5691 -0.7847  0.5392
 1828TIP3    H229680   1.534   1.215   7.646 -1.8209  1.9238 -1.3039
 1829TIP3   OH229681   2.046   7.019   6.702  0.0669  0.4922  0.1094
 1829TIP3    H129682   2.100   7.087   6.742 -0.5271  0.9568  0.1469
 1829TIP3    H229683   2.039   7.044   6.610  1.1279 -0.3768 -0.2220
 1830TIP3   OH229684   6.008   7.036   6.930 -0.1365 -0.0579  0.2372
 1830TIP3    H129685   5.994   7.088   6.851 -1.0121 -0.3675  0.1687
 1830TIP3    H229686   6.056   6.959   6.900  0.1739  0.1719  0.1406
 1831TIP3   OH229687   1.428   0.656   8.955 -0.7059  0.7060  0.5926
 1831TIP3    H129688   1.399   0.565   8.946 -0.7582  0.7566  0.2303
 1831TIP3    H229689   1.361   0.707   8.908 -1.7519  1.1242  2.4518
 1832TIP3   OH229690   2.953   4.965   9.279  0.4482 -0.1475 -0.5027
 1832TIP3    H129691   2.964   5.005   9.365  0.4201 -1.7258  0.2635
 1832TIP3    H229692   2.928   5.038   9.222  3.0459  1.4470  0.2089
 1833TIP3   OH229693   7.501   3.632   6.964  0.4392  0.3599 -0.1151
 1833TIP3    H129694   7.582   3.588   6.990 -0.1921 -0.9060 -0.1833
 1833TIP3    H229695   7.505   3.635   6.869  0.1774 -0.2020 -0.1509
 1834TIP3   OH229696   5.043   2.705   8.988  0.3020 -0.4181 -0.2202
 1834TIP3    H129697   5.063   2.646   9.060  1.4711  0.8722  0.5754
 1834TIP3    H229698   4.973   2.761   9.022  2.2280  1.5393  0.7847
 1835TIP3   OH229699   0.980   0.790   8.304  0.4672 -0.2740 -0.6070
 1835TIP3    H129700   1.044   0.749   8.245 -0.4662 -0.1489 -1.7230
 1835TIP3    H229701   0.902   0.801   8.251  0.5771  2.7512 -0.2780
 1836TIP3   OH229702   3.249   0.916   7.338  0.1067  0.3999 -0.4420
 1836TIP3    H129703   3.225   0.928   7.246  0.4352  0.8616 -0.4677
 1836TIP3    H229704   3.344   0.917   7.339  0.2121  3.7990  0.2821
 1837TIP3   OH229705   0.560   2.723   9.035  0.4736  0.5678  0.3764
 1837TIP3    H129706   0.602   2.791   9.088 -1.0117  1.6296  0.2940
 1837TIP3    H229707   0.545   2.765   8.950  0.9042 -0.3948 -0.1857
 1838TIP3   OH229708   7.233   3.629   7.695 -0.7104  0.2116  0.1663
 1838TIP3    H129709   7.183   3.675   7.628  0.0357  1.3504  0.3623
 1838TIP3    H229710   7.186   3.648   7.777 -0.8088  0.0161  0.1557
 1839TIP3   OH229711   3.258   3.349   7.669  0.3781 -0.3340 -0.1978
 1839TIP3    H129712   3.272   3.434   7.711  0.7729 -0.5878  0.1991
 1839TIP3    H229713   3.164   3.334   7.678  0.1690  0.4086 -0.9698
 1840TIP3   OH229714   3.707   3.560   8.131  0.3650  0.0875  0.2888
 1840TIP3    H129715   3.702   3.566   8.227  2.7654  3.8570  0.4230
 1840TIP3    H229716   3.622   3.593   8.101  0.3131  0.8370  1.1829
 1841TIP3   OH229717   5.836   4.135   8.129 -0.6452  0.9100 -0.6595
 1841TIP3    H129718   5.842   4.084   8.210  1.0108  4.2336  1.5415
 1841TIP3    H229719   5.825   4.069   8.060  1.5158 -2.4269  1.8326
 1842TIP3   OH229720   1.801   4.735   8.415  0.0934  0.8622 -0.0132
 1842TIP3    H129721   1.756   4.650   8.410 -0.6691  1.3130 -1.1181
 1842TIP3    H229722   1.892   4.712   8.435 -0.1781 -0.1937  0.0678
 1843TIP3   OH229723   2.298   1.251   9.506 -0.0278  0.2139 -0.0937
 1843TIP3    H129724   2.254   1.315   9.562 -0.0045 -1.4821  1.9993
 1843TIP3    H229725   2.227   1.200   9.467 -0.0164  0.1148  0.0129
 1844TIP3   OH229726   1.208   4.959   9.149 -0.0626  0.0788 -0.0708
 1844TIP3    H129727   1.123   4.914   9.145  0.6432 -1.4161  0.6611
 1844TIP3    H229728   1.233   4.972   9.058 -0.5971 -0.4735 -0.3048
 1845TIP3   OH229729   5.478   5.758   7.192 -0.0437 -0.6594 -0.1695
 1845TIP3    H129730   5.415   5.828   7.172  0.1437 -0.7262 -1.0099
 1845TIP3    H229731   5.473   5.699   7.117  0.4014 -1.1152  0.1563
 1846TIP3   OH229732   3.865   4.564   7.940  0.3414  0.6053 -0.1737
 1846TIP3    H129733   3.856   4.580   7.846 -0.1785  2.3254  0.1324
 1846TIP3    H229734   3.941   4.506   7.947  0.7394  0.9114 -1.6034
 1847TIP3   OH229735   6.722   3.062   7.687  0.3622 -0.5450  0.6366
 1847TIP3    H129736   6.640   3.033   7.646 -1.3974 -1.0831  4.1822
 1847TIP3    H229737   6.787   3.057   7.617 -2.4019 -1.0185 -2.1116
 1848TIP3   OH229738   3.742   7.666   8.734 -0.5517 -0.0121 -0.1238
 1848TIP3    H129739   3.733   7.571   8.733 -1.1118  0.0382 -0.9457
 1848TIP3    H229740   3.761   7.689   8.643  0.1725  0.6180  0.1700
 1849TIP3   OH229741   5.047   3.555   7.881  0.1420  0.1158  0.5664
 1849TIP3    H129742   5.076   3.640   7.850  0.1765  0.1897  0.8053
 1849TIP3    H229743   4.952   3.555   7.867  0.2993 -0.3175 -0.6914
 1850TIP3   OH229744   7.584   6.294   6.387 -0.1139  0.6562  0.2249
 1850TIP3    H129745   7.598   6.245   6.306 -1.8079 -1.2766  1.0049
 1850TIP3    H229746   7.546   6.230   6.447  0.0948  2.3065  2.2102
 1851TIP3   OH229747   6.702   2.681   7.287 -0.0147 -0.4752  0.0224
 1851TIP3    H129748   6.692   2.654   7.196  1.3947 -0.2741 -0.2263
 1851TIP3    H229749   6.730   2.773   7.282  1.1419 -0.7698  0.5868
 1852TIP3   OH229750   5.188   6.154   9.179 -0.4589 -0.5517  0.2822
 1852TIP3    H129751   5.151   6.066   9.190 -0.6709 -0.4773  0.1656
 1852TIP3    H229752   5.139   6.192   9.106 -1.1545  0.0805  1.0497
 1853TIP3   OH229753   7.618   4.966   9.397 -0.5011  1.2133 -0.2172
 1853TIP3    H129754   7.709   4.973   9.368 -0.7983  0.3651 -1.4682
 1853TIP3    H229755   7.608   4.873   9.420 -1.4678  0.9178 -1.6953
 1854TIP3   OH229756   3.699   0.175   6.658 -0.4043 -0.4083 -0.0812
 1854TIP3    H129757   3.683   0.123   6.579 -0.1025  0.4367 -0.7115
 1854TIP3    H229758   3.615   0.173   6.705 -0.8475 -0.2363 -0.8403
 1855TIP3   OH229759   4.391   6.646   8.868 -0.7201  0.2510 -0.3431
 1855TIP3    H129760   4.326   6.704   8.906 -0.5419  0.6140 -0.5936
 1855TIP3    H229761   4.455   6.704   8.826 -0.0544 -0.0865  0.1794
 1856TIP3   OH229762   5.477   3.087   6.958  0.3340 -0.1230 -0.3358
 1856TIP3    H129763   5.430   3.108   6.878 -0.7473 -1.4896 -0.0820
 1856TIP3    H229764   5.550   3.031   6.930  1.1457  1.0130 -0.5768
 1857TIP3   OH229765   3.907   0.958   8.219  0.1678 -0.5131 -0.0682
 1857TIP3    H129766   3.984   0.976   8.273 -0.6494 -1.4016  1.4701
 1857TIP3    H229767   3.849   1.032   8.234  0.5054 -0.0673 -0.8743
 1858TIP3   OH229768   1.082   2.496   8.816  0.1531  0.5826  0.4197
 1858TIP3    H129769   0.994   2.528   8.794  0.0763  0.2221  0.1942
 1858TIP3    H229770   1.130   2.574   8.841  0.2760  1.0475 -1.1298
 1859TIP3   OH229771   1.778   5.862   7.985 -0.3172 -0.6026 -0.5094
 1859TIP3    H129772   1.835   5.802   7.937  1.9288  1.8448 -1.1413
 1859TIP3    H229773   1.826   5.880   8.066 -1.8357 -0.9920  0.5304
 1860TIP3   OH229774   6.984   0.863   8.585  0.5312 -0.5072  0.3493
 1860TIP3    H129775   6.894   0.880   8.611  0.9480  0.0947  1.4524
 1860TIP3    H229776   7.001   0.772   8.610 -0.2781 -1.2017 -1.4297
 1861TIP3   OH229777   4.943   6.358   8.921  0.2110 -0.6518 -0.4670
 1861TIP3    H129778   4.904   6.444   8.911  0.7371 -0.2535  0.6904
 1861TIP3    H229779   5.037   6.373   8.913  0.3525 -0.9921  0.4630
 1862TIP3   OH229780   6.293   5.724   7.762 -0.2091  0.5683 -0.1716
 1862TIP3    H129781   6.380   5.761   7.755 -0.3067  0.4987 -3.0594
 1862TIP3    H229782   6.279   5.679   7.679 -1.8897 -1.9866  1.3353
 1863TIP3   OH229783   5.581   3.331   9.083  0.2413  0.6015 -0.1557
 1863TIP3    H129784   5.574   3.279   9.162  2.5056 -0.3585 -0.4871
 1863TIP3    H229785   5.520   3.291   9.021  0.3249 -0.2495  0.3040
 1864TIP3   OH229786   7.252   3.831   8.083 -0.1973 -0.1025  1.0661
 1864TIP3    H129787   7.312   3.878   8.025 -0.1736 -0.6147  0.6708
 1864TIP3    H229788   7.259   3.740   8.056 -2.8834  0.0891 -0.5619
 1865TIP3   OH229789   6.495   0.884   8.037 -0.1317  0.2246 -0.0219
 1865TIP3    H129790   6.410   0.839   8.034  0.1770 -0.3213 -1.0341
 1865TIP3    H229791   6.554   0.822   8.079 -0.1315  0.4240  0.2720
 1866TIP3   OH229792   0.612   3.655   8.874  1.0562 -0.2989  0.0620
 1866TIP3    H129793   0.605   3.559   8.873 -1.5810 -0.2081 -2.7421
 1866TIP3    H229794   0.591   3.681   8.785  0.2989  3.0056  1.0886
 1867TIP3   OH229795   6.980   6.972   8.426  0.0934 -0.4251 -0.1843
 1867TIP3    H129796   7.053   6.918   8.457 -0.9835 -1.1209  1.2070
 1867TIP3    H229797   6.924   6.912   8.377  0.5260  0.1548 -1.4432
 1868TIP3   OH229798   6.203   0.977   7.394  0.0405  0.0316 -0.0867
 1868TIP3    H129799   6.119   0.967   7.349 -0.8683  0.9382  1.3348
 1868TIP3    H229800   6.257   1.030   7.334 -0.5185 -0.2403 -0.8434
 1869TIP3   OH229801   2.953   0.971   7.215  0.1017 -0.0858  0.0735
 1869TIP3    H129802   2.887   0.975   7.146  0.5576  0.0100 -0.3612
 1869TIP3    H229803   3.035   0.959   7.168  0.3680 -0.4459  0.6241
 1870TIP3   OH229804   4.212   2.053   8.409  0.0183  0.4365 -0.2339
 1870TIP3    H129805   4.285   1.994   8.392 -0.1873  0.1721 -0.2072
 1870TIP3    H229806   4.136   1.996   8.417  0.0112  0.5836  1.0292
 1871TIP3   OH229807   4.643   4.688   9.472  0.1245 -0.6156 -0.1277
 1871TIP3    H129808   4.624   4.594   9.467  0.1188 -0.7594  1.8600
 1871TIP3    H229809   4.562   4.727   9.505 -0.0355  0.1980 -1.3879
 1872TIP3   OH229810   0.772   5.556   9.502  0.4287 -0.1143 -0.0446
 1872TIP3    H129811   0.865   5.537   9.517 -0.0201 -2.1565  0.4597
 1872TIP3    H229812   0.746   5.496   9.432 -0.9038 -0.7631  0.9781
 1873TIP3   OH229813   6.329   7.569   8.735  0.4737  0.3962  0.0526
 1873TIP3    H129814   6.402   7.627   8.715  1.7443 -1.8227 -2.4377
 1873TIP3    H229815   6.368   7.481   8.735 -2.0749 -0.8297 -0.7742
 1874TIP3   OH229816   0.901   0.862   7.317  0.0424  0.4560 -0.2058
 1874TIP3    H129817   0.942   0.790   7.270 -1.4660 -0.6534  0.1081
 1874TIP3    H229818   0.810   0.863   7.286  0.0294  2.2629 -0.2252
 1875TIP3   OH229819   2.178   4.225   8.934 -0.0993 -0.2958  0.6062
 1875TIP3    H129820   2.190   4.131   8.924  0.6103 -0.2220  0.7293
 1875TIP3    H229821   2.257   4.264   8.896 -0.2277  0.2345  0.8706
 1876TIP3   OH229822   1.222   5.507   9.136 -0.4383 -0.0822  0.2760
 1876TIP3    H129823   1.162   5.578   9.158  1.7444  1.8766  0.2123
 1876TIP3    H229824   1.292   5.514   9.200 -1.0990 -3.5420  1.5927
 1877TIP3   OH229825   2.463   1.671   8.145  0.4319  0.7011  0.1263
 1877TIP3    H129826   2.485   1.624   8.225 -0.7783 -2.0023 -1.0121
 1877TIP3    H229827   2.528   1.643   8.081  0.2790  1.3932 -0.3499
 1878TIP3   OH229828   5.277   6.118   7.419  0.2389 -0.6694 -0.1380
 1878TIP3    H129829   5.325   6.184   7.369 -1.0643  0.3346 -0.1357
 1878TIP3    H229830   5.241   6.166   7.493  1.3374 -1.9360  1.2652
 1879TIP3   OH229831   6.413   4.675   8.707  0.0125  0.1908  0.3306
 1879TIP3    H129832   6.376   4.707   8.789  1.1010 -0.6759  1.1997
 1879TIP3    H229833   6.506   4.694   8.713  0.1949 -0.3716 -0.4761
 1880TIP3   OH229834   2.337   1.822   7.572  0.1671  0.3106 -0.4494
 1880TIP3    H129835   2.343   1.887   7.502  1.1223  0.3391 -0.3572
 1880TIP3    H229836   2.259   1.772   7.552  1.2792 -0.7239 -2.4551
 1881TIP3   OH229837   6.395   4.545   8.391 -0.1719 -0.1376 -0.3587
 1881TIP3    H129838   6.389   4.451   8.408 -1.1426 -0.0466 -0.1459
 1881TIP3    H229839   6.340   4.586   8.458 -0.6686  0.5048 -1.1414
 1882TIP3   OH229840   2.071   5.676   8.416 -0.3325  0.2319  0.1630
 1882TIP3    H129841   2.127   5.610   8.457  1.3608  1.2064 -0.4335
 1882TIP3    H229842   2.082   5.754   8.470 -1.7838  0.2397  0.4855
 1883TIP3   OH229843   5.031   2.359   7.356 -0.0166 -0.3572 -0.4021
 1883TIP3    H129844   5.111   2.357   7.303 -0.7347 -1.0735 -1.4981
 1883TIP3    H229845   4.964   2.390   7.296 -0.5623  0.2651  0.5208
 1884TIP3   OH229846   0.745   2.059   8.591 -0.3367  0.2694 -0.1435
 1884TIP3    H129847   0.725   2.035   8.681  0.2462 -0.9348 -0.3137
 1884TIP3    H229848   0.826   2.110   8.598 -2.4164  3.8016  0.3837
 1885TIP3   OH229849   6.826   3.447   7.866  0.3123  0.1196  0.4377
 1885TIP3    H129850   6.731   3.452   7.850  0.5486 -0.6652 -1.4140
 1885TIP3    H229851   6.833   3.399   7.948 -0.8999  0.7906  0.9684
 1886TIP3   OH229852   5.318   1.119   8.422  0.5271  0.5137 -0.3565
 1886TIP3    H129853   5.226   1.143   8.410  0.7082  0.7824 -1.3212
 1886TIP3    H229854   5.345   1.085   8.337  0.4191 -2.7864  0.8070
 1887TIP3   OH229855   4.667   2.228   9.446  0.1029 -0.4709 -0.5964
 1887TIP3    H129856   4.617   2.148   9.461  0.1505 -0.6086 -1.1222
 1887TIP3    H229857   4.608   2.299   9.470 -1.1791 -0.5279 -3.1813
 1888TIP3   OH229858   6.312   1.134   7.903  0.1125 -0.1230  0.4402
 1888TIP3    H129859   6.329   1.221   7.866 -0.6696 -1.0137 -2.2384
 1888TIP3    H229860   6.220   1.117   7.885  0.1461 -1.3598  1.2865
 1889TIP3   OH229861   6.783   5.938   7.372  0.4257  0.0011 -0.0638
 1889TIP3    H129862   6.751   5.878   7.305  0.7904  0.0367 -0.2673
 1889TIP3    H229863   6.842   5.885   7.426  0.4197  0.0686  0.0101
 1890TIP3   OH229864   4.734   6.515   7.960  0.6756 -0.3799  0.4444
 1890TIP3    H129865   4.656   6.554   7.922  1.0732  0.2028  0.2112
 1890TIP3    H229866   4.790   6.496   7.885  0.1173 -2.2882  0.4530
 1891TIP3   OH229867   2.117   7.012   9.073  0.2613 -0.7794  0.4190
 1891TIP3    H129868   2.067   7.052   9.001  0.9475  0.7163  0.7184
 1891TIP3    H229869   2.128   7.083   9.136  0.2607 -1.8835  1.7035
 1892TIP3   OH229870   0.141   4.786   9.083 -0.1409 -0.1869 -0.4717
 1892TIP3    H129871   0.193   4.707   9.096  2.4057  1.4353 -0.1136
 1892TIP3    H229872   0.131   4.824   9.170 -1.0436  0.0794 -0.6808
 1893TIP3   OH229873   1.202   6.446   8.352 -0.0533 -0.5461 -0.7998
 1893TIP3    H129874   1.232   6.356   8.337  0.9888  0.0669 -2.9724
 1893TIP3    H229875   1.263   6.481   8.417 -1.1125 -1.6669  0.8645
 1894TIP3   OH229876   0.083   6.044   7.707  0.0605  0.0544  0.1416
 1894TIP3    H129877   0.119   6.100   7.637 -1.2147 -0.1619 -0.7287
 1894TIP3    H229878   0.151   6.042   7.773  0.5173  1.9190 -0.2072
 1895TIP3   OH229879   4.199   0.642   9.278 -0.0475 -0.4333  0.1367
 1895TIP3    H129880   4.155   0.725   9.256  1.6977  0.7752  0.9548
 1895TIP3    H229881   4.208   0.596   9.194  0.1932  0.8509 -0.5690
 1896TIP3   OH229882   1.241   5.269   7.794 -0.2051  0.2640 -0.3850
 1896TIP3    H129883   1.281   5.350   7.762 -0.3795  0.1345 -0.9486
 1896TIP3    H229884   1.281   5.255   7.880  0.8821  0.1888 -0.8858
 1897TIP3   OH229885   1.033   1.900   8.725 -0.0812 -0.2523  0.1909
 1897TIP3    H129886   1.007   1.990   8.703  2.5840  0.1941 -1.7398
 1897TIP3    H229887   1.078   1.869   8.646  0.6665 -2.6375  1.4671
 1898TIP3   OH229888   1.356   6.963   8.455 -0.0213  0.6368 -0.9778
 1898TIP3    H129889   1.423   7.010   8.405  0.2128 -0.4700 -1.7281
 1898TIP3    H229890   1.285   6.948   8.393  0.3506 -0.9121 -1.0654
 1899TIP3   OH229891   5.859   4.438   9.248  0.1428  0.1728 -0.1236
 1899TIP3    H129892   5.854   4.383   9.326 -0.3945  1.7845  1.0261
 1899TIP3    H229893   5.936   4.493   9.263 -0.7516  1.4411 -0.0571
 1900TIP3   OH229894   4.445   2.084   9.515 -0.5542 -0.3794 -0.3837
 1900TIP3    H129895   4.378   2.021   9.488 -1.5067  1.1291 -1.7451
 1900TIP3    H229896   4.396   2.152   9.561  0.2849 -0.0245 -0.0005
 1901TIP3   OH229897   5.212   1.085   9.123 -0.2325  0.4331  0.4267
 1901TIP3    H129898   5.280   1.081   9.190  0.6456  1.8995 -0.3228
 1901TIP3    H229899   5.143   1.026   9.155  0.3880  0.6585  2.3302
 1902TIP3   OH229900   1.773   0.333   7.976 -0.1463  0.1825 -0.0731
 1902TIP3    H129901   1.701   0.341   8.039 -1.5815  0.4792 -1.6805
 1902TIP3    H229902   1.747   0.260   7.920  0.9857  0.0813 -0.4906
 1903TIP3   OH229903   7.331   0.727   7.584  0.3257 -0.7341 -0.4329
 1903TIP3    H129904   7.405   0.730   7.523 -0.4629 -0.5418 -1.4298
 1903TIP3    H229905   7.273   0.797   7.553 -1.4362 -2.4717 -1.2617
 1904TIP3   OH229906   0.667   3.763   7.423 -0.4404 -0.3534 -0.2897
 1904TIP3    H129907   0.753   3.793   7.450 -1.3797  2.6492 -0.3072
 1904TIP3    H229908   0.673   3.754   7.328 -0.6112  1.6601 -0.5147
 1905TIP3   OH229909   2.051   1.363   9.180 -0.1946  0.3869  0.4132
 1905TIP3    H129910   2.144   1.345   9.188 -0.4105 -0.4537  1.2171
 1905TIP3    H229911   2.014   1.284   9.141 -0.3207  1.4568 -1.8085
 1906TIP3   OH229912   3.044   3.716   8.698 -0.4251  0.5597 -0.2573
 1906TIP3    H129913   3.029   3.632   8.742  1.6635  0.6107  0.6806
 1906TIP3    H229914   2.959   3.760   8.701 -1.3228 -1.1151  0.1063
 1907TIP3   OH229915   5.605   3.495   7.314  0.3499 -0.1952 -0.2711
 1907TIP3    H129916   5.551   3.420   7.288  0.1679  0.0552 -0.6231
 1907TIP3    H229917   5.693   3.473   7.282  0.4008 -0.4848  0.0703
 1908TIP3   OH229918   7.184   2.123   7.849  0.0918 -0.0707  0.1226
 1908TIP3    H129919   7.132   2.086   7.778 -0.4434  2.7788 -1.0696
 1908TIP3    H229920   7.264   2.154   7.807  0.6324 -0.0478  1.1231
 1909TIP3   OH229921   2.138   0.077   8.789 -0.4139 -0.2178 -0.1284
 1909TIP3    H129922   2.076   0.147   8.811 -0.0958 -0.2070  0.8108
 1909TIP3    H229923   2.098  -0.002   8.826  0.4937 -0.0809  1.2106
 1910TIP3   OH229924   2.555   0.673   7.800  0.4603 -0.0980 -0.5671
 1910TIP3    H129925   2.550   0.685   7.895 -0.6884  0.7675 -0.7092
 1910TIP3    H229926   2.644   0.699   7.777  1.3822 -2.1093  0.4796
 1911TIP3   OH229927   3.130   1.154   7.668  0.2619  0.1710 -0.5752
 1911TIP3    H129928   3.142   1.061   7.649  1.6045  0.7007 -2.6124
 1911TIP3    H229929   3.037   1.162   7.690 -0.0522 -1.5190 -1.1170
 1912TIP3   OH229930   3.973   6.894   8.833  0.1362 -0.1611 -0.1736
 1912TIP3    H129931   3.998   6.985   8.820  1.6170 -0.8678 -3.4524
 1912TIP3    H229932   4.043   6.857   8.887  0.1955  0.3502  0.0987
 1913TIP3   OH229933   1.803   4.089   8.256 -0.0643 -0.1440 -0.6031
 1913TIP3    H129934   1.887   4.123   8.225 -1.5518  2.2159 -2.3829
 1913TIP3    H229935   1.740   4.114   8.189 -2.2575 -1.7337  0.7112
 1914TIP3   OH229936   7.431   1.968   8.625 -0.0798 -1.1770 -0.0091
 1914TIP3    H129937   7.344   2.002   8.646  1.3468  2.2700  1.1517
 1914TIP3    H229938   7.464   1.934   8.708  0.7044  0.2997  0.3253
 1915TIP3   OH229939   4.267   4.403   9.445 -0.0416 -0.2120  0.0204
 1915TIP3    H129940   4.213   4.414   9.368  0.0213 -1.2935 -0.1948
 1915TIP3    H229941   4.263   4.309   9.465  0.9584 -0.1618  0.5713
 1916TIP3   OH229942   6.601   6.459   8.595  0.4774 -0.1244  0.6206
 1916TIP3    H129943   6.565   6.547   8.602  0.3192 -0.1245 -0.0849
 1916TIP3    H229944   6.528   6.406   8.562  0.3493 -0.6772  1.7449
 1917TIP3   OH229945   2.179   5.675   7.239 -0.6448  0.1136 -0.0770
 1917TIP3    H129946   2.215   5.740   7.178 -1.0751  1.5441  1.1133
 1917TIP3    H229947   2.249   5.611   7.250  1.3564  2.3939  1.5913
 1918TIP3   OH229948   6.096   6.096   7.772  0.2989 -0.3573  0.3230
 1918TIP3    H129949   6.138   6.046   7.843 -0.8054 -0.3880  0.9725
 1918TIP3    H229950   6.003   6.079   7.782 -0.0444  1.1819  0.0517
 1919TIP3   OH229951   3.738   5.431   8.054  0.4701 -0.5107 -0.0674
 1919TIP3    H129952   3.725   5.341   8.083  0.5174 -0.3596  0.4247
 1919TIP3    H229953   3.794   5.424   7.976  0.1844 -0.9284 -0.2382
 1920TIP3   OH229954   6.359   1.818   7.857 -0.0115  0.6153 -0.4554
 1920TIP3    H129955   6.283   1.855   7.902 -0.0571  0.2885 -0.2638
 1920TIP3    H229956   6.416   1.893   7.840  0.2740  0.6625  0.6587
 1921TIP3   OH229957   2.467   1.345   8.754 -0.2766  0.1407 -0.2878
 1921TIP3    H129958   2.544   1.387   8.793 -0.1913 -1.7236  1.7398
 1921TIP3    H229959   2.494   1.328   8.663  1.5526 -0.0464  0.2365
 1922TIP3   OH229960   4.611   6.521   7.118  0.2418  0.0396  0.0296
 1922TIP3    H129961   4.673   6.530   7.191 -0.3693 -1.2264  0.7332
 1922TIP3    H229962   4.644   6.447   7.067  1.0344  1.3209 -1.4010
 1923TIP3   OH229963   6.455   5.310   8.633 -0.0186  0.0663  0.2131
 1923TIP3    H129964   6.480   5.357   8.713  2.4614 -0.9327  0.0825
 1923TIP3    H229965   6.485   5.221   8.647 -2.3609 -0.9326 -0.6104
 1924TIP3   OH229966   6.610   6.371   8.892  0.3143 -0.4982 -0.6580
 1924TIP3    H129967   6.601   6.466   8.898  0.4942 -0.4564 -1.0235
 1924TIP3    H229968   6.659   6.357   8.811 -0.5895 -0.9532 -1.1359
 1925TIP3   OH229969   6.301   0.661   9.612 -0.7527  0.3332 -0.8951
 1925TIP3    H129970   6.306   0.622   9.699 -1.0734 -1.3826 -1.5856
 1925TIP3    H229971   6.372   0.725   9.609 -0.3880  0.0144  0.4292
 1926TIP3   OH229972   1.084   6.910   8.959 -0.2379  0.6320 -0.0621
 1926TIP3    H129973   1.010   6.969   8.946  1.4279  2.7843 -0.3527
 1926TIP3    H229974   1.144   6.960   9.015  0.3008 -1.7048  1.6162
 1927TIP3   OH229975   2.109   5.873   8.839 -0.1267 -0.4682  0.1303
 1927TIP3    H129976   2.091   5.805   8.904 -1.9546 -1.5037 -1.3572
 1927TIP3    H229977   2.202   5.862   8.818  0.2923 -0.6357  1.9351
 1928TIP3   OH229978   5.571   6.103   8.315 -0.7721  0.0169  0.0232
 1928TIP3    H129979   5.559   6.197   8.323  0.9620  0.1684  1.6186
 1928TIP3    H229980   5.661   6.092   8.286 -0.9804 -1.1638 -0.2632
 1929TIP3   OH229981   1.885   2.793   7.767  0.4958  0.3738  0.3330
 1929TIP3    H129982   1.872   2.888   7.763  1.1805  0.4481 -0.3972
 1929TIP3    H229983   1.960   2.777   7.710 -0.6632 -0.8265 -0.9105
 1930TIP3   OH229984   5.140   2.646   9.830 -0.1844 -0.4109 -0.2842
 1930TIP3    H129985   5.178   2.570   9.786 -0.2789 -0.0899 -0.9378
 1930TIP3    H229986   5.098   2.610   9.909  0.8624 -0.8620  0.0855
 1931TIP3   OH229987   5.075   5.537   9.101 -0.4571  0.4590  0.1424
 1931TIP3    H129988   5.065   5.453   9.146  0.6519 -0.2372 -0.8433
 1931TIP3    H229989   5.011   5.594   9.143 -0.1272 -0.4099  1.9407
 1932TIP3   OH229990   2.268   1.210   8.887 -0.0628 -0.2198 -0.1511
 1932TIP3    H129991   2.346   1.252   8.849 -1.4745  2.5670 -0.2099
 1932TIP3    H229992   2.264   1.243   8.977 -1.6865  0.5039 -0.4531
 1933TIP3   OH229993   0.790   5.847   9.429  0.4019  0.4331 -0.7210
 1933TIP3    H129994   0.764   5.845   9.337 -0.1621  1.1790 -0.5862
 1933TIP3    H229995   0.748   5.770   9.467  0.4506  0.2463 -1.0454
 1934TIP3   OH229996   5.857   2.239   9.487 -0.2454 -0.9120 -0.0809
 1934TIP3    H129997   5.936   2.188   9.507 -0.1578 -0.4707  0.7850
 1934TIP3    H229998   5.889   2.314   9.438  0.0196 -0.2558  1.0580
 1935TIP3   OH229999   2.170   2.380   8.449  0.0244  0.2688  0.1438
 1935TIP3    H130000   2.124   2.388   8.533  1.3717 -2.3893  1.2572
 1935TIP3    H230001   2.175   2.470   8.416 -0.1097  1.5138  3.1581
 1936TIP3   OH230002   7.626   1.211   8.320 -0.0666 -0.5733  0.6035
 1936TIP3    H130003   7.663   1.176   8.401  0.7320  0.9654  0.9543
 1936TIP3    H230004   7.580   1.290   8.348 -1.3178 -0.9888 -0.2181
 1937TIP3   OH230005   0.821   0.033   8.955  0.1963 -0.1110  0.0597
 1937TIP3    H130006   0.728   0.053   8.962 -0.3373 -2.5494  1.2380
 1937TIP3    H230007   0.857   0.055   9.041  0.8500  1.2645 -0.5360
 1938TIP3   OH230008   4.378   3.066   7.482  0.1244 -0.2401 -0.7191
 1938TIP3    H130009   4.456   3.099   7.438 -0.5155 -0.7148 -2.2797
 1938TIP3    H230010   4.347   3.139   7.535  0.5779  0.5773 -1.5548
 1939TIP3   OH230011   5.048   0.539   8.914 -0.1385 -0.3929 -0.7483
 1939TIP3    H130012   5.121   0.538   8.976 -1.5743 -1.7288  1.0145
 1939TIP3    H230013   5.069   0.469   8.852  1.0309  0.5893 -1.5256
 1940TIP3   OH230014   7.026   6.344   8.824  0.2838 -0.5414 -0.3237
 1940TIP3    H130015   7.040   6.420   8.880 -1.7337 -0.0265 -0.4303
 1940TIP3    H230016   6.996   6.380   8.741  1.4757 -1.3838 -1.1600
 1941TIP3   OH230017   1.765   2.267   8.364 -0.0974  0.2162  0.1177
 1941TIP3    H130018   1.803   2.221   8.289 -0.3931  0.6710 -0.3086
 1941TIP3    H230019   1.815   2.233   8.439  0.2813 -0.1504 -0.2896
 1942TIP3   OH230020   5.077   1.461   7.745 -0.1942 -0.1176  0.6166
 1942TIP3    H130021   5.138   1.477   7.816  1.3621  1.5402 -0.9834
 1942TIP3    H230022   5.009   1.528   7.756 -1.2358 -1.3233  1.8135
 1943TIP3   OH230023   1.336   2.795   9.536  0.0279 -0.4896 -0.7239
 1943TIP3    H130024   1.280   2.837   9.470 -1.2287 -0.7817  0.1211
 1943TIP3    H230025   1.287   2.718   9.563 -0.9632  1.1169  2.6466
 1944TIP3   OH230026   1.804   1.061   8.343 -0.2588 -0.5137 -0.1073
 1944TIP3    H130027   1.815   1.134   8.403  1.6229 -0.7730 -0.0750
 1944TIP3    H230028   1.728   1.014   8.377 -1.1536  1.0867  0.2000
 1945TIP3   OH230029   5.523   2.067   9.061 -0.3282  0.1941  0.3408
 1945TIP3    H130030   5.574   2.070   9.142 -0.1944  1.8502  0.2238
 1945TIP3    H230031   5.433   2.054   9.090 -0.0129 -1.7813  0.5947
 1946TIP3   OH230032   7.608   1.647   9.327 -0.1763  0.6993  0.4688
 1946TIP3    H130033   7.698   1.648   9.293 -0.0759 -1.0550  0.6248
 1946TIP3    H230034   7.558   1.597   9.263 -0.7772  0.5560  1.0353
 1947TIP3   OH230035   3.635   5.544   7.084 -0.5334  0.0387 -0.0539
 1947TIP3    H130036   3.551   5.589   7.082 -0.8312 -0.5269 -0.4116
 1947TIP3    H230037   3.674   5.570   7.168 -1.1046  0.2207  0.1603
 1948TIP3   OH230038   4.371   3.478   8.626 -0.0660  0.0817 -0.0090
 1948TIP3    H130039   4.412   3.532   8.693  0.8871  0.3684 -0.7980
 1948TIP3    H230040   4.280   3.508   8.623 -0.1140  0.0943  1.1013
 1949TIP3   OH230041   5.386   0.056   7.675 -0.2497 -0.3457 -0.2851
 1949TIP3    H130042   5.348  -0.024   7.712 -0.7051  0.9769  2.3993
 1949TIP3    H230043   5.448   0.025   7.610 -2.4837 -2.7526 -1.4513
 1950TIP3   OH230044   1.928   1.714   7.271 -0.0107  0.3171  0.6466
 1950TIP3    H130045   1.895   1.660   7.199  2.1200  0.7119 -0.7001
 1950TIP3    H230046   1.849   1.753   7.309 -1.4518 -2.2999  0.5410
 1951TIP3   OH230047   2.863   7.604   8.320 -0.7001 -0.0176 -0.5653
 1951TIP3    H130048   2.775   7.626   8.289 -2.1093 -2.2965  1.4867
 1951TIP3    H230049   2.900   7.549   8.251 -0.9222  0.7559 -1.3280
 1952TIP3   OH230050   1.826   1.649   8.546  0.5659 -0.5727 -0.4007
 1952TIP3    H130051   1.753   1.656   8.484  0.0867 -0.7676  0.1266
 1952TIP3    H230052   1.835   1.736   8.583  0.7831 -0.4815 -0.6693
 1953TIP3   OH230053   3.239   4.375   8.086 -0.1454  0.6312 -0.3104
 1953TIP3    H130054   3.297   4.435   8.039  0.6936  0.9523  1.1025
 1953TIP3    H230055   3.292   4.297   8.101 -0.3106  0.6367  0.3363
 1954TIP3   OH230056   7.033   4.306   9.293 -0.0802  0.2971  0.0781
 1954TIP3    H130057   7.026   4.210   9.295  0.3010  0.2226 -1.3598
 1954TIP3    H230058   6.998   4.334   9.378 -0.8367 -1.0780  0.2492
 1955TIP3   OH230059   2.900   3.704   9.086  0.1520 -0.1769  0.2533
 1955TIP3    H130060   2.947   3.758   9.150 -1.9096  1.0801  0.8002
 1955TIP3    H230061   2.909   3.752   9.003 -0.9429  0.6091  0.5628
 1956TIP3   OH230062   3.568   1.187   9.357 -0.0209 -0.1538  0.2960
 1956TIP3    H130063   3.552   1.096   9.333  0.6885  0.4887 -3.0788
 1956TIP3    H230064   3.660   1.189   9.382  0.1224 -0.2626 -0.2173
 1957TIP3   OH230065   1.153   5.915   7.693 -0.2297 -0.8537 -0.6005
 1957TIP3    H130066   1.144   6.008   7.671  2.7491 -0.6047 -1.1143
 1957TIP3    H230067   1.189   5.876   7.614  1.4821 -1.8174  0.5990
 1958TIP3   OH230068   0.016   0.126   7.172 -0.0106 -0.4163  0.0978
 1958TIP3    H130069   0.022   0.038   7.133  1.4540  0.1009 -0.9252
 1958TIP3    H230070   0.072   0.180   7.117 -0.0529  0.9468  1.3423
 1959TIP3   OH230071   5.794   4.186   9.108 -0.2510  0.3529  0.1648
 1959TIP3    H130072   5.787   4.274   9.145  2.3972  0.5018  0.4871
 1959TIP3    H230073   5.858   4.141   9.164 -1.6275 -1.8728  0.1022
 1960TIP3   OH230074   2.870   4.348   8.138  0.6008  0.0615 -0.2264
 1960TIP3    H130075   2.925   4.318   8.210 -1.4447 -0.0902  1.3559
 1960TIP3    H230076   2.917   4.423   8.102  0.5180  1.8055  2.9601
 1961TIP3   OH230077   3.314   0.830   8.551  0.0257  0.0035 -0.0756
 1961TIP3    H130078   3.350   0.918   8.536  0.7312 -0.4678 -1.2475
 1961TIP3    H230079   3.228   0.832   8.507  0.4674 -0.1838 -0.9797
 1962TIP3   OH230080   1.818   2.328   9.170  0.1841 -0.2939 -0.7749
 1962TIP3    H130081   1.865   2.264   9.223  0.2041 -1.2595 -1.9286
 1962TIP3    H230082   1.761   2.373   9.233  2.2437  0.5853  0.5753
 1963TIP3   OH230083   5.972   0.029   8.053  0.3277  0.1695  0.0386
 1963TIP3    H130084   5.898   0.077   8.016 -0.4382 -0.5332  0.6253
 1963TIP3    H230085   5.953   0.024   8.147  0.2842 -1.4579 -0.0277
 1964TIP3   OH230086   3.233   5.819   8.606 -0.2546 -0.4337 -0.2350
 1964TIP3    H130087   3.210   5.865   8.687  0.7352 -0.8327  0.2971
 1964TIP3    H230088   3.307   5.763   8.631 -0.0214 -0.6624 -1.3917
 1965TIP3   OH230089   5.826   7.102   9.252  0.1342 -0.6121 -0.5399
 1965TIP3    H130090   5.779   7.030   9.294  1.7797 -1.0730  0.6296
 1965TIP3    H230091   5.881   7.060   9.186  0.7468 -0.4027 -0.1787
 1966TIP3   OH230092   2.848   0.752   9.558  0.4046 -0.4077  0.4978
 1966TIP3    H130093   2.877   0.840   9.534 -0.0793 -0.6473 -1.0559
 1966TIP3    H230094   2.753   0.757   9.561  0.3864 -0.8062  0.7247
 1967TIP3   OH230095   5.826   0.936   8.822 -0.7795  1.2764  0.4312
 1967TIP3    H130096   5.784   1.007   8.772 -1.3347  0.7471  0.1382
 1967TIP3    H230097   5.770   0.860   8.807 -0.1053  0.7372  0.6310
 1968TIP3   OH230098   2.395   6.327   7.624  0.1317  0.0636  0.3261
 1968TIP3    H130099   2.323   6.265   7.638 -0.1670  0.5048  0.7817
 1968TIP3    H230100   2.474   6.277   7.643 -0.1051 -0.1701  0.7072
 1969TIP3   OH230101   1.636   1.572   7.524 -0.1817  0.1356  0.2101
 1969TIP3    H130102   1.682   1.516   7.587  1.0683 -0.1767 -0.9223
 1969TIP3    H230103   1.660   1.662   7.550  0.7368 -0.0075 -0.0856
 1970TIP3   OH230104   1.264   3.505   8.146  0.0777 -0.4207  0.3216
 1970TIP3    H130105   1.279   3.522   8.239  2.3179  1.4945 -0.2631
 1970TIP3    H230106   1.260   3.410   8.139 -0.0219 -0.6099  2.3553
 1971TIP3   OH230107   1.877   2.120   8.150  0.3729  0.5537  0.8394
 1971TIP3    H130108   1.866   2.088   8.060  0.7704 -1.8715  1.5950
 1971TIP3    H230109   1.945   2.187   8.142 -0.5103  1.3277 -0.8353
 1972TIP3   OH230110   3.989   3.244   9.613  0.4661  0.4906  0.7823
 1972TIP3    H130111   3.950   3.220   9.528  1.3695  0.9290  0.2331
 1972TIP3    H230112   4.038   3.166   9.639  1.9893  1.0986 -0.1725
 1973TIP3   OH230113   4.844   4.833   8.681 -0.0528  0.2324  0.5452
 1973TIP3    H130114   4.831   4.765   8.746 -1.2945  1.4331  1.6086
 1973TIP3    H230115   4.872   4.910   8.731  1.4554  0.5112 -0.6337
 1974TIP3   OH230116   3.253   4.337   9.400 -0.1769 -0.2995  0.2901
 1974TIP3    H130117   3.202   4.294   9.332 -1.8955  0.3061  1.1406
 1974TIP3    H230118   3.338   4.355   9.359 -1.1103 -0.0724 -1.6409
 1975TIP3   OH230119   2.395   1.533   7.810 -0.2918  0.5916 -0.1334
 1975TIP3    H130120   2.310   1.570   7.835 -1.3962 -1.8749  0.0294
 1975TIP3    H230121   2.381   1.497   7.723  0.2090 -0.8153  0.3342
 1976TIP3   OH230122   7.439   0.198   6.671 -0.1534 -0.3698 -0.0963
 1976TIP3    H130123   7.367   0.250   6.637  1.1734  1.9090  0.3236
 1976TIP3    H230124   7.409   0.108   6.665 -3.0902  0.4762  0.2390
 1977TIP3   OH230125   1.031   7.119   6.987  0.0134  0.3792 -0.2686
 1977TIP3    H130126   0.948   7.079   6.959 -0.0169 -0.5380  1.0323
 1977TIP3    H230127   1.063   7.061   7.056  0.9984  1.5382  0.2797
 1978TIP3   OH230128   0.510   3.795   8.587 -0.2885 -0.1419  0.0401
 1978TIP3    H130129   0.509   3.885   8.621  1.1514  0.2126 -0.7730
 1978TIP3    H230130   0.419   3.766   8.595 -1.3180  2.2196 -1.8120
 1979TIP3   OH230131   5.506   5.528   9.179  0.0077 -0.3974 -0.3270
 1979TIP3    H130132   5.502   5.623   9.183  3.7475 -0.0787 -0.3650
 1979TIP3    H230133   5.496   5.499   9.270  3.1386  0.4778  0.4093
 1980TIP3   OH230134   2.767   3.863   8.333  0.3656 -0.1352 -0.4969
 1980TIP3    H130135   2.726   3.938   8.375  0.3710  0.1479 -0.9926
 1980TIP3    H230136   2.860   3.869   8.357  0.4090  0.1524 -0.7356
 1981TIP3   OH230137   5.726   1.680   7.839 -0.0259 -0.3526  0.6399
 1981TIP3    H130138   5.648   1.639   7.801 -0.3251  1.7639 -1.2574
 1981TIP3    H230139   5.796   1.618   7.824 -1.1921 -2.0559  1.8668
 1982TIP3   OH230140   0.310   6.515   8.632 -0.3241  0.7583  0.4258
 1982TIP3    H130141   0.335   6.438   8.581 -0.0712  2.2002 -1.7626
 1982TIP3    H230142   0.392   6.556   8.656 -0.4604  0.4008  1.5439
 1983TIP3   OH230143   4.027   4.887   6.917  0.5880  0.1074  0.0166
 1983TIP3    H130144   3.958   4.823   6.902  0.2294  0.7615 -1.2559
 1983TIP3    H230145   4.102   4.835   6.947 -0.3234 -0.6432  1.0954
 1984TIP3   OH230146   4.472   0.136   9.562 -0.2696  0.3596  0.1136
 1984TIP3    H130147   4.527   0.204   9.600  0.1145  0.1766 -0.1089
 1984TIP3    H230148   4.387   0.179   9.548  0.4421  1.3081 -1.5875
 1985TIP3   OH230149   6.982   4.158   6.703 -0.2455  0.1131  0.3704
 1985TIP3    H130150   7.029   4.076   6.690  0.0669  0.5001 -1.2084
 1985TIP3    H230151   6.893   4.132   6.727 -0.6504 -0.7711 -1.8554
 1986TIP3   OH230152   3.559   5.550   9.092 -0.2306 -0.0546 -0.5498
 1986TIP3    H130153   3.481   5.580   9.139  0.7804  1.1057  0.4678
 1986TIP3    H230154   3.574   5.461   9.123 -0.8023 -0.0722 -0.3118
 1987TIP3   OH230155   2.473   5.237   7.680 -0.0596 -0.7204  0.1203
 1987TIP3    H130156   2.412   5.191   7.623 -1.7617  0.4480  0.9092
 1987TIP3    H230157   2.437   5.226   7.768  0.5359  0.4891  0.5406
 1988TIP3   OH230158   7.400   3.964   7.920 -0.0846  0.1643  0.4916
 1988TIP3    H130159   7.489   4.001   7.923  0.8203 -1.7542 -0.5592
 1988TIP3    H230160   7.369   3.985   7.832  0.5088 -1.5932 -0.1808
 1989TIP3   OH230161   1.889   2.806   7.314 -0.5404 -0.3101  0.1885
 1989TIP3    H130162   1.815   2.790   7.372 -0.6619  1.3386  0.5379
 1989TIP3    H230163   1.911   2.898   7.328 -0.0833 -0.0612 -1.8332
 1990TIP3   OH230164   1.707   1.848   7.387  0.1847  0.0405 -0.3806
 1990TIP3    H130165   1.615   1.829   7.370  0.2629 -0.9286  0.2129
 1990TIP3    H230166   1.716   1.843   7.482  0.8066  0.3145 -0.4182
 1991TIP3   OH230167   5.226   4.148   7.418 -0.5961 -0.2212  0.0406
 1991TIP3    H130168   5.274   4.202   7.482 -0.0480  0.1008 -0.6298
 1991TIP3    H230169   5.276   4.158   7.337 -2.0026  0.4236 -0.7785
 1992TIP3   OH230170   2.175   7.496   8.534 -0.1341 -0.1098  0.2779
 1992TIP3    H130171   2.263   7.482   8.570 -0.4454  0.7081  1.3850
 1992TIP3    H230172   2.118   7.442   8.588 -0.0965 -2.7458 -2.0224
 1993TIP3   OH230173   0.100   3.671   9.070  0.2406 -0.0616  0.0626
 1993TIP3    H130174   0.144   3.713   8.996 -1.0343  1.1052 -0.0629
 1993TIP3    H230175   0.151   3.700   9.146 -0.6658  1.8901 -0.0088
 1994TIP3   OH230176   0.260   4.532   8.171  0.4983 -0.2899 -0.2746
 1994TIP3    H130177   0.184   4.531   8.113  0.7107  0.2001 -0.5784
 1994TIP3    H230178   0.238   4.472   8.242 -1.7442  2.4938  1.6193
 1995TIP3   OH230179   0.675   6.547   8.122  0.2982 -0.0158  0.3722
 1995TIP3    H130180   0.629   6.482   8.176  0.9365 -1.5358 -0.8329
 1995TIP3    H230181   0.767   6.521   8.128  0.7665  1.6757  1.0064
 1996TIP3   OH230182   4.804   7.629   7.796  0.2164 -0.5989 -0.3687
 1996TIP3    H130183   4.808   7.534   7.794  0.8363 -0.7331  2.5808
 1996TIP3    H230184   4.895   7.658   7.795  0.0629 -0.0925 -0.2816
 1997TIP3   OH230185   6.539   5.033   7.980  0.8910 -0.1543 -0.2271
 1997TIP3    H130186   6.619   5.070   8.017  1.7072 -0.5910 -1.5024
 1997TIP3    H230187   6.483   5.109   7.964  0.5159  0.0545  1.8120
 1998TIP3   OH230188   0.952   1.613   8.685 -0.2107  0.0694 -0.5550
 1998TIP3    H130189   0.892   1.585   8.754  0.6980  0.5551  0.4593
 1998TIP3    H230190   0.948   1.709   8.687 -0.0936  0.0868 -1.0946
 1999TIP3   OH230191   6.713   4.811   6.678  0.2656 -0.7014  0.0806
 1999TIP3    H130192   6.655   4.772   6.613 -0.1751 -2.2994  1.3675
 1999TIP3    H230193   6.801   4.798   6.642 -0.0469  0.2051 -1.0824
 2000TIP3   OH230194   1.788   4.374   9.268  0.1252 -0.5203  0.1773
 2000TIP3    H130195   1.850   4.327   9.211 -1.2945 -0.3696 -1.5728
 2000TIP3    H230196   1.713   4.315   9.274 -1.0389  0.8315 -0.7504
 2001TIP3   OH230197   0.997   7.253   9.217 -0.6217  0.0783  0.6642
 2001TIP3    H130198   1.092   7.242   9.215 -0.2593  2.4386 -2.2189
 2001TIP3    H230199   0.982   7.318   9.286 -0.1396 -0.2602  1.0974
 2002TIP3   OH230200   1.106   6.783   8.208 -0.1018  1.4445  1.0673
 2002TIP3    H130201   1.121   6.810   8.299  1.8103 -0.7076  1.5075
 2002TIP3    H230202   1.071   6.694   8.216  2.4338  0.2302 -0.2240
 2003TIP3   OH230203   1.821   5.720   7.252 -0.0932 -1.1130  0.3624
 2003TIP3    H130204   1.828   5.767   7.169  3.2763 -1.0942  0.5171
 2003TIP3    H230205   1.858   5.780   7.317 -1.8243 -1.4882  1.7733
 2004TIP3   OH230206   1.899   6.950   7.149 -0.4582  0.0435 -0.6275
 2004TIP3    H130207   1.965   6.882   7.140  1.7133  1.5803  2.1417
 2004TIP3    H230208   1.922   7.015   7.083  0.5838  0.3536  0.0185
 2005TIP3   OH230209   5.259   5.729   9.044  0.2586 -0.5074 -0.1530
 2005TIP3    H130210   5.201   5.758   8.974 -0.0194 -0.1737  0.2094
 2005TIP3    H230211   5.214   5.655   9.084 -1.2180  1.3304  1.8084
 2006TIP3   OH230212   3.969   1.893   7.051 -0.0463  0.1381 -0.5813
 2006TIP3    H130213   4.039   1.955   7.034 -0.7972  0.6001 -2.1965
 2006TIP3    H230214   3.889   1.943   7.037 -0.6842 -0.8543 -0.5634
 2007TIP3   OH230215   2.124   5.506   9.499 -0.0256  0.2706 -0.2184
 2007TIP3    H130216   2.053   5.569   9.495  0.5156  1.0251  1.1936
 2007TIP3    H230217   2.191   5.540   9.440 -0.1524  0.4879 -0.2351
 2008TIP3   OH230218   6.368   2.814   8.526  0.2549 -0.0638  0.4847
 2008TIP3    H130219   6.339   2.858   8.447 -0.0759  0.6197  0.9753
 2008TIP3    H230220   6.294   2.822   8.586  0.3763 -0.8523  0.7629
 2009TIP3   OH230221   0.874   5.814   7.736  0.4144  0.8263  0.2393
 2009TIP3    H130222   0.962   5.823   7.699 -0.2937  1.5705 -1.3744
 2009TIP3    H230223   0.844   5.728   7.705  0.3301  0.8530  0.2477
 2010TIP3   OH230224   6.870   5.641   9.337 -0.2243  0.1273 -0.1823
 2010TIP3    H130225   6.835   5.568   9.387  0.3697 -1.7739 -2.3610
 2010TIP3    H230226   6.805   5.657   9.268 -0.6712  2.1632  0.6396
 2011TIP3   OH230227   3.458   7.535   8.077  0.3681  0.1275 -0.2521
 2011TIP3    H130228   3.401   7.561   8.150  0.4298  1.5838 -0.6889
 2011TIP3    H230229   3.533   7.494   8.120 -0.0477  0.0726  0.4507
 2012TIP3   OH230230   4.003   2.115   9.483  0.0816  0.2860  0.1874
 2012TIP3    H130231   3.921   2.066   9.494  0.1923 -0.1355 -0.7778
 2012TIP3    H230232   3.985   2.174   9.409 -0.4390  2.5750  2.0346
 2013TIP3   OH230233   7.450   2.991   8.246  0.0006  0.0044  0.1257
 2013TIP3    H130234   7.526   2.957   8.198 -0.1331  0.0711 -0.1341
 2013TIP3    H230235   7.409   3.054   8.185 -0.6039 -0.4690  0.0320
 2014TIP3   OH230236   0.635   6.432   6.670  0.2206 -0.3662  1.0069
 2014TIP3    H130237   0.648   6.352   6.620 -0.6849  0.3935 -0.4920
 2014TIP3    H230238   0.711   6.436   6.728  1.3427 -1.2424 -0.3427
 2015TIP3   OH230239   7.001   1.645   8.665  0.7199 -0.0235 -0.7007
 2015TIP3    H130240   7.052   1.603   8.734 -1.2131  1.4085  1.7853
 2015TIP3    H230241   7.066   1.693   8.613  2.1003  0.9684  1.7475
 2016TIP3   OH230242   5.514   3.901   8.961 -0.3832 -0.2770 -0.5873
 2016TIP3    H130243   5.567   3.822   8.967 -1.3526 -0.8875  0.0905
 2016TIP3    H230244   5.441   3.877   8.903 -0.5994  0.1754 -0.5091
 2017TIP3   OH230245   2.090   3.544   8.188 -0.1746 -0.2100 -0.2900
 2017TIP3    H130246   2.076   3.452   8.206 -1.2714 -0.1001 -0.5008
 2017TIP3    H230247   2.054   3.558   8.100  0.3581  0.3386 -0.4381
 2018TIP3   OH230248   7.162   3.552   7.954 -0.5016  0.2786 -0.7866
 2018TIP3    H130249   7.078   3.506   7.954 -0.5239  0.1860  1.6980
 2018TIP3    H230250   7.208   3.518   8.031  1.0562  1.6464 -1.0526
 2019TIP3   OH230251   3.736   6.861   8.673  0.0150 -0.2605  0.2101
 2019TIP3    H130252   3.683   6.938   8.695 -0.8143 -0.2252 -1.6513
 2019TIP3    H230253   3.814   6.869   8.728 -0.9163  0.8801  1.4343
 2020TIP3   OH230254   1.749   0.497   8.884  0.3548 -0.0192  0.6550
 2020TIP3    H130255   1.730   0.501   8.790 -1.3597 -3.1644  0.7361
 2020TIP3    H230256   1.750   0.588   8.912  0.8109  1.0303 -2.3517
 2021TIP3   OH230257   4.083   4.106   7.733 -0.0790 -0.3615  0.0046
 2021TIP3    H130258   4.057   4.014   7.721  3.6037 -1.3804 -1.3737
 2021TIP3    H230259   4.096   4.114   7.828 -1.8218 -0.7519  0.3206
 2022TIP3   OH230260   4.434   0.291   8.017 -1.0498 -0.0038 -0.0992
 2022TIP3    H130261   4.437   0.199   8.041 -0.7901 -0.0370 -0.2610
 2022TIP3    H230262   4.355   0.324   8.061 -1.7741 -0.5530 -0.9606
 2023TIP3   OH230263   1.473   7.205   7.588  0.4337 -0.4805  0.4587
 2023TIP3    H130264   1.399   7.262   7.607  1.6175  0.3666  2.8866
 2023TIP3    H230265   1.483   7.209   7.493  0.2210  3.1204  0.4551
 2024TIP3   OH230266   3.963   3.803   8.921 -0.9069 -0.0532  0.1572
 2024TIP3    H130267   3.892   3.818   8.859 -0.4924  0.0641 -0.2962
 2024TIP3    H230268   3.946   3.715   8.956 -1.6515  0.2502  0.5639
 2025TIP3   OH230269   2.208   2.806   8.270 -0.1204 -1.0484  0.5435
 2025TIP3    H130270   2.191   2.873   8.335  0.6155 -1.0802  0.7708
 2025TIP3    H230271   2.301   2.787   8.278 -0.4768 -2.7455  1.1122
 2026TIP3   OH230272   1.540   7.139   9.185  0.4742 -0.4781 -0.0490
 2026TIP3    H130273   1.527   7.156   9.091 -1.9243 -2.4941 -0.1879
 2026TIP3    H230274   1.580   7.052   9.189 -1.0094 -1.1624  0.7701
 2027TIP3   OH230275   4.947   2.655   7.822  0.3171  0.1016 -0.2877
 2027TIP3    H130276   4.976   2.737   7.862  0.3441  1.1975 -2.4146
 2027TIP3    H230277   4.851   2.662   7.820  0.2922 -0.1517 -0.0066
 2028TIP3   OH230278   7.199   5.824   8.554  0.2880 -0.3932 -0.3702
 2028TIP3    H130279   7.180   5.744   8.506  0.7030 -0.7373  0.0232
 2028TIP3    H230280   7.282   5.806   8.598 -0.1385 -0.1332  0.5684
 2029TIP3   OH230281   3.462   3.007   9.675 -0.1708 -0.2411 -0.0491
 2029TIP3    H130282   3.419   3.087   9.706 -0.2053  0.9569 -2.8736
 2029TIP3    H230283   3.436   2.940   9.738 -2.3868  1.4052  0.9257
 2030TIP3   OH230284   4.167   2.333   7.785 -0.0403 -0.7304  0.3693
 2030TIP3    H130285   4.190   2.393   7.714  0.7169 -0.3950  0.8953
 2030TIP3    H230286   4.130   2.389   7.853 -1.1805 -1.1044  0.0772
 2031TIP3   OH230287   6.107   1.710   8.558  0.1876  0.7228  0.4210
 2031TIP3    H130288   6.075   1.742   8.642 -0.2910  2.2171 -0.2970
 2031TIP3    H230289   6.115   1.615   8.570 -3.8936  0.2252  0.9612
 2032TIP3   OH230290   4.525   2.233   7.906 -0.4425  0.6041 -0.3359
 2032TIP3    H130291   4.594   2.269   7.851  0.7968  0.5819  1.1210
 2032TIP3    H230292   4.545   2.265   7.994  0.4531 -3.0910  0.9901
 2033TIP3   OH230293   4.258   7.614   8.855 -0.1900  0.4502  0.0627
 2033TIP3    H130294   4.337   7.659   8.884  0.2155  0.0572 -0.4096
 2033TIP3    H230295   4.223   7.668   8.784  0.5592 -0.2131 -0.8253
 2034TIP3   OH230296   3.659   7.598   7.548  0.3229 -0.2195 -0.3869
 2034TIP3    H130297   3.672   7.677   7.600  1.3395  0.2372 -1.2995
 2034TIP3    H230298   3.613   7.538   7.606 -1.1529  1.3025  0.0788
 2035TIP3   OH230299   7.333   3.488   8.160  0.0109  0.1900 -0.5659
 2035TIP3    H130300   7.420   3.495   8.122  0.2180  0.7989 -0.0057
 2035TIP3    H230301   7.340   3.417   8.224 -0.4131 -1.0275 -1.8286
 2036TIP3   OH230302   4.267   4.755   9.394  0.1613 -0.7537  0.1393
 2036TIP3    H130303   4.241   4.667   9.422 -2.5870 -0.5455 -1.4310
 2036TIP3    H230304   4.326   4.740   9.320 -0.7962 -1.3237 -0.5353
 2037TIP3   OH230305   1.854   5.794   6.384  0.8944 -0.0540 -0.0462
 2037TIP3    H130306   1.936   5.843   6.392  0.7666  0.1028  0.3251
 2037TIP3    H230307   1.877   5.717   6.331  1.6902 -0.9128  1.4739
 2038TIP3   OH230308   5.020   4.045   7.230 -0.0849  0.1711  0.1154
 2038TIP3    H130309   5.069   4.032   7.312  0.4438 -0.1133 -0.2425
 2038TIP3    H230310   5.083   4.083   7.170 -0.5874  0.7736 -0.0386
 2039TIP3   OH230311   7.210   5.120   8.313 -0.2720 -0.4039 -0.1091
 2039TIP3    H130312   7.211   5.160   8.226  1.0488  1.9717  0.9032
 2039TIP3    H230313   7.237   5.029   8.297  2.7468  0.6523 -1.9628
 2040TIP3   OH230314   0.872   5.131   6.644 -0.3396 -0.1614  0.0263
 2040TIP3    H130315   0.898   5.123   6.552 -0.0925 -1.4474  0.1880
 2040TIP3    H230316   0.786   5.089   6.648 -0.0556 -0.7035  0.5037
 2041TIP3   OH230317   1.897   3.272   8.559 -0.1850 -0.0157 -0.3548
 2041TIP3    H130318   1.805   3.263   8.535 -0.0680  1.0468 -1.2844
 2041TIP3    H230319   1.915   3.197   8.616 -1.1799 -1.1574 -1.5031
 2042TIP3   OH230320   5.779   5.006   8.732  0.4368 -0.3267  0.1192
 2042TIP3    H130321   5.759   5.087   8.779 -0.5737 -0.2538 -0.4061
 2042TIP3    H230322   5.740   4.937   8.785  2.0361 -0.5818  1.0139
 2043TIP3   OH230323   5.284   6.632   9.414 -0.3016  0.0107 -0.1048
 2043TIP3    H130324   5.272   6.628   9.508 -1.4390 -0.6737 -0.2679
 2043TIP3    H230325   5.325   6.549   9.391  1.3135  0.7514 -0.0579
 2044TIP3   OH230326   1.418   3.512   9.462  0.5501  0.0791 -0.1122
 2044TIP3    H130327   1.387   3.539   9.375  0.5080 -0.6689 -0.3331
 2044TIP3    H230328   1.467   3.588   9.494  1.5933 -0.0668 -1.2900
 2045TIP3   OH230329   4.032   5.869   7.638  0.5616 -0.2797  0.5302
 2045TIP3    H130330   4.067   5.827   7.559  1.1972 -1.3218  1.3336
 2045TIP3    H230331   3.980   5.801   7.680 -1.6649  0.9435 -0.0973
 2046TIP3   OH230332   6.976   4.149   9.542  0.6353 -0.3819  0.4902
 2046TIP3    H130333   6.921   4.088   9.592 -0.4626 -0.0751 -0.3267
 2046TIP3    H230334   6.942   4.236   9.564  1.2223 -0.1453  0.4826
 2047TIP3   OH230335   0.531   4.150   6.939  0.0210  0.2343  0.1056
 2047TIP3    H130336   0.501   4.224   6.887  0.3985  0.8108  0.6992
 2047TIP3    H230337   0.625   4.161   6.947 -0.0187  0.1190  0.8436
 2048TIP3   OH230338   5.371   0.300   8.180 -0.3323  0.1883 -0.1178
 2048TIP3    H130339   5.341   0.303   8.089 -0.6498 -1.0277 -0.0690
 2048TIP3    H230340   5.424   0.221   8.185  0.4292  0.7266  0.5480
 2049TIP3   OH230341   0.819   6.832   7.985  0.4437 -0.4018  0.1680
 2049TIP3    H130342   0.786   6.828   8.075 -0.5071  0.8402 -0.1057
 2049TIP3    H230343   0.756   6.782   7.934  0.3758 -0.1807  0.0326
 2050TIP3   OH230344   0.412   4.086   7.187 -0.4546  0.2849  0.2210
 2050TIP3    H130345   0.436   4.159   7.243 -0.3234 -0.1554  0.7429
 2050TIP3    H230346   0.448   4.109   7.101 -1.2509  1.2875  0.1289
 2051TIP3   OH230347   1.908   5.283   9.476 -0.3805  0.6086 -0.0836
 2051TIP3    H130348   1.913   5.277   9.571 -1.3877 -0.1950 -0.0663
 2051TIP3    H230349   1.969   5.353   9.453  0.8018 -0.0121  1.0441
 2052TIP3   OH230350   2.504   6.146   7.395  0.2040 -0.1636 -0.5327
 2052TIP3    H130351   2.557   6.216   7.358 -1.1792  0.6362 -1.0828
 2052TIP3    H230352   2.449   6.189   7.461 -1.8359 -0.3549 -2.0159
 2053TIP3   OH230353   1.067   1.076   8.306 -0.3192 -0.1830  0.0956
 2053TIP3    H130354   1.162   1.072   8.316 -0.3327  0.1494  0.4010
 2053TIP3    H230355   1.035   0.998   8.351 -0.2854  0.5759  1.5158
 2054TIP3   OH230356   6.514   0.119   9.073 -0.1434 -0.6918 -0.1121
 2054TIP3    H130357   6.576   0.050   9.049  2.8183  1.4688  0.6434
 2054TIP3    H230358   6.525   0.185   9.005 -2.7574 -0.7899 -0.7215
 2055TIP3   OH230359   6.251   7.139   9.193  0.3393 -0.0719  0.2141
 2055TIP3    H130360   6.326   7.191   9.221 -0.0762  1.2745 -1.0803
 2055TIP3    H230361   6.182   7.160   9.256  0.6496 -0.3095  0.6387
 2056TIP3   OH230362   0.904   1.134   7.267 -0.0285  0.1982 -0.1882
 2056TIP3    H130363   0.957   1.063   7.305 -0.4465 -0.0660 -0.0854
 2056TIP3    H230364   0.815   1.116   7.299 -0.2402  0.4316 -0.6459
 2057TIP3   OH230365   2.269   0.804   8.471 -0.9095 -0.1248  0.1259
 2057TIP3    H130366   2.180   0.825   8.442 -0.5915  0.7256 -0.2585
 2057TIP3    H230367   2.318   0.885   8.459  0.3891 -1.0850 -1.4886
 2058TIP3   OH230368   2.801   1.561   7.061  0.0291  0.7127 -0.0787
 2058TIP3    H130369   2.776   1.613   7.137 -0.9312 -1.6842  1.3580
 2058TIP3    H230370   2.722   1.511   7.039  1.1627 -0.8716 -0.7132
 2059TIP3   OH230371   2.290   2.896   7.899  0.3308 -0.1131 -0.2098
 2059TIP3    H130372   2.334   2.881   7.816 -0.0595 -0.2192 -0.4006
 2059TIP3    H230373   2.344   2.851   7.964  0.5074 -0.2286 -0.4363
 2060TIP3   OH230374   0.897   1.225   8.464  0.6683  0.3320 -0.3741
 2060TIP3    H130375   0.960   1.187   8.404  0.2545 -1.0991  0.0699
 2060TIP3    H230376   0.882   1.314   8.430 -1.4489 -1.1533 -3.9375
 2061TIP3   OH230377   6.267   2.985   9.144 -0.2449 -0.4300  0.3567
 2061TIP3    H130378   6.328   2.976   9.071  2.6510 -5.6543  2.8276
 2061TIP3    H230379   6.313   3.042   9.206 -1.2702  1.4033 -0.4935
 2062TIP3   OH230380   5.150   4.972   7.431 -0.2763 -0.6152  0.0180
 2062TIP3    H130381   5.218   4.917   7.392  0.1523  0.1166 -0.2972
 2062TIP3    H230382   5.068   4.934   7.400 -0.0020 -1.2784  0.0843
 2063TIP3   OH230383   4.487   3.321   6.875 -0.1582  0.2472  0.2270
 2063TIP3    H130384   4.564   3.365   6.839 -0.0430 -0.6809 -0.7056
 2063TIP3    H230385   4.521   3.254   6.933 -0.2829  0.3765  0.4488
 2064TIP3   OH230386   1.698   2.467   9.714 -0.2786 -0.8377 -0.3090
 2064TIP3    H130387   1.744   2.550   9.705 -2.1123  0.4185  1.3015
 2064TIP3    H230388   1.634   2.467   9.643 -1.8024  0.2355  0.9969
 2065TIP3   OH230389   4.517   0.712   8.907 -0.1210  0.4101  0.6760
 2065TIP3    H130390   4.451   0.645   8.922  0.2284 -0.4605 -1.3882
 2065TIP3    H230391   4.469   0.795   8.912 -0.5630  0.0894  3.2094
 2066TIP3   OH230392   2.598   4.463   8.366 -0.3909  0.1048  0.7280
 2066TIP3    H130393   2.656   4.498   8.299  0.0966 -1.2605  0.4101
 2066TIP3    H230394   2.511   4.468   8.327 -0.0994 -0.7711 -0.0717
 2067TIP3   OH230395   1.400   2.210   7.398 -0.3259  0.1389  0.4224
 2067TIP3    H130396   1.378   2.303   7.404 -1.6222 -0.2489  2.6899
 2067TIP3    H230397   1.322   2.169   7.361 -0.2845 -0.2140  0.7212
 2068TIP3   OH230398   2.934   2.877   7.614  0.3045  0.1874 -0.6857
 2068TIP3    H130399   2.912   2.797   7.566  2.6494 -0.7075 -0.4175
 2068TIP3    H230400   2.949   2.943   7.546  1.4926 -0.4971 -1.1170
 2069TIP3   OH230401   1.396   1.441   8.775  0.4565  0.7322 -0.3505
 2069TIP3    H130402   1.302   1.426   8.764  0.1533  2.1224  0.1202
 2069TIP3    H230403   1.411   1.529   8.741  1.5421  0.6378 -0.1583
 2070TIP3   OH230404   6.776   4.636   9.128 -0.2729 -0.2993  0.1375
 2070TIP3    H130405   6.754   4.543   9.130  0.5536 -0.4913  0.9254
 2070TIP3    H230406   6.857   4.643   9.179  0.6065  0.6146 -1.3245
 2071TIP3   OH230407   5.707   7.571   9.204 -0.8103  0.2639 -0.5143
 2071TIP3    H130408   5.668   7.643   9.253  0.0054  1.2310 -1.2497
 2071TIP3    H230409   5.659   7.569   9.121  0.3501  1.1618 -1.2339
 2072TIP3   OH230410   7.023   5.276   8.704  0.7763  0.2041 -0.1698
 2072TIP3    H130411   6.999   5.347   8.644  1.0847  1.2846  0.9540
 2072TIP3    H230412   6.951   5.214   8.696  0.2404  0.8797 -0.7923
 2073TIP3   OH230413   1.244   0.824   9.275 -0.0995 -0.0005  0.2999
 2073TIP3    H130414   1.287   0.848   9.357 -1.1612  1.1357  0.5630
 2073TIP3    H230415   1.244   0.905   9.223 -1.3306 -0.1218  0.0665
 2074TIP3   OH230416   1.220   4.560   9.061 -0.1040  0.2388  0.4407
 2074TIP3    H130417   1.169   4.487   9.094 -0.8925  0.9833  0.9240
 2074TIP3    H230418   1.225   4.621   9.135  0.4308  0.7286  0.0112
 2075TIP3   OH230419   5.421   0.412   7.635  0.7982 -0.7387  0.0829
 2075TIP3    H130420   5.481   0.402   7.709  1.0220  1.4626  0.2501
 2075TIP3    H230421   5.374   0.494   7.653 -0.7835 -1.3394 -1.0825
 2076TIP3   OH230422   5.786   6.607   7.437  0.0012 -0.6142  0.2691
 2076TIP3    H130423   5.716   6.622   7.374 -0.0689 -0.3635  0.4022
 2076TIP3    H230424   5.790   6.512   7.447 -0.5776 -0.6128  0.5407
 2077TIP3   OH230425   0.477   1.970   7.472 -0.3286 -0.0510 -0.2495
 2077TIP3    H130426   0.572   1.984   7.475 -0.4314  1.0589 -1.5705
 2077TIP3    H230427   0.453   1.985   7.381 -1.8550  0.1703  0.1644
 2078TIP3   OH230428   5.363   3.379   9.306  0.3443  0.0777 -0.2679
 2078TIP3    H130429   5.273   3.357   9.330  0.7034 -0.0718  1.0148
 2078TIP3    H230430   5.355   3.421   9.220 -1.0461  0.8723  0.2197
 2079TIP3   OH230431   2.284   7.160   7.918  0.6589 -0.0624  0.2706
 2079TIP3    H130432   2.314   7.127   7.833 -1.6566 -0.3264 -0.5403
 2079TIP3    H230433   2.297   7.254   7.914  2.0279 -0.2405  0.2818
 2080TIP3   OH230434   1.858   5.249   7.165  0.3295 -0.5122  0.3327
 2080TIP3    H130435   1.942   5.202   7.163 -0.3283 -1.7753  1.2716
 2080TIP3    H230436   1.874   5.325   7.221  0.5859 -1.3082  1.3636
 2081TIP3   OH230437   6.595   5.011   8.418  0.0209  0.1431 -0.0606
 2081TIP3    H130438   6.637   5.081   8.468  0.3913 -0.8128  1.0182
 2081TIP3    H230439   6.515   4.991   8.466 -0.6740  0.5776 -0.9951
 2082TIP3   OH230440   6.146   2.575   6.447  0.4351  0.4026  0.0470
 2082TIP3    H130441   6.121   2.485   6.424  1.0855  0.3937 -0.6854
 2082TIP3    H230442   6.100   2.629   6.383  0.7101  0.5300 -0.0411
 2083TIP3   OH230443   0.670   4.577   8.282  0.1167  0.8043 -0.2734
 2083TIP3    H130444   0.692   4.485   8.297 -1.6268  0.3052 -0.5889
 2083TIP3    H230445   0.733   4.606   8.217  0.3683 -0.3151 -0.5602
 2084TIP3   OH230446   6.687   0.800   7.212 -0.1027  0.2587  0.3594
 2084TIP3    H130447   6.749   0.872   7.208 -1.6524  1.6186 -0.3560
 2084TIP3    H230448   6.637   0.806   7.130  1.4612 -3.3289 -1.0875
 2085TIP3   OH230449   2.939   5.880   8.583 -1.1098  0.1886 -0.1483
 2085TIP3    H130450   2.988   5.798   8.578  1.1190  1.4587 -0.0737
 2085TIP3    H230451   2.921   5.903   8.492  2.4534  1.9248 -0.5835
 2086TIP3   OH230452   3.575   2.091   9.237 -0.8984 -0.8030 -0.2519
 2086TIP3    H130453   3.496   2.101   9.290 -0.6743  0.1963 -0.0829
 2086TIP3    H230454   3.642   2.063   9.299 -0.7960 -0.2907 -0.1271
 2087TIP3   OH230455   2.657   7.435   8.840 -0.1623 -0.0008  0.2339
 2087TIP3    H130456   2.571   7.423   8.800  0.6245 -3.2318 -0.7159
 2087TIP3    H230457   2.718   7.441   8.766  0.6759  0.0460  0.9077
 2088TIP3   OH230458   0.796   3.091   9.500 -0.0371 -0.5295 -0.1264
 2088TIP3    H130459   0.766   3.182   9.500 -0.3847 -0.6169 -1.4914
 2088TIP3    H230460   0.788   3.063   9.591 -2.8128 -0.0936 -0.1335
 2089TIP3   OH230461   0.700   7.586   7.929  0.4114 -0.3605  0.2714
 2089TIP3    H130462   0.766   7.522   7.957 -0.2941 -0.1052  2.7487
 2089TIP3    H230463   0.639   7.591   8.003 -1.3739  0.7647 -1.2124
 2090TIP3   OH230464   6.287   6.989   7.887  0.1858 -0.3733 -0.1115
 2090TIP3    H130465   6.260   7.076   7.858  0.0514 -0.3458  0.0965
 2090TIP3    H230466   6.378   6.981   7.858 -0.1034 -0.5467 -1.0041
 2091TIP3   OH230467   6.506   7.290   9.184 -0.4162 -0.3358 -0.0424
 2091TIP3    H130468   6.580   7.309   9.127 -0.4106  0.3231  0.1846
 2091TIP3    H230469   6.544   7.243   9.258 -0.1034  0.6451  0.4348
 2092TIP3   OH230470   6.213   5.913   9.333  0.0396 -0.0057 -0.2517
 2092TIP3    H130471   6.142   5.940   9.275  0.0026 -0.4569 -0.4200
 2092TIP3    H230472   6.168   5.881   9.412 -0.0272 -1.5734 -0.8814
 2093TIP3   OH230473   4.974   2.681   8.696 -0.0356  0.1337  0.1076
 2093TIP3    H130474   4.975   2.664   8.790  0.2228 -0.2908  0.0304
 2093TIP3    H230475   5.031   2.757   8.685 -0.1200  0.2260  0.3024
 2094TIP3   OH230476   0.606   0.055   7.512 -0.1426 -0.1608 -0.0537
 2094TIP3    H130477   0.643   0.095   7.433  0.0695  0.1229  0.1896
 2094TIP3    H230478   0.515   0.084   7.513  0.2131  0.9894  0.5525
 2095TIP3   OH230479   1.476   1.069   7.132 -0.3288  0.6765 -0.4805
 2095TIP3    H130480   1.499   1.098   7.044  1.9322 -2.0509 -0.9301
 2095TIP3    H230481   1.555   1.086   7.184 -2.1143  3.6832  1.5695
 2096TIP3   OH230482   5.341   2.416   8.279 -0.0671  0.0088 -0.5909
 2096TIP3    H130483   5.391   2.436   8.358 -1.2928 -0.1363  0.2553
 2096TIP3    H230484   5.401   2.365   8.225  0.9275  0.4476  0.0696
 2097TIP3   OH230485   0.381   3.692   7.216 -0.8438 -0.0242 -0.5526
 2097TIP3    H130486   0.383   3.661   7.125 -0.1566 -0.9424 -0.2448
 2097TIP3    H230487   0.449   3.641   7.260 -1.0941  0.4870  0.4597
 2098TIP3   OH230488   7.594   3.228   7.873  0.6232 -0.3377  0.1420
 2098TIP3    H130489   7.527   3.217   7.940  1.1832 -1.1283  0.5847
 2098TIP3    H230490   7.558   3.295   7.814 -0.8339 -1.1985  0.0096
 2099TIP3   OH230491   2.993   6.014   8.049 -0.1149  0.0166  0.3049
 2099TIP3    H130492   3.085   5.988   8.047 -0.6345 -2.1708  1.3854
 2099TIP3    H230493   2.977   6.052   7.963  1.6607 -0.0210 -0.0848
 2100TIP3   OH230494   4.059   5.556   8.826 -0.6401  0.1036 -0.0262
 2100TIP3    H130495   3.972   5.517   8.818 -0.5679  0.1185 -0.9558
 2100TIP3    H230496   4.051   5.616   8.901 -1.5939  0.5234 -0.4494
 2101TIP3   OH230497   4.441   3.639   8.839  0.1577 -0.3496  0.0511
 2101TIP3    H130498   4.429   3.563   8.896 -0.8290 -1.3232 -1.3495
 2101TIP3    H230499   4.391   3.709   8.881 -0.5134 -1.0281  0.4135
 2102TIP3   OH230500   0.145   0.478   9.398  0.6972 -0.2005 -0.2082
 2102TIP3    H130501   0.156   0.401   9.343  0.6187  0.2534 -0.8792
 2102TIP3    H230502   0.051   0.484   9.412  0.6276  0.1777 -0.7745
 2103TIP3   OH230503   0.979   5.766   8.177  0.0011 -0.3972  0.0483
 2103TIP3    H130504   1.027   5.781   8.096  1.9597 -0.9539  1.0585
 2103TIP3    H230505   0.906   5.828   8.173  0.4188  0.0265 -1.8293
 2104TIP3   OH230506   5.004   6.413   7.904  0.4333  0.5138  0.8118
 2104TIP3    H130507   5.083   6.425   7.957  0.2414 -0.0376  1.2386
 2104TIP3    H230508   4.948   6.357   7.958 -0.6817  1.7453  0.9593
 2105TIP3   OH230509   6.005   2.259   8.857 -0.5275  0.3208 -0.1225
 2105TIP3    H130510   6.006   2.351   8.830  1.2329  0.0600 -1.0953
 2105TIP3    H230511   6.080   2.251   8.915 -1.0015 -0.4043  0.4092
 2106TIP3   OH230512   3.555   2.331   9.591 -0.1187 -0.0363  0.0613
 2106TIP3    H130513   3.496   2.397   9.555 -0.1323  0.2457  0.5903
 2106TIP3    H230514   3.632   2.332   9.533 -0.3508  0.0562 -0.2443
 2107TIP3   OH230515   3.129   4.589   9.389 -0.3511 -0.1093  0.1262
 2107TIP3    H130516   3.189   4.608   9.316  1.4325 -0.2741  1.4959
 2107TIP3    H230517   3.166   4.512   9.432 -0.5973  0.7518  1.9872
 2108TIP3   OH230518   2.967   3.334   9.593 -0.1267  0.0030 -0.0118
 2108TIP3    H130519   2.964   3.250   9.639  1.0060  0.2868  0.5969
 2108TIP3    H230520   2.878   3.368   9.601 -0.2848 -0.5726  0.8052
 2109TIP3   OH230521   5.623   2.408   6.983  0.1860  0.4997 -0.1195
 2109TIP3    H130522   5.562   2.403   7.057  1.6986  1.2603  1.2430
 2109TIP3    H230523   5.675   2.328   6.990 -0.9605 -0.4238 -1.6118
 2110TIP3   OH230524   0.734   1.281   9.706  0.0603  0.1121 -0.2630
 2110TIP3    H130525   0.644   1.249   9.700  0.7756 -2.1355 -0.1278
 2110TIP3    H230526   0.786   1.212   9.664  1.5788  2.1878 -2.0161
 2111TIP3   OH230527   5.591   3.843   7.693  0.0697 -0.7722 -0.5618
 2111TIP3    H130528   5.536   3.768   7.717 -0.5595 -0.5161 -1.1740
 2111TIP3    H230529   5.672   3.803   7.661 -0.2043 -1.2017 -0.7438
 2112TIP3   OH230530   0.987   0.910   9.486  0.0263  0.1512 -0.3024
 2112TIP3    H130531   0.993   0.833   9.542  1.0471 -1.7648 -2.8430
 2112TIP3    H230532   0.894   0.935   9.488 -0.2992 -1.0707  0.6529
 2113TIP3   OH230533   3.322   1.811   8.524  0.0313  0.3239 -0.3338
 2113TIP3    H130534   3.331   1.718   8.504 -1.2457  0.0440  0.2582
 2113TIP3    H230535   3.408   1.849   8.506 -0.2540 -0.3342 -3.7458
 2114TIP3   OH230536   2.160   1.058   9.365  0.0513 -0.4229 -0.1867
 2114TIP3    H130537   2.084   1.000   9.371  1.5752 -2.5476 -0.4675
 2114TIP3    H230538   2.192   1.049   9.275  1.8768 -1.2888  0.4915
 2115TIP3   OH230539   7.162   0.679   6.924  0.5608  0.3093 -0.0329
 2115TIP3    H130540   7.248   0.720   6.938  0.4963  0.3122  0.3706
 2115TIP3    H230541   7.182   0.586   6.911  0.4436 -0.1888  2.8183
 2116TIP3   OH230542   4.801   6.965   8.674 -0.3983  0.0303  0.0517
 2116TIP3    H130543   4.834   6.948   8.763  0.8753  1.7309 -0.0502
 2116TIP3    H230544   4.806   6.880   8.630 -1.4495 -0.9471  1.7013
 2117TIP3   OH230545   5.833   6.096   8.745 -0.5277  0.0985  0.1849
 2117TIP3    H130546   5.817   6.165   8.680  0.6360  0.8271  0.6303
 2117TIP3    H230547   5.752   6.047   8.748 -1.3577  1.3853 -0.2287
 2118TIP3   OH230548   0.783   6.279   8.455  0.0759 -0.3097 -0.1495
 2118TIP3    H130549   0.790   6.217   8.383  0.2258 -0.1346 -0.2859
 2118TIP3    H230550   0.713   6.339   8.430 -0.3542 -0.6752  0.1734
 2119TIP3   OH230551   7.234   2.702   8.334 -0.9097  0.3779 -0.2787
 2119TIP3    H130552   7.259   2.720   8.243  0.1885  2.5850  0.3985
 2119TIP3    H230553   7.244   2.786   8.379 -1.7558 -0.5802  1.8383
 2120TIP3   OH230554   0.797   0.326   8.929 -0.3204 -0.2620  0.1299
 2120TIP3    H130555   0.715   0.280   8.910 -1.4076  1.2734  0.8923
 2120TIP3    H230556   0.800   0.331   9.025  0.7866 -0.4921  0.1185
 2121TIP3   OH230557   3.907   7.468   9.481 -0.0951  0.0996 -0.9734
 2121TIP3    H130558   3.989   7.424   9.501 -0.2392  0.8122  1.4981
 2121TIP3    H230559   3.858   7.405   9.428  1.6721 -0.6582 -1.7935
 2122TIP3   OH230560   4.198   6.801   9.006  0.3775  0.3697  0.5798
 2122TIP3    H130561   4.187   6.890   9.041  0.6587  0.4627  0.4292
 2122TIP3    H230562   4.260   6.760   9.066  2.1735  1.0555 -0.7286
 2123TIP3   OH230563   5.694   7.037   8.979  0.0071  0.2876  0.6128
 2123TIP3    H130564   5.623   7.052   9.042  0.5506  1.8951  0.8698
 2123TIP3    H230565   5.691   7.112   8.921 -1.5300 -1.8896 -2.3890
 2124TIP3   OH230566   0.157   6.373   7.952 -0.3921  0.1609  0.6003
 2124TIP3    H130567   0.085   6.401   8.008 -0.8576  0.2474 -0.0223
 2124TIP3    H230568   0.133   6.285   7.924 -0.4079  0.2991  0.1574
 2125TIP3   OH230569   6.557   7.323   7.199  0.6851  0.4403  0.1170
 2125TIP3    H130570   6.479   7.271   7.218  1.6669 -0.4871  1.8441
 2125TIP3    H230571   6.547   7.349   7.107 -0.9089 -0.9371 -0.1400
 2126TIP3   OH230572   1.538   2.760   9.277 -0.0012  0.0870 -0.4209
 2126TIP3    H130573   1.560   2.741   9.186 -0.1120  1.0201 -0.6594
 2126TIP3    H230574   1.442   2.751   9.281 -0.0366  0.3884 -0.4969
 2127TIP3   OH230575   0.909   6.242   7.542  0.1860  0.8290  0.3679
 2127TIP3    H130576   0.982   6.303   7.532 -0.6392  1.8509  0.2932
 2127TIP3    H230577   0.945   6.156   7.522  1.1392  1.4326 -0.5980
 2128TIP3   OH230578   5.467   5.030   7.352  0.0754 -0.1473 -0.0961
 2128TIP3    H130579   5.457   4.946   7.308  0.7673 -0.4517  0.2999
 2128TIP3    H230580   5.447   5.012   7.444 -2.9842  0.8243 -0.4572
 2129TIP3   OH230581   0.587   0.319   7.369  0.7015 -0.1527  0.2415
 2129TIP3    H130582   0.646   0.368   7.312 -0.9471 -0.2575 -1.6774
 2129TIP3    H230583   0.540   0.386   7.419  1.6224 -0.0225  0.9513
 2130TIP3   OH230584   4.288   5.131   8.392 -0.7721  0.6962 -0.2109
 2130TIP3    H130585   4.369   5.080   8.392 -2.5004 -2.4235  2.4030
 2130TIP3    H230586   4.231   5.088   8.329 -1.3366  1.1021  0.0053
 2131TIP3   OH230587   4.365   5.575   8.901 -0.0188 -0.2163  0.4906
 2131TIP3    H130588   4.277   5.573   8.940 -0.3209 -0.2661 -0.1904
 2131TIP3    H230589   4.354   5.625   8.820  0.4311 -0.8389  0.0407
 2132TIP3   OH230590   0.046   1.106   8.073  0.3703  0.6037 -0.3832
 2132TIP3    H130591   0.003   1.106   8.158 -0.0253 -0.3576 -0.5602
 2132TIP3    H230592  -0.026   1.097   8.010  0.6056  1.9236 -0.8639
 2133TIP3   OH230593   1.155   3.351   9.150  0.3142  0.5067 -0.2323
 2133TIP3    H130594   1.063   3.347   9.173 -0.4540 -1.5779 -2.9867
 2133TIP3    H230595   1.169   3.441   9.122 -1.2248  0.6068 -0.7958
 2134TIP3   OH230596   6.454   3.414   8.629  0.0564 -0.4420  0.0215
 2134TIP3    H130597   6.376   3.468   8.642 -0.3764 -0.4371 -2.2139
 2134TIP3    H230598   6.523   3.477   8.606 -0.1047 -0.6915 -1.2020
 2135TIP3   OH230599   5.996   5.851   9.502 -0.1070  0.0899  0.7578
 2135TIP3    H130600   5.927   5.862   9.436 -1.0189  0.0718  1.6864
 2135TIP3    H230601   5.983   5.762   9.534  0.1651  0.1954  1.1604
 2136TIP3   OH230602   2.988   1.542   7.295 -0.4515  0.1962  0.2925
 2136TIP3    H130603   2.923   1.567   7.360 -0.9923  1.6582 -0.7430
 2136TIP3    H230604   2.960   1.586   7.215  0.0542 -1.7121 -1.0144
 2137TIP3   OH230605   5.549   6.336   6.528  0.6425 -0.6559 -0.3524
 2137TIP3    H130606   5.608   6.292   6.467  0.4886 -0.8719 -0.3478
 2137TIP3    H230607   5.596   6.335   6.612  0.6732 -0.7399 -0.3704
 2138TIP3   OH230608   5.287   0.958   7.735  0.0512  0.5655  0.5453
 2138TIP3    H130609   5.253   1.021   7.799  0.9723  0.0603  1.5708
 2138TIP3    H230610   5.374   0.935   7.768  0.5407  0.2649 -0.8958
 2139TIP3   OH230611   1.024   2.977   7.823  0.3343 -0.2350  0.3323
 2139TIP3    H130612   1.105   2.986   7.873 -0.3904 -3.6024  2.3944
 2139TIP3    H230613   1.052   2.941   7.739  1.3038  3.0857 -0.9247
 2140TIP3   OH230614   6.832   4.128   7.849  0.2855 -0.5240 -0.3801
 2140TIP3    H130615   6.869   4.125   7.760  1.8587 -0.4181  0.2350
 2140TIP3    H230616   6.899   4.087   7.904 -0.3551  0.0345  0.8642
 2141TIP3   OH230617   6.915   2.842   9.139 -0.2998  0.2137  0.2406
 2141TIP3    H130618   6.979   2.859   9.070 -0.6330  0.8310  0.0756
 2141TIP3    H230619   6.850   2.784   9.098 -0.0769 -0.0728  0.2840
 2142TIP3   OH230620   4.008   2.582   9.625 -0.4218  0.4005  1.1240
 2142TIP3    H130621   3.951   2.517   9.584 -1.2712  1.8541 -0.1529
 2142TIP3    H230622   3.957   2.663   9.622  0.9906  1.3557  1.7105
 2143TIP3   OH230623   3.540   0.093   9.093 -0.7834  0.2002  0.1336
 2143TIP3    H130624   3.462   0.039   9.086 -1.0547  0.2420  2.2314
 2143TIP3    H230625   3.613   0.031   9.097 -0.8829  0.0908  0.2314
 2144TIP3   OH230626   0.342   5.754   7.191 -0.1826  0.3167  1.0536
 2144TIP3    H130627   0.385   5.824   7.142  1.5884 -0.4893  1.3623
 2144TIP3    H230628   0.366   5.674   7.144 -1.2255 -0.2025  1.3548
 2145TIP3   OH230629   4.269   6.077   9.090  0.6984 -0.0269  0.3003
 2145TIP3    H130630   4.237   6.133   9.019  1.9164  1.5963  0.9492
 2145TIP3    H230631   4.262   6.131   9.168 -2.2965 -2.3753  1.8513
 2146TIP3   OH230632   6.488   3.762   8.151 -0.0883  0.8715  0.0931
 2146TIP3    H130633   6.423   3.831   8.162 -0.0493  0.7526  1.1771
 2146TIP3    H230634   6.532   3.784   8.069 -1.9215  0.5704 -1.0195
 2147TIP3   OH230635   2.614   5.068   8.989  0.1235  0.2675 -0.1372
 2147TIP3    H130636   2.585   5.108   8.907  0.6260  2.3036  0.6127
 2147TIP3    H230637   2.558   5.108   9.056  0.1833 -0.8405  0.5965
 2148TIP3   OH230638   0.575   7.296   7.494 -0.1253  0.0501  0.2359
 2148TIP3    H130639   0.556   7.381   7.453  0.0716 -0.0464 -0.0566
 2148TIP3    H230640   0.646   7.315   7.556  0.3698 -0.0247 -0.3014
 2149TIP3   OH230641   5.721   3.375   6.807  0.3996 -1.1773  0.4350
 2149TIP3    H130642   5.815   3.379   6.827  0.8893 -0.1314 -1.7281
 2149TIP3    H230643   5.679   3.424   6.877  1.8925  1.6015 -0.4678
 2150TIP3   OH230644   7.444   4.004   8.563  0.1177 -0.2389 -0.5560
 2150TIP3    H130645   7.496   4.082   8.581 -0.3791  0.2974 -1.3842
 2150TIP3    H230646   7.355   4.037   8.548  0.0397 -0.8658 -1.6333
 2151TIP3   OH230647   0.567   6.386   8.336  0.0503 -0.0065  0.0218
 2151TIP3    H130648   0.475   6.376   8.312  0.3228 -1.0076 -0.6420
 2151TIP3    H230649   0.611   6.314   8.292  1.7689  2.5534 -2.8411
 2152TIP3   OH230650   4.904   5.366   7.842 -0.1733 -0.0639  0.0409
 2152TIP3    H130651   4.867   5.451   7.867 -1.3894 -0.4309 -0.4772
 2152TIP3    H230652   4.851   5.337   7.768  0.3833 -1.1764  0.0629
 2153TIP3   OH230653   1.177   6.323   7.230 -0.2525 -0.0866  0.6571
 2153TIP3    H130654   1.195   6.390   7.165  2.3350 -0.4921  0.8568
 2153TIP3    H230655   1.120   6.260   7.184 -0.8275  1.0612 -0.2503
 2154TIP3   OH230656   3.719   0.756   8.820  0.0035 -0.0509 -0.1275
 2154TIP3    H130657   3.754   0.723   8.903  0.9501  1.9089  0.3074
 2154TIP3    H230658   3.750   0.693   8.754  1.8949  0.0238  0.6345
 2155TIP3   OH230659   7.133   0.010   6.947  0.2119 -0.5254 -0.3319
 2155TIP3    H130660   7.165   0.023   6.858  1.4581  0.2835  0.2001
 2155TIP3    H230661   7.046   0.050   6.947  0.6401  0.4561 -0.9257
 2156TIP3   OH230662   3.954   0.338   9.081  1.3527 -0.0235  0.4730
 2156TIP3    H130663   4.025   0.344   9.018  0.8676  1.6670  0.0296
 2156TIP3    H230664   3.883   0.296   9.033  0.1681  3.3131 -1.0251
 2157TIP3   OH230665   5.930   2.142   7.732 -0.2538 -0.0385 -0.2186
 2157TIP3    H130666   5.894   2.056   7.755  2.0157 -1.1756 -0.6248
 2157TIP3    H230667   5.874   2.172   7.660 -0.6000 -1.5620 -0.6419
 2158TIP3   OH230668   4.092   1.523   7.973 -0.0227 -0.0749 -0.0830
 2158TIP3    H130669   4.001   1.531   7.943  0.4563  1.7386 -1.2214
 2158TIP3    H230670   4.097   1.436   8.010 -2.5361  0.1618  1.0391
 2159TIP3   OH230671   6.451   2.073   7.714  0.3430 -0.2374 -0.2552
 2159TIP3    H130672   6.452   2.156   7.760 -0.2884 -1.0675  1.3422
 2159TIP3    H230673   6.358   2.051   7.705  0.4921 -0.7030 -0.7909
 2160TIP3   OH230674   0.596   5.152   8.950 -0.2591 -0.4131 -0.2569
 2160TIP3    H130675   0.575   5.209   8.875 -1.5424 -0.8453 -0.2437
 2160TIP3    H230676   0.594   5.210   9.026  3.1140  0.4906 -0.6981
 2161TIP3   OH230677   6.050   3.336   7.277  0.1182 -0.3732  0.0668
 2161TIP3    H130678   5.957   3.326   7.255  0.0714  0.1189  0.0313
 2161TIP3    H230679   6.063   3.430   7.284  0.2948 -0.4801  1.4740
 2162TIP3   OH230680   7.502   5.559   8.986 -0.4503  0.2587  0.2081
 2162TIP3    H130681   7.465   5.471   8.985 -1.6794  0.7560  0.1498
 2162TIP3    H230682   7.546   5.566   9.071  0.5823 -0.7541 -0.2097
 2163TIP3   OH230683   0.764   7.063   7.803  0.6161  0.1890 -0.1733
 2163TIP3    H130684   0.791   6.999   7.869  0.1162  0.3039  0.1508
 2163TIP3    H230685   0.672   7.079   7.821  0.4988  0.3030 -0.8406
 2164TIP3   OH230686   6.258   0.311   6.960 -0.0091  0.0135 -0.0922
 2164TIP3    H130687   6.233   0.393   7.001 -0.0260 -0.1895  0.3051
 2164TIP3    H230688   6.229   0.243   7.021 -1.8255 -0.3920 -1.2936
 2165TIP3   OH230689   2.204   5.843   9.380  0.1865 -0.3199 -0.3043
 2165TIP3    H130690   2.127   5.790   9.397 -0.4084  0.3851 -0.7483
 2165TIP3    H230691   2.263   5.785   9.332 -0.7278 -0.3987 -1.3758
 2166TIP3   OH230692   1.082   2.942   7.549  0.0463 -0.2314 -0.3037
 2166TIP3    H130693   1.074   3.008   7.481 -1.1486 -0.6384 -0.5870
 2166TIP3    H230694   1.176   2.934   7.565  0.2257  2.9950  1.1845
 2167TIP3   OH230695   2.670   4.897   9.300 -0.2658  0.1527  0.7120
 2167TIP3    H130696   2.644   4.859   9.216 -1.6736 -0.5577  1.4274
 2167TIP3    H230697   2.762   4.922   9.288 -0.5371  0.4280 -1.1470
 2168TIP3   OH230698   0.275   5.392   8.093 -0.0070 -0.0315 -0.6969
 2168TIP3    H130699   0.214   5.465   8.083  0.9356  1.0279  0.8789
 2168TIP3    H230700   0.303   5.372   8.004  0.2424  2.0125 -1.1135
 2169TIP3   OH230701   4.679   2.296   9.167 -0.0940  0.3121 -0.1345
 2169TIP3    H130702   4.757   2.352   9.166 -1.1074  1.8127  0.8348
 2169TIP3    H230703   4.676   2.261   9.256 -0.4363  0.1093 -0.2238
 2170TIP3   OH230704   4.451   0.504   7.102 -0.0520  0.2465 -0.0851
 2170TIP3    H130705   4.546   0.504   7.115 -0.1812 -0.7577  1.1035
 2170TIP3    H230706   4.439   0.514   7.007  1.2937 -1.0017 -0.4205
 2171TIP3   OH230707   1.253   4.210   9.260 -0.0169  0.6317  0.4370
 2171TIP3    H130708   1.314   4.155   9.310 -0.1386  0.7652  0.7303
 2171TIP3    H230709   1.246   4.166   9.175  1.7260  1.4632 -0.1895
 2172TIP3   OH230710   3.003   5.328   7.088  0.0974  0.0762  0.2129
 2172TIP3    H130711   3.036   5.267   7.153 -2.3379 -1.6014  0.0191
 2172TIP3    H230712   2.981   5.274   7.012  0.6826  1.6568 -1.1583
 2173TIP3   OH230713   2.745   4.747   7.793 -0.0403  0.3320  0.0375
 2173TIP3    H130714   2.694   4.723   7.870  0.5293  1.0387  0.6642
 2173TIP3    H230715   2.798   4.670   7.774 -1.0083 -0.2511 -0.3603
 2174TIP3   OH230716   5.069   3.626   8.140 -0.3361 -0.4345 -0.1853
 2174TIP3    H130717   5.038   3.544   8.179  0.4334 -1.8510 -2.3347
 2174TIP3    H230718   5.055   3.615   8.046  2.0746  0.8346 -0.7962
 2175TIP3   OH230719   2.469   4.684   9.506 -0.3504  0.2845  0.1128
 2175TIP3    H130720   2.520   4.642   9.575  0.0340 -1.2270 -1.0539
 2175TIP3    H230721   2.485   4.778   9.518 -0.9930  0.1465  2.5958
 2176TIP3   OH230722   5.233   0.722   8.292  0.5594 -0.1476  0.7352
 2176TIP3    H130723   5.166   0.790   8.286 -0.8344 -1.3846  1.6463
 2176TIP3    H230724   5.268   0.730   8.381  1.9037  0.6942  0.1672
 2177TIP3   OH230725   5.242   2.338   7.174 -0.1647  0.1746  0.2431
 2177TIP3    H130726   5.192   2.363   7.096 -0.2844  1.2790  0.6677
 2177TIP3    H230727   5.323   2.388   7.168 -0.4702  0.7998  1.1848
 2178TIP3   OH230728   6.758   2.913   7.126  0.2496 -0.3812 -0.0771
 2178TIP3    H130729   6.756   2.823   7.094 -0.4711 -0.5674  0.4547
 2178TIP3    H230730   6.750   2.967   7.048 -1.6178 -0.8304 -0.2379
 2179TIP3   OH230731   2.545   6.213   7.942  0.0548  0.5558 -0.0810
 2179TIP3    H130732   2.615   6.264   7.982 -0.0110  0.4191  0.2171
 2179TIP3    H230733   2.555   6.226   7.848 -0.5353  1.8727  0.0127
 2180TIP3   OH230734   5.598   4.170   8.921 -0.4263  0.1489  0.0753
 2180TIP3    H130735   5.565   4.081   8.936  0.8326 -0.3390  0.1122
 2180TIP3    H230736   5.666   4.182   8.988 -0.0463  0.8312 -0.4222
 2181TIP3   OH230737   0.633   1.042   9.077 -0.0277  0.5300  0.1476
 2181TIP3    H130738   0.585   1.005   9.151 -2.1762  0.8791 -1.0015
 2181TIP3    H230739   0.715   0.992   9.074 -0.9389 -1.1080  1.3053
 2182TIP3   OH230740   6.386   2.721   7.446  0.3532 -0.5399  0.7564
 2182TIP3    H130741   6.405   2.645   7.501  0.2702 -0.7357  0.5188
 2182TIP3    H230742   6.430   2.702   7.363 -2.8163 -2.1633 -0.7038
 2183TIP3   OH230743   2.955   5.609   7.715  0.3085 -0.4873  0.3405
 2183TIP3    H130744   3.022   5.676   7.704  0.3290 -0.9164 -3.7396
 2183TIP3    H230745   2.996   5.542   7.769  1.8484  0.8234  0.8731
 2184TIP3   OH230746   3.289   5.308   8.286  0.4984  0.2447 -0.0093
 2184TIP3    H130747   3.197   5.320   8.263  0.1487 -0.2734  1.0891
 2184TIP3    H230748   3.292   5.320   8.381  1.5687  0.2753 -0.0348
 2185TIP3   OH230749   2.920   5.431   9.144  0.2998 -0.1615  0.0931
 2185TIP3    H130750   2.899   5.339   9.154  0.5608 -0.1028  1.3922
 2185TIP3    H230751   2.836   5.476   9.155 -0.4789 -0.3268 -3.7262
 2186TIP3   OH230752   6.552   3.003   8.626 -0.0463 -0.0604  0.0955
 2186TIP3    H130753   6.519   2.931   8.573  1.0102  0.0691 -0.7620
 2186TIP3    H230754   6.473   3.052   8.651 -0.6614 -0.7858 -0.3725
 2187TIP3   OH230755   4.740   7.448   8.745  0.1257 -0.1306  0.0849
 2187TIP3    H130756   4.669   7.499   8.784 -0.0204  1.1753 -1.7377
 2187TIP3    H230757   4.808   7.513   8.726  0.3674 -0.7744 -1.3588
 2188TIP3   OH230758   0.966   5.196   7.751 -0.1529 -0.3318 -0.1277
 2188TIP3    H130759   1.053   5.229   7.777 -0.9689  0.9965  1.0673
 2188TIP3    H230760   0.946   5.242   7.670 -0.3954  0.6027  0.4416
 2189TIP3   OH230761   5.838   4.279   7.017 -0.1792  0.0943 -0.1336
 2189TIP3    H130762   5.785   4.359   7.020 -1.0061 -0.4533  3.1394
 2189TIP3    H230763   5.925   4.308   7.046 -0.0355  0.0735 -0.5354
 2190TIP3   OH230764   4.079   0.889   9.190 -0.0819 -0.1502 -0.4804
 2190TIP3    H130765   4.020   0.930   9.253  0.7734  0.3056  0.0524
 2190TIP3    H230766   4.114   0.962   9.139 -0.8503 -0.5271 -1.5689
 2191TIP3   OH230767   3.146   5.817   7.716 -0.3399  0.4467 -0.3138
 2191TIP3    H130768   3.209   5.854   7.778  0.4526  1.0433 -1.4194
 2191TIP3    H230769   3.116   5.893   7.665 -1.2249  0.0228 -0.4351
 2192TIP3   OH230770   4.772   2.160   8.559 -0.1236  0.7001 -0.3073
 2192TIP3    H130771   4.775   2.155   8.464  0.3834  0.2309 -0.2657
 2192TIP3    H230772   4.760   2.253   8.578  0.9435  0.9502 -0.8032
 2193TIP3   OH230773   5.709   0.788   8.056  0.6814 -0.1807 -0.1271
 2193TIP3    H130774   5.769   0.862   8.046 -0.2315  0.5289 -0.5654
 2193TIP3    H230775   5.720   0.737   7.976  0.7511 -0.0910 -0.1740
 2194TIP3   OH230776   4.578   4.132   9.541 -0.0986  0.3503  0.1733
 2194TIP3    H130777   4.622   4.071   9.482 -0.3463  0.2862  0.0547
 2194TIP3    H230778   4.649   4.170   9.593 -0.0430 -0.7803  0.9523
 2195TIP3   OH230779   7.568   3.924   6.724  0.4425 -0.1875  0.1274
 2195TIP3    H130780   7.538   4.006   6.684  0.4736 -0.5789 -0.7094
 2195TIP3    H230781   7.658   3.941   6.749  0.4990 -0.0158 -0.1877
 2196TIP3   OH230782   7.472   4.428   6.819 -0.2989  0.0410 -0.4266
 2196TIP3    H130783   7.492   4.521   6.827 -1.0601  0.3161 -1.4551
 2196TIP3    H230784   7.480   4.410   6.725 -1.3924 -0.6338 -0.4113
 2197TIP3   OH230785   3.694   0.231   9.396  0.1443  0.3635 -0.0264
 2197TIP3    H130786   3.735   0.314   9.372 -1.1660  0.6245 -1.5481
 2197TIP3    H230787   3.751   0.165   9.357  0.8228  0.5483  0.6111
 2198TIP3   OH230788   6.916   0.619   6.793 -0.3721  0.2212  0.2179
 2198TIP3    H130789   6.985   0.634   6.857 -0.3287 -1.3264  0.5650
 2198TIP3    H230790   6.849   0.684   6.814 -0.9108 -1.0323  2.6428
 2199TIP3   OH230791   0.062   6.843   9.070  0.1401 -0.5928 -1.0670
 2199TIP3    H130792   0.108   6.817   9.149 -4.3255  1.3440  2.6391
 2199TIP3    H230793   0.033   6.761   9.030  1.0817 -1.5808  0.2156
 2200TIP3   OH230794   5.549   0.579   8.994 -0.0625 -0.2094  0.4591
 2200TIP3    H130795   5.595   0.606   9.073  1.7744 -1.2079 -0.2073
 2200TIP3    H230796   5.614   0.529   8.944 -2.1619 -2.6403 -0.0600
 2201TIP3   OH230797   5.369   3.628   7.692  0.3558  0.3189 -0.5454
 2201TIP3    H130798   5.297   3.683   7.723 -0.0657  0.0524 -1.0372
 2201TIP3    H230799   5.399   3.582   7.770 -1.5993 -1.3917 -0.7297
 2202TIP3   OH230800   1.485   3.595   6.727 -0.0284 -0.3290 -0.1648
 2202TIP3    H130801   1.424   3.576   6.655  0.2916  1.2927 -0.9141
 2202TIP3    H230802   1.533   3.513   6.739 -0.2336 -0.7114 -1.6612
 2203TIP3   OH230803   1.842   7.371   9.180 -0.7613 -0.4997 -0.1178
 2203TIP3    H130804   1.812   7.282   9.159 -0.5799 -1.4290  3.0353
 2203TIP3    H230805   1.765   7.412   9.221  0.1965 -0.5593  1.8442
 2204TIP3   OH230806   6.777   7.239   8.570  0.4036  0.0306 -0.1866
 2204TIP3    H130807   6.819   7.324   8.589  0.1169  0.1813 -0.2265
 2204TIP3    H230808   6.736   7.251   8.484  0.2820 -0.1195 -0.1496
 2205TIP3   OH230809   1.599   4.576   8.818 -0.0610 -0.4077 -0.1104
 2205TIP3    H130810   1.630   4.572   8.909 -0.2045 -2.9972 -0.1096
 2205TIP3    H230811   1.618   4.666   8.791  0.2082  0.3765  2.3843
 2206TIP3   OH230812   0.477   4.257   7.739  0.4015  0.0715  0.1809
 2206TIP3    H130813   0.445   4.278   7.827  1.5838 -0.1249  0.6807
 2206TIP3    H230814   0.414   4.298   7.680 -0.3650  0.2809  1.1170
 2207TIP3   OH230815   5.639   2.808   7.103  0.8963 -0.0869  0.6075
 2207TIP3    H130816   5.546   2.834   7.107  1.2114  0.9505  1.8247
 2207TIP3    H230817   5.672   2.851   7.024  0.8790  1.5327  1.4425
 2208TIP3   OH230818   1.923   1.146   9.107  0.6318  0.1720 -0.0916
 2208TIP3    H130819   1.895   1.136   9.016 -0.1993 -1.9000  0.3426
 2208TIP3    H230820   1.842   1.149   9.158  1.0768  1.6714  0.5843
 2209TIP3   OH230821   6.221   2.493   8.624 -0.5040 -0.5010 -0.4394
 2209TIP3    H130822   6.314   2.490   8.604 -0.2642  0.0689  0.5323
 2209TIP3    H230823   6.179   2.446   8.552  0.5824 -1.3378 -0.5357
 2210TIP3   OH230824   5.199   4.624   8.848  0.2489 -0.2765 -0.1624
 2210TIP3    H130825   5.223   4.549   8.903 -0.1542  0.0475  0.4650
 2210TIP3    H230826   5.121   4.661   8.890 -1.0172 -0.9432 -1.8150
 2211TIP3   OH230827   6.749   3.919   9.465 -0.1168 -0.1293  0.3072
 2211TIP3    H130828   6.765   3.918   9.371 -1.1944 -1.1347  0.1035
 2211TIP3    H230829   6.686   3.990   9.478  1.6494  1.4590  0.6131
 2212TIP3   OH230830   2.132   2.518   7.806 -0.1189  0.5762  0.3299
 2212TIP3    H130831   2.120   2.560   7.891 -0.5180  0.3235  0.3974
 2212TIP3    H230832   2.114   2.587   7.742  2.8523  1.5697  0.4211
 2213TIP3   OH230833   6.890   2.337   9.566 -0.1828 -0.1962  0.1293
 2213TIP3    H130834   6.968   2.283   9.554 -0.7634 -1.2209  0.8187
 2213TIP3    H230835   6.921   2.427   9.554  0.9990 -0.6140 -0.0820
 2214TIP3   OH230836   2.186   6.857   8.237  0.0341  0.0750  0.2429
 2214TIP3    H130837   2.151   6.887   8.153 -1.0304 -0.5476  0.4344
 2214TIP3    H230838   2.239   6.781   8.215  0.7471  0.6330  0.0132
 2215TIP3   OH230839   1.624   2.649   9.019 -0.4644  0.0466  0.7430
 2215TIP3    H130840   1.629   2.553   9.018  1.3633  0.1011  0.5999
 2215TIP3    H230841   1.622   2.674   8.927  1.0670  0.1702  0.7130
 2216TIP3   OH230842   6.595   2.437   7.988  0.5320 -0.1651  0.5456
 2216TIP3    H130843   6.680   2.459   8.026  0.5038  0.9432  0.0118
 2216TIP3    H230844   6.533   2.491   8.037  0.1298 -0.9368  0.9028
 2217TIP3   OH230845   0.187   2.381   9.288 -0.7189 -0.1744 -0.4544
 2217TIP3    H130846   0.259   2.368   9.226 -1.0617  2.1543 -1.4489
 2217TIP3    H230847   0.198   2.311   9.352  0.4208 -1.9042 -2.4191
 2218TIP3   OH230848   0.603   3.649   9.234  0.4814  0.0005 -0.0567
 2218TIP3    H130849   0.658   3.616   9.305  2.2217  1.4172 -0.7010
 2218TIP3    H230850   0.659   3.649   9.157 -1.2613 -1.1463 -1.4109
 2219TIP3   OH230851   1.450   1.260   8.967  0.1648 -0.2854  0.4795
 2219TIP3    H130852   1.387   1.289   9.033  0.6774 -0.5723  1.1064
 2219TIP3    H230853   1.420   1.301   8.886 -0.2502  0.3964  0.9641
 2220TIP3   OH230854   2.662   5.633   6.555  0.9225 -0.3479  0.1110
 2220TIP3    H130855   2.702   5.572   6.617 -0.9154  0.6030  2.4052
 2220TIP3    H230856   2.687   5.720   6.587 -0.6351  0.1854  0.0048
 2221TIP3   OH230857   0.968   0.499   8.412 -0.5150  0.1276  0.0827
 2221TIP3    H130858   0.939   0.471   8.325 -1.8227  1.4393  0.0600
 2221TIP3    H230859   1.010   0.584   8.397 -1.3098  0.6672  0.7801
 2222TIP3   OH230860   1.388   2.372   9.964  0.4425 -0.2534 -0.4942
 2222TIP3    H130861   1.413   2.326   9.883  2.8675 -1.3491  0.7707
 2222TIP3    H230862   1.365   2.301  10.024 -1.7561  0.5760 -0.3025
 2223TIP3   OH230863   0.407   0.442   7.557  0.8258 -0.0875 -0.1634
 2223TIP3    H130864   0.328   0.441   7.503  0.2828  0.6884  0.5906
 2223TIP3    H230865   0.392   0.374   7.622  0.7366  0.1189  0.0328
 2224TIP3   OH230866   0.252   4.794   7.004 -0.0234  0.1424 -0.2168
 2224TIP3    H130867   0.212   4.843   6.932  1.1085 -0.2741 -1.1592
 2224TIP3    H230868   0.201   4.818   7.081 -0.1306  2.0125 -0.8347
 2225TIP3   OH230869   1.152   4.437   9.411  0.1610 -0.2674 -0.3955
 2225TIP3    H130870   1.200   4.518   9.395 -1.4742  1.1801  1.4348
 2225TIP3    H230871   1.208   4.368   9.376  2.1906  1.5393 -0.9245
 2226TIP3   OH230872   0.583   2.566   8.600  0.3359 -0.7932 -0.0850
 2226TIP3    H130873   0.640   2.498   8.563  1.6151  0.4751 -0.5196
 2226TIP3    H230874   0.615   2.648   8.561 -1.1353  0.0735  0.4660
 2227TIP3   OH230875   4.140   4.342   7.610 -0.4962 -0.0439  0.0305
 2227TIP3    H130876   4.127   4.254   7.646  0.2494 -0.9881 -1.8205
 2227TIP3    H230877   4.232   4.362   7.629 -0.6551  0.3165  0.4135
 2228TIP3   OH230878   4.678   2.851   9.470  0.5146 -0.8733 -0.1223
 2228TIP3    H130879   4.668   2.859   9.564  1.2827  1.4655 -0.1729
 2228TIP3    H230880   4.762   2.807   9.458  0.9739 -0.1223  0.3043
 2229TIP3   OH230881   2.080   1.730   8.862  0.5655  0.5342  0.2204
 2229TIP3    H130882   2.145   1.682   8.811  0.5220  0.2649  0.4178
 2229TIP3    H230883   2.129   1.767   8.935  0.0935 -1.7578  1.8001
 2230TIP3   OH230884   4.313   2.535   7.582 -0.0347  0.2313  0.5742
 2230TIP3    H130885   4.244   2.599   7.563  1.1967  2.4549  2.9661
 2230TIP3    H230886   4.313   2.477   7.506 -3.0344  1.4419 -0.5090
 2231TIP3   OH230887   6.487   3.911   8.415  0.2889  0.0878  0.3365
 2231TIP3    H130888   6.449   3.867   8.339  0.6705 -1.7662  1.1533
 2231TIP3    H230889   6.434   3.990   8.426 -0.5357 -0.2199 -1.1189
 2232TIP3   OH230890   2.446   4.893   8.647  0.2647  0.0299 -0.1039
 2232TIP3    H130891   2.388   4.822   8.620  1.0561 -0.2491 -1.1391
 2232TIP3    H230892   2.416   4.916   8.735 -0.4028 -1.1620  0.0085
 2233TIP3   OH230893   6.232   4.443   9.507  0.3678  0.3609  0.0526
 2233TIP3    H130894   6.148   4.471   9.543 -0.5491  0.9681 -2.3736
 2233TIP3    H230895   6.284   4.524   9.503  0.3094  0.3816 -0.3379
 2234TIP3   OH230896   4.608   6.273   8.858 -0.3301 -0.1435 -0.0075
 2234TIP3    H130897   4.529   6.309   8.818 -0.0548  0.5132  0.0152
 2234TIP3    H230898   4.656   6.233   8.786 -0.7695 -0.7221  0.0106
 2235TIP3   OH230899   7.434   2.282   7.821  0.0327 -0.2239  0.4085
 2235TIP3    H130900   7.467   2.214   7.880 -2.1339 -1.2623  0.5149
 2235TIP3    H230901   7.445   2.363   7.871  1.6692 -0.6033  0.7114
 2236TIP3   OH230902   3.481   2.028   8.693  0.3450 -0.1582  0.9651
 2236TIP3    H130903   3.567   2.038   8.651  0.3206 -0.8133  0.7326
 2236TIP3    H230904   3.432   2.106   8.667 -0.0047 -0.9850 -1.0877
 2237TIP3   OH230905   1.707   2.007   9.557 -0.1203 -0.4524 -0.3306
 2237TIP3    H130906   1.612   2.006   9.543 -0.4218  1.8069  1.0185
 2237TIP3    H230907   1.721   2.078   9.620  2.5022 -0.5207 -0.7265
 2238TIP3   OH230908   6.748   5.151   8.105  0.6165 -0.2313  0.3972
 2238TIP3    H130909   6.784   5.064   8.089  0.4944 -0.0932 -0.6909
 2238TIP3    H230910   6.815   5.196   8.157  0.9537 -0.7636  0.4262
 2239TIP3   OH230911   3.314   3.504   8.967 -0.2171 -0.0335 -0.0481
 2239TIP3    H130912   3.343   3.418   8.937 -2.3530 -0.5621 -0.7399
 2239TIP3    H230913   3.226   3.491   9.000 -0.2947  1.7574  0.5994
 2240TIP3   OH230914   2.915   0.986   9.392  0.5268 -0.9959  0.2435
 2240TIP3    H130915   2.876   0.972   9.305  2.2884  0.9871 -0.9580
 2240TIP3    H230916   2.884   1.073   9.418  0.5774 -1.2846  1.3304
 2241TIP3   OH230917   3.868   2.908   8.031 -0.2704 -0.1397  0.5449
 2241TIP3    H130918   3.963   2.904   8.036 -0.1041  0.5645 -1.3283
 2241TIP3    H230919   3.842   2.961   8.106  0.8472  0.0305  0.8274
 2242TIP3   OH230920   0.478   0.893   9.257 -0.5774  0.2685 -0.1620
 2242TIP3    H130921   0.472   0.937   9.342  0.1232  0.5833 -0.2658
 2242TIP3    H230922   0.521   0.810   9.276 -0.5260  0.2887 -0.1891
 2243TIP3   OH230923   1.710   1.155   7.280  0.5959  0.1452 -0.1520
 2243TIP3    H130924   1.715   1.250   7.284  0.8692  0.1678 -0.9315
 2243TIP3    H230925   1.800   1.125   7.297  0.2538 -0.0419  1.5147
 2244TIP3   OH230926   6.163   6.220   8.434  0.3095  0.3704 -0.5922
 2244TIP3    H130927   6.181   6.253   8.346 -0.1179 -0.8406 -1.1541
 2244TIP3    H230928   6.123   6.134   8.420 -0.7723  0.6159  0.7566
 2245TIP3   OH230929   2.472   2.879   8.497  0.2288 -0.0869 -0.1781
 2245TIP3    H130930   2.464   2.784   8.507 -0.1611 -0.0640 -0.2491
 2245TIP3    H230931   2.430   2.915   8.575 -1.2778  0.0585 -1.0199
 2246TIP3   OH230932   3.583   4.807   9.265 -0.0308 -0.1179 -0.4886
 2246TIP3    H130933   3.632   4.824   9.185 -0.1493 -0.1541 -0.5705
 2246TIP3    H230934   3.613   4.720   9.293 -0.3428 -0.3179 -0.7613
 2247TIP3   OH230935   5.438   4.326   6.995  0.3548  0.6810 -0.0196
 2247TIP3    H130936   5.521   4.372   6.984  0.4395  0.6886  0.6398
 2247TIP3    H230937   5.413   4.341   7.086  0.8565 -1.3429  0.5220
 2248TIP3   OH230938   2.996   0.626   7.981  0.2344  0.4587  0.1401
 2248TIP3    H130939   3.036   0.540   7.968 -0.4299  0.2225 -0.4267
 2248TIP3    H230940   3.069   0.684   8.000  0.8350  0.0086 -0.7357
 2249TIP3   OH230941   4.412   2.898   7.224  0.0145  0.1295  0.3875
 2249TIP3    H130942   4.423   2.819   7.276 -0.4312  0.3644  0.8515
 2249TIP3    H230943   4.381   2.964   7.287  0.6548  0.7542  0.0769
 2250TIP3   OH230944   5.976   7.587   9.133 -0.2421  0.3784  0.3868
 2250TIP3    H130945   5.976   7.682   9.137 -0.7280  0.3381  1.5073
 2250TIP3    H230946   5.889   7.561   9.165  0.1053 -0.4605  0.6910
 2251TIP3   OH230947   1.358   4.467   7.679  0.0421 -0.7509  0.4044
 2251TIP3    H130948   1.299   4.542   7.678  0.1624 -0.6184 -1.8033
 2251TIP3    H230949   1.421   4.485   7.609 -0.3834 -3.2185 -0.7255
 2252TIP3   OH230950   5.750   3.983   7.429 -0.2683 -0.0826  0.0577
 2252TIP3    H130951   5.682   4.025   7.482 -1.1377  0.2238 -1.2684
 2252TIP3    H230952   5.747   3.891   7.455 -1.0290 -0.0305  0.1704
 2253TIP3   OH230953   7.468   0.844   8.828  0.4506  0.0040 -0.5529
 2253TIP3    H130954   7.411   0.770   8.810 -0.3746 -0.1747  2.2391
 2253TIP3    H230955   7.533   0.810   8.890  0.9664  1.2303 -0.3865
 2254TIP3   OH230956   6.681   6.472   9.267  0.5963 -0.1821 -0.5388
 2254TIP3    H130957   6.643   6.387   9.288 -0.4959 -0.0667 -1.8566
 2254TIP3    H230958   6.775   6.456   9.259  0.3824 -1.3097 -0.9627
 2255TIP3   OH230959   0.337   7.402   7.835  0.2903  0.1000  0.1120
 2255TIP3    H130960   0.352   7.324   7.782 -1.3366 -0.8914  1.0033
 2255TIP3    H230961   0.399   7.467   7.802 -0.0583 -0.7443 -2.3922
 2256TIP3   OH230962   5.694   2.530   6.759 -0.4390 -0.1777 -0.5430
 2256TIP3    H130963   5.675   2.485   6.842 -0.9884  0.3176 -0.3866
 2256TIP3    H230964   5.715   2.460   6.698  0.2865 -0.5292  0.0945
 2257TIP3   OH230965   2.300   5.884   7.858 -0.1546  0.7941 -0.1011
 2257TIP3    H130966   2.376   5.848   7.904  0.5723  0.8715 -1.2104
 2257TIP3    H230967   2.277   5.963   7.908  0.6251  0.8828  0.1339
 2258TIP3   OH230968   1.909   5.411   8.682  0.2773  0.0823 -0.0197
 2258TIP3    H130969   1.846   5.357   8.730  1.5725 -0.9988  0.5254
 2258TIP3    H230970   1.855   5.461   8.621 -1.0490 -1.5669 -0.3004
 2259TIP3   OH230971   0.534   5.969   8.528  0.4856  0.3427 -0.1314
 2259TIP3    H130972   0.499   5.884   8.557  0.3744  0.1277 -0.8765
 2259TIP3    H230973   0.557   5.955   8.437  0.1554  1.2196 -0.3582
 2260TIP3   OH230974   2.095   3.037   8.551 -0.5064  0.6238 -0.2961
 2260TIP3    H130975   2.036   3.028   8.626  0.0970 -1.4701  0.0011
 2260TIP3    H230976   2.182   3.036   8.589 -0.1463 -1.6466 -1.0397
 2261TIP3   OH230977   2.653   7.672   8.119  0.2365  0.3243 -0.0092
 2261TIP3    H130978   2.684   7.759   8.146  0.8303  0.2027 -0.2917
 2261TIP3    H230979   2.560   7.672   8.142  0.7074  0.2013  2.0704
 2262TIP3   OH230980   6.341   5.794   7.311  0.2840 -0.8711 -0.4302
 2262TIP3    H130981   6.304   5.731   7.249  1.3190 -0.7637 -1.1657
 2262TIP3    H230982   6.308   5.764   7.396  0.5216 -2.2488 -0.7884
 2263TIP3   OH230983   3.897   4.255   7.327 -0.5466 -0.6472  0.0497
 2263TIP3    H130984   3.963   4.239   7.260  1.4442  0.5260  1.6090
 2263TIP3    H230985   3.883   4.170   7.368 -2.6206 -1.6309 -2.4309
 2264TIP3   OH230986   0.366   1.083   7.702 -0.4839 -0.2447  0.8306
 2264TIP3    H130987   0.318   1.052   7.779  0.3947 -0.7226  1.2035
 2264TIP3    H230988   0.388   1.174   7.723  0.9256 -0.7782  1.7487
 2265TIP3   OH230989   2.656   7.420   9.119  0.7060  0.3782  0.7040
 2265TIP3    H130990   2.680   7.511   9.138  0.1991  0.5167  0.6833
 2265TIP3    H230991   2.653   7.416   9.024  2.7311 -0.1855  0.6076
 2266TIP3   OH230992   4.619   4.224   9.180 -0.1469 -0.2891 -0.3378
 2266TIP3    H130993   4.653   4.167   9.249  1.4416  0.2453 -0.6454
 2266TIP3    H230994   4.544   4.177   9.145  0.1893 -1.4566  0.4635
 2267TIP3   OH230995   0.917   4.460   9.558  0.1165  0.2254  0.3524
 2267TIP3    H130996   0.938   4.426   9.645 -0.2820 -1.1679 -0.0685
 2267TIP3    H230997   0.992   4.436   9.503  0.1998  0.7696  0.2181
 2268TIP3   OH230998   0.981   1.711   9.133 -0.1819  0.1939 -0.5387
 2268TIP3    H130999   1.033   1.758   9.198  0.4919  0.4686 -1.2620
 2268TIP3    H231000   1.044   1.682   9.067 -0.8885  0.2592 -1.2675
 2269TIP3   OH231001   5.890   5.337   8.646  0.6765  0.2948  0.0755
 2269TIP3    H131002   5.983   5.361   8.642  0.4352  1.2446 -0.0405
 2269TIP3    H231003   5.844   5.414   8.613 -0.0764 -0.8631 -1.6911
 2270TIP3   OH231004   3.206   5.814   7.376  0.2069  0.1990  0.6530
 2270TIP3    H131005   3.151   5.787   7.450  0.6341 -1.4123  0.4378
 2270TIP3    H231006   3.246   5.896   7.404 -0.8031  0.4080  1.5877
 2271TIP3   OH231007   5.980   0.176   9.248  0.1789  0.8137 -0.3349
 2271TIP3    H131008   5.915   0.230   9.204  0.2405  0.8886 -0.3333
 2271TIP3    H231009   6.032   0.238   9.300 -0.7772  0.5718  0.9581
 2272TIP3   OH231010   4.475   6.907   9.375  0.1900 -0.3693 -0.6848
 2272TIP3    H131011   4.521   6.827   9.401 -0.9636 -1.2941 -1.3944
 2272TIP3    H231012   4.544   6.973   9.369  0.8053 -0.5053  2.8777
 2273TIP3   OH231013   6.160   0.544   7.075  0.5960  0.1136  0.2246
 2273TIP3    H131014   6.065   0.537   7.074  0.5095  0.4429 -2.8355
 2273TIP3    H231015   6.177   0.637   7.087  0.5417  0.0592  0.7393
 2274TIP3   OH231016   2.686   3.184   9.273 -0.8017 -0.0371  0.1056
 2274TIP3    H131017   2.742   3.258   9.297  0.3117 -1.3157  1.6847
 2274TIP3    H231018   2.733   3.141   9.202 -1.7326  1.0370 -1.2128
 2275TIP3   OH231019   2.502   1.009   8.797 -0.0896  0.4708 -0.2515
 2275TIP3    H131020   2.460   1.093   8.812 -2.3651 -0.4612 -1.0684
 2275TIP3    H231021   2.475   0.955   8.871  2.3338  0.7053  0.9248
 2276TIP3   OH231022   4.223   2.839   8.802 -0.3043 -0.0611  0.0890
 2276TIP3    H131023   4.145   2.873   8.846  0.0866  0.5388  0.3323
 2276TIP3    H231024   4.275   2.801   8.873 -0.8676 -1.4619 -0.2142
 2277TIP3   OH231025   5.046   2.494   9.563  0.5226  0.1024  0.0353
 2277TIP3    H131026   5.002   2.462   9.485 -1.4046  1.5904  0.4535
 2277TIP3    H231027   5.099   2.420   9.593  0.8710 -0.6752 -2.3172
 2278TIP3   OH231028   5.453   4.815   8.845 -0.1651  0.0804 -0.3324
 2278TIP3    H131029   5.444   4.910   8.830 -1.3657  0.1585  0.6920
 2278TIP3    H231030   5.373   4.791   8.891  1.1536 -1.0186  1.5133
 2279TIP3   OH231031   0.997   2.341   9.057 -0.6369  0.3180  0.1773
 2279TIP3    H131032   1.004   2.399   8.980  0.7532  0.8928  0.6928
 2279TIP3    H231033   1.088   2.317   9.076 -0.9983 -0.1054  1.4373
 2280TIP3   OH231034   6.488   3.034   8.983  0.2735  0.2642 -0.6257
 2280TIP3    H131035   6.438   3.087   8.921 -2.0510  0.0778  0.9778
 2280TIP3    H231036   6.580   3.050   8.959 -0.4784  0.2092 -4.0312
 2281TIP3   OH231037   4.922   2.611   8.431 -0.3554  0.1042  0.2525
 2281TIP3    H131038   4.938   2.652   8.517  1.0553 -0.3356  0.2328
 2281TIP3    H231039   4.997   2.552   8.419 -2.2252 -2.4325  0.2335
 2282TIP3   OH231040   0.989   1.492   7.761 -0.2756  0.1640  0.7429
 2282TIP3    H131041   0.967   1.432   7.833  0.6383  0.9541  1.7166
 2282TIP3    H231042   1.080   1.471   7.740  0.4457  1.9258  1.8830
 2283TIP3   OH231043   4.893   5.810   8.017  0.1648 -0.4422  0.1396
 2283TIP3    H131044   4.885   5.869   7.942 -0.7729 -1.4944 -0.6259
 2283TIP3    H231045   4.900   5.868   8.092 -2.6396  0.7360 -0.3711
 2284TIP3   OH231046   0.311   6.993   6.905 -0.6198  0.3347 -0.0664
 2284TIP3    H131047   0.341   7.082   6.924 -0.2744  0.1912  0.0689
 2284TIP3    H231048   0.232   7.005   6.852  1.9698  0.7466 -4.2366
 2285TIP3   OH231049   2.725   3.603   8.331  0.2235  0.3558 -0.0353
 2285TIP3    H131050   2.747   3.695   8.344 -0.2571  0.6345 -1.0249
 2285TIP3    H231051   2.692   3.599   8.241  2.0214 -1.1252 -0.6921
 2286TIP3   OH231052   6.670   7.112   9.321 -0.3818 -0.6326 -0.7278
 2286TIP3    H131053   6.663   7.033   9.375 -1.1865  0.7966  1.4151
 2286TIP3    H231054   6.759   7.110   9.288 -0.4039 -2.4563 -0.7937
 2287TIP3   OH231055   4.998   7.399   8.964  0.0916 -0.0258 -0.3403
 2287TIP3    H131056   5.070   7.416   9.026  0.5807 -2.1126 -0.2620
 2287TIP3    H231057   5.027   7.440   8.883  0.7642  0.3074  0.0528
 2288TIP3   OH231058   2.420   7.429   7.836 -0.2421  0.1175  0.2044
 2288TIP3    H131059   2.421   7.489   7.910 -2.0296  0.3956  0.0429
 2288TIP3    H231060   2.451   7.482   7.762  0.0084  0.2828  0.4231
 2289TIP3   OH231061   4.662   3.110   9.595 -0.1863  0.2371  0.5916
 2289TIP3    H131062   4.622   3.114   9.682 -2.7496  1.1146 -0.5343
 2289TIP3    H231063   4.647   3.020   9.565 -0.5064  0.3043  0.5457
 2290TIP3   OH231064   3.451   0.544   7.744 -0.2186  0.3911 -0.1545
 2290TIP3    H131065   3.409   0.518   7.662  1.6015  1.4000 -1.5034
 2290TIP3    H231066   3.400   0.619   7.774 -0.3715  0.5999 -0.8920
 2291TIP3   OH231067   2.191   5.032   9.338  0.3263 -0.3810 -0.3247
 2291TIP3    H131068   2.214   5.036   9.431 -0.5406 -0.2009 -0.1144
 2291TIP3    H231069   2.231   5.110   9.300 -1.5992  1.0637  0.4264
 2292TIP3   OH231070   4.807   1.333   7.528  0.1108  0.1274 -0.2987
 2292TIP3    H131071   4.792   1.240   7.511  0.8099 -0.2855  1.2183
 2292TIP3    H231072   4.898   1.338   7.558 -0.5563  0.9858  1.7503
 2293TIP3   OH231073   3.511   2.071   9.646 -0.1598 -0.7015  0.9877
 2293TIP3    H131074   3.527   2.045   9.737  1.4540 -0.5333  0.7734
 2293TIP3    H231075   3.524   2.166   9.645  2.9394 -1.0377  0.0258
 2294TIP3   OH231076   6.568   0.536   6.928 -0.0001  0.0622 -0.2262
 2294TIP3    H131077   6.609   0.620   6.911 -1.8832  1.0405 -0.1647
 2294TIP3    H231078   6.618   0.499   7.001  0.7960  1.1539 -0.1933
 2295TIP3   OH231079   7.446   0.856   7.851 -0.4233 -0.2825  0.0453
 2295TIP3    H131080   7.458   0.921   7.920 -0.6836 -1.9576  1.7768
 2295TIP3    H231081   7.356   0.869   7.821 -0.4173  0.2663  0.2663
 2296TIP3   OH231082   3.249   2.767   8.913  0.0702 -0.2387 -0.1604
 2296TIP3    H131083   3.302   2.755   8.834  0.3783  1.5209 -0.2787
 2296TIP3    H231084   3.205   2.684   8.926  1.0392 -0.9868 -1.4321
 2297TIP3   OH231085   0.497   6.976   7.838  0.0463  0.0353  0.2308
 2297TIP3    H131086   0.443   7.008   7.910 -3.5686 -0.0701 -2.1601
 2297TIP3    H231087   0.497   6.881   7.848 -3.0733 -0.2561 -1.3664
 2298TIP3   OH231088   4.858   5.265   8.940 -0.5925 -0.7060  0.2941
 2298TIP3    H131089   4.824   5.181   8.909 -0.0140 -0.2748 -1.5924
 2298TIP3    H231090   4.941   5.276   8.895 -1.9402  2.1575 -1.7600
 2299TIP3   OH231091   0.945   6.569   8.288 -0.0137  0.3100 -0.1185
 2299TIP3    H131092   1.025   6.539   8.332  0.1191  0.4940 -0.2360
 2299TIP3    H231093   0.876   6.559   8.355  0.1433  0.3499  0.0502
 2300TIP3   OH231094   5.398   0.508   8.744  0.5008  0.0535 -0.0211
 2300TIP3    H131095   5.487   0.505   8.708  0.3023 -0.8625 -0.4514
 2300TIP3    H231096   5.410   0.538   8.834  0.9999  2.4211 -0.7891
 2301TIP3   OH231097   6.131   7.204   7.469  0.5989  0.5916  0.5178
 2301TIP3    H131098   6.094   7.196   7.381 -2.0783 -0.1587  1.6094
 2301TIP3    H231099   6.084   7.278   7.507  2.4908  1.5932  1.0203
 2302TIP3   OH231100   4.892   2.794   8.239  0.0466  0.0121 -0.4661
 2302TIP3    H131101   4.939   2.724   8.285 -1.9317 -0.3619  1.1341
 2302TIP3    H231102   4.887   2.865   8.303  0.1000  0.7802 -1.2929
 2303TIP3   OH231103   1.181   3.148   7.071 -0.0583 -0.5805 -0.0808
 2303TIP3    H131104   1.111   3.108   7.019  0.6704 -2.5080  0.3331
 2303TIP3    H231105   1.213   3.077   7.127  1.9502  0.3610  0.0507
 2304TIP3   OH231106   4.255   2.485   9.344 -0.1065 -0.2817  0.1825
 2304TIP3    H131107   4.308   2.458   9.270  0.7869  0.1564  0.6424
 2304TIP3    H231108   4.255   2.581   9.341 -0.5867 -0.2698  0.3850
 2305TIP3   OH231109   0.456   3.916   7.535 -0.2395  0.2746  0.7585
 2305TIP3    H131110   0.370   3.924   7.492  0.8445  0.4714 -1.5162
 2305TIP3    H231111   0.501   3.848   7.485  0.5771 -0.5756  2.5860
 2306TIP3   OH231112   3.449   5.570   8.437  0.1130 -0.2876  0.2013
 2306TIP3    H131113   3.373   5.519   8.465  0.3331 -0.4300  0.5315
 2306TIP3    H231114   3.514   5.505   8.410 -0.1633 -0.1580 -0.8363
 2307TIP3   OH231115   1.462   6.064   8.530  0.1003 -0.3168  0.0834
 2307TIP3    H131116   1.502   6.147   8.502 -2.5754  0.5562 -1.5807
 2307TIP3    H231117   1.530   5.998   8.516  2.2682  1.5247  1.3568
 2308TIP3   OH231118   6.579   4.572   7.407  0.5316  0.0151 -0.0604
 2308TIP3    H131119   6.507   4.528   7.362 -0.2782  0.7832  0.4460
 2308TIP3    H231120   6.658   4.530   7.373 -0.0841  0.0274 -1.6064
 2309TIP3   OH231121   3.394   1.568   9.434  0.1412 -0.5157  0.1478
 2309TIP3    H131122   3.336   1.634   9.472 -0.3328 -0.7040 -0.2340
 2309TIP3    H231123   3.349   1.485   9.449  0.2110 -0.6446 -0.3261
 2310TIP3   OH231124   7.521   3.663   8.445 -0.0945 -1.1396  0.4471
 2310TIP3    H131125   7.564   3.666   8.531 -0.5661 -0.5156  0.6678
 2310TIP3    H231126   7.515   3.570   8.425  0.3638 -1.2774  0.9159
 2311TIP3   OH231127   2.694   3.993   9.099 -0.1944 -0.6604 -0.1430
 2311TIP3    H131128   2.720   4.062   9.161 -0.1077 -0.3006 -0.5690
 2311TIP3    H231129   2.773   3.977   9.047  0.1731 -1.9975  0.7712
 2312TIP3   OH231130   1.196   1.925   9.229 -0.1213 -0.0240  0.1343
 2312TIP3    H131131   1.289   1.909   9.217 -0.2908 -1.8894  1.0493
 2312TIP3    H231132   1.163   1.941   9.140  1.3861  2.9857 -0.0194
 2313TIP3   OH231133   6.484   0.774   9.236  0.1887 -0.1449 -0.1130
 2313TIP3    H131134   6.509   0.852   9.187  0.3477 -0.7391 -0.9970
 2313TIP3    H231135   6.564   0.723   9.243  0.7327  0.8996  2.6998
 2314TIP3   OH231136   4.414   7.274   7.072 -0.0880 -0.0255 -0.1001
 2314TIP3    H131137   4.345   7.215   7.042  0.3795 -0.8812  0.4406
 2314TIP3    H231138   4.475   7.277   6.998 -1.2747  1.7317 -1.0737
 2315TIP3   OH231139   4.150   6.591   8.093 -0.0641  0.1130 -0.3009
 2315TIP3    H131140   4.096   6.588   8.171  0.2128  0.8995 -0.0707
 2315TIP3    H231141   4.240   6.586   8.125  0.0331 -0.2965 -0.6229
 2316TIP3   OH231142   5.829   3.338   8.387  0.6600 -0.1358  0.3661
 2316TIP3    H131143   5.861   3.412   8.335 -0.4942  1.0480  1.2957
 2316TIP3    H231144   5.798   3.275   8.322 -0.0474  0.9824 -0.4062
 2317TIP3   OH231145   0.717   5.798   8.101  0.1879 -0.0284 -0.1548
 2317TIP3    H131146   0.757   5.729   8.047  1.1589  0.5515 -0.1931
 2317TIP3    H231147   0.730   5.878   8.051  0.9028  0.4859  0.8389
 2318TIP3   OH231148   5.723   0.376   9.396  0.0133  0.0505  0.4113
 2318TIP3    H131149   5.644   0.428   9.413 -0.6315 -1.3356  2.0102
 2318TIP3    H231150   5.775   0.384   9.476  0.2535 -1.1167  0.3934
 2319TIP3   OH231151   7.374   0.646   8.505  0.8440 -0.4593  0.4511
 2319TIP3    H131152   7.415   0.564   8.534 -0.4847 -1.4689 -0.4219
 2319TIP3    H231153   7.400   0.655   8.413  2.4918  1.1129  1.0005
 2320TIP3   OH231154   6.664   5.097   9.347 -0.2125  0.2564  0.0683
 2320TIP3    H131155   6.631   5.009   9.365  0.7658  0.0346  0.8611
 2320TIP3    H231156   6.742   5.083   9.294  1.1890  0.4901  1.9665
 2321TIP3   OH231157   4.351   4.731   8.853  0.1990 -0.7122 -0.1414
 2321TIP3    H131158   4.262   4.766   8.847  0.1797 -0.7996 -0.3904
 2321TIP3    H231159   4.340   4.642   8.885  0.3746  0.0971  2.3790
 2322TIP3   OH231160   5.561   0.152   9.337 -0.3894 -0.1386  0.0462
 2322TIP3    H131161   5.652   0.181   9.329 -0.0912 -0.8650  0.6686
 2322TIP3    H231162   5.529   0.148   9.247  0.0875  0.4527 -0.1523
 2323TIP3   OH231163   5.043   5.626   8.783  0.0934  0.1457  0.2332
 2323TIP3    H131164   5.035   5.717   8.814 -0.4152  0.6573 -1.3145
 2323TIP3    H231165   5.003   5.574   8.853 -2.4020  1.3832 -0.1683
 2324TIP3   OH231166   1.222   1.178   6.844 -0.4180 -0.2430  0.3987
 2324TIP3    H131167   1.186   1.126   6.916  0.7698 -0.8891  0.5414
 2324TIP3    H231168   1.145   1.212   6.799 -1.2572 -2.6875 -0.1297
 2325TIP3   OH231169   2.450   5.762   7.345 -0.0746  0.1699  0.2104
 2325TIP3    H131170   2.487   5.674   7.339  1.8840  0.9740 -0.2808
 2325TIP3    H231171   2.414   5.779   7.258  0.0057  0.0474  0.1535
 2326TIP3   OH231172   5.262   1.587   8.298 -0.8802  0.1793  0.0003
 2326TIP3    H131173   5.260   1.507   8.246  2.0730  0.0021  0.0045
 2326TIP3    H231174   5.346   1.583   8.344 -1.4961  2.4066  1.4435
 2327TIP3   OH231175   5.092   2.195   7.571 -0.1028  0.5297 -0.3897
 2327TIP3    H131176   5.033   2.232   7.636 -0.0745  0.9737 -0.6152
 2327TIP3    H231177   5.069   2.239   7.489  2.6058  3.0893  0.0408
 2328TIP3   OH231178   1.643   6.233   8.397  0.7571  0.3855 -0.0821
 2328TIP3    H131179   1.662   6.293   8.324  0.0996  0.8877  0.1576
 2328TIP3    H231180   1.713   6.168   8.392  0.7559  0.4465 -1.1323
 2329TIP3   OH231181   3.649   7.205   7.213 -0.0937 -0.0849  0.0390
 2329TIP3    H131182   3.676   7.292   7.243  0.6563  0.2413 -1.4788
 2329TIP3    H231183   3.555   7.201   7.233  0.3484  0.0210  2.4872
 2330TIP3   OH231184   6.669   4.219   7.276 -0.4477  0.6627  0.9061
 2330TIP3    H131185   6.741   4.256   7.225 -0.4426 -0.1375  0.3241
 2330TIP3    H231186   6.706   4.142   7.318 -0.8793  0.4371  0.8768
 2331TIP3   OH231187   2.868   6.448   7.890  0.1332 -0.1005 -0.0889
 2331TIP3    H131188   2.889   6.489   7.806 -0.1126  0.7972  0.2841
 2331TIP3    H231189   2.814   6.512   7.936  0.3716 -0.5252  0.8110
 2332TIP3   OH231190   4.010   1.446   7.575 -0.6239  0.6259 -0.4659
 2332TIP3    H131191   4.041   1.409   7.492  2.5374  1.1406  0.3478
 2332TIP3    H231192   3.938   1.388   7.601  0.1527 -1.2495 -2.1875
 2333TIP3   OH231193   1.574   3.504   8.497 -0.4158 -0.1507  0.0690
 2333TIP3    H131194   1.599   3.529   8.408 -1.3945  0.9624  0.0891
 2333TIP3    H231195   1.478   3.507   8.497 -0.4066  2.0641  1.7521
 2334TIP3   OH231196   2.355   0.994   9.109 -0.4394  0.2804  0.5580
 2334TIP3    H131197   2.385   0.921   9.163 -0.0658 -0.5737 -0.7369
 2334TIP3    H231198   2.419   1.064   9.124 -0.7475  0.3223  1.7410
 2335TIP3   OH231199   5.293   4.812   6.990 -0.3503  0.0358  0.8222
 2335TIP3    H131200   5.258   4.748   6.928  1.5661 -1.3008  1.0384
 2335TIP3    H231201   5.227   4.881   6.993 -0.6662  0.0489 -2.5325
 2336TIP3   OH231202   7.491   4.832   8.357  0.3739  0.4634  0.8117
 2336TIP3    H131203   7.543   4.912   8.363 -1.1052  1.4208  1.7300
 2336TIP3    H231204   7.549   4.768   8.316  2.0016  1.6667  1.1307
 2337TIP3   OH231205   5.872   4.009   8.367  0.4925  0.6165  0.8553
 2337TIP3    H131206   5.864   3.941   8.434 -0.4293  0.5215  0.6639
 2337TIP3    H231207   5.789   4.057   8.372 -0.4307 -0.5814 -1.4885
 2338TIP3   OH231208   7.386   1.239   7.358 -0.2552 -0.4306 -0.0954
 2338TIP3    H131209   7.367   1.287   7.277  0.0843 -0.9375 -0.4736
 2338TIP3    H231210   7.309   1.185   7.372 -0.4486 -0.1095  0.0922
 2339TIP3   OH231211   7.529   4.985   8.067 -0.6439 -0.1874 -0.0694
 2339TIP3    H131212   7.601   5.042   8.092  0.6371 -1.9440  0.4545
 2339TIP3    H231213   7.508   5.010   7.977  0.2820  0.6950 -0.0475
 2340TIP3   OH231214   4.720   2.475   8.285 -0.4100  0.1027  0.3490
 2340TIP3    H131215   4.748   2.525   8.361 -1.2012  1.3895 -0.1579
 2340TIP3    H231216   4.801   2.450   8.241  0.0346 -0.1287  1.2682
 2341TIP3   OH231217   7.283   6.946   9.395 -0.0964 -1.3316 -0.0924
 2341TIP3    H131218   7.336   6.942   9.475  1.4495  1.0071 -0.8870
 2341TIP3    H231219   7.329   6.889   9.333  0.3398 -0.9160 -0.1561
 2342TIP3   OH231220   7.268   6.999   7.279 -0.0371  0.7908  0.3516
 2342TIP3    H131221   7.354   6.956   7.274 -0.4575 -0.1252  0.7075
 2342TIP3    H231222   7.281   7.083   7.236  0.0796 -0.8419 -3.1453
 2343TIP3   OH231223   0.215   2.264   8.109  0.0898 -0.3642 -0.5247
 2343TIP3    H131224   0.265   2.192   8.071 -0.2641 -0.4906 -0.7567
 2343TIP3    H231225   0.124   2.244   8.086  0.0046  0.2198 -0.6969
 2344TIP3   OH231226   4.536   0.038   8.583  0.1316 -0.1197 -0.4724
 2344TIP3    H131227   4.539   0.110   8.521 -4.0961  1.5319  0.8452
 2344TIP3    H231228   4.540   0.080   8.669 -1.0297 -1.5441  0.3309
 2345TIP3   OH231229   3.450   7.345   7.636 -0.4935 -0.4958 -0.0246
 2345TIP3    H131230   3.444   7.255   7.606  1.0708 -0.6635  0.0754
 2345TIP3    H231231   3.410   7.344   7.724 -0.0128 -1.2063  0.1937
 2346TIP3   OH231232   1.532   7.460   8.220 -0.2374 -0.6053  0.6146
 2346TIP3    H131233   1.614   7.425   8.186  1.0615  1.3993  1.4803
 2346TIP3    H231234   1.551   7.481   8.311 -1.0026  1.7887  0.3105
 2347TIP3   OH231235   1.508   3.986   8.386 -0.7402  0.2586 -0.2953
 2347TIP3    H131236   1.586   3.932   8.398 -0.9548  0.1532  0.7064
 2347TIP3    H231237   1.517   4.021   8.297  0.2235 -0.1011 -0.3557
 2348TIP3   OH231238   0.333   3.960   6.877  0.0619  0.1635 -1.0654
 2348TIP3    H131239   0.385   3.893   6.833 -0.3364  0.0472 -1.3637
 2348TIP3    H231240   0.397   4.025   6.906  0.3794 -0.0058 -1.3813
 2349TIP3   OH231241   3.053   2.956   9.008 -0.1086 -0.2307  0.1977
 2349TIP3    H131242   3.017   2.907   8.934  1.6097  2.1771 -2.4586
 2349TIP3    H231243   2.977   2.991   9.053 -1.2317 -0.6575 -1.2945
 2350TIP3   OH231244   4.028   0.716   8.090  0.4136 -0.1674  0.1035
 2350TIP3    H131245   3.992   0.781   8.149  0.3667 -0.0149 -0.0932
 2350TIP3    H231246   4.041   0.638   8.144  1.8637  0.4538  0.6954
 2351TIP3   OH231247   1.804   6.285   9.424 -0.3295 -0.1266  0.0046
 2351TIP3    H131248   1.784   6.200   9.463  0.5865 -0.8028 -0.9583
 2351TIP3    H231249   1.896   6.279   9.399 -0.1156  1.3301  0.3471
 2352TIP3   OH231250   0.842   0.275   8.272  0.1278  0.0684 -0.0251
 2352TIP3    H131251   0.906   0.307   8.209 -0.3377  1.6857  0.2862
 2352TIP3    H231252   0.763   0.259   8.221  0.3792 -0.6966 -0.1906
 2353TIP3   OH231253   0.605   0.936   7.618 -0.3269 -0.3952 -0.3982
 2353TIP3    H131254   0.648   0.850   7.611  1.3363  0.3436  0.2472
 2353TIP3    H231255   0.520   0.917   7.656 -0.4719 -1.8886 -1.3758
 2354TIP3   OH231256   0.453   3.904   8.205  0.1252  0.2080  0.2822
 2354TIP3    H131257   0.438   3.976   8.266  1.2013  1.6779 -1.0768
 2354TIP3    H231258   0.365   3.873   8.182 -0.4305  1.7541  0.1860
 2355TIP3   OH231259   7.393   4.713   9.490  0.4253 -0.3821  0.2563
 2355TIP3    H131260   7.389   4.636   9.547  1.1050  0.2435  1.1958
 2355TIP3    H231261   7.310   4.758   9.505  1.2503  0.6371  2.0652
 2356TIP3   OH231262   7.517   5.448   8.082  0.2719  0.4210  0.0328
 2356TIP3    H131263   7.520   5.372   8.141 -0.6487  0.6546  0.3976
 2356TIP3    H231264   7.492   5.412   7.997  0.8752  0.1834 -0.0515
 2357TIP3   OH231265   6.790   5.898   7.002 -0.0253 -0.0210 -0.4492
 2357TIP3    H131266   6.769   5.988   6.977 -0.2061  0.2297  0.5742
 2357TIP3    H231267   6.710   5.866   7.045 -0.2141 -0.9099 -1.4254
 2358TIP3   OH231268   4.679   0.339   9.589 -0.1058  0.9913 -0.2734
 2358TIP3    H131269   4.717   0.425   9.574  1.4605  0.6779  1.4957
 2358TIP3    H231270   4.751   0.278   9.573 -0.5549  0.1941  0.6465
 2359TIP3   OH231271   3.774   5.662   7.282  0.1340 -0.5472  0.2510
 2359TIP3    H131272   3.861   5.665   7.321 -0.0061  0.3143  0.5096
 2359TIP3    H231273   3.728   5.593   7.330  0.5260 -0.6969  0.4111
 2360TIP3   OH231274   4.525   5.541   7.131 -0.3633  0.9637  0.1658
 2360TIP3    H131275   4.549   5.535   7.224  3.0476 -0.5245 -0.6835
 2360TIP3    H231276   4.458   5.473   7.120  0.8133 -0.4313  1.1551
 2361TIP3   OH231277   4.644   1.264   8.486 -0.5008 -0.0702 -0.0282
 2361TIP3    H131278   4.738   1.247   8.475 -0.0491  1.3481  1.2926
 2361TIP3    H231279   4.612   1.187   8.533  0.6884  0.7373  2.3004
 2362TIP3   OH231280   1.230   4.294   8.585  0.1006 -0.2016  0.3254
 2362TIP3    H131281   1.138   4.311   8.562  0.2981  0.7785  0.2109
 2362TIP3    H231282   1.245   4.344   8.665  1.0904  1.3598 -0.7810
 2363TIP3   OH231283   2.227   3.514   9.822  0.1259  0.2090  0.0648
 2363TIP3    H131284   2.273   3.569   9.759 -1.2286  0.6150 -0.6266
 2363TIP3    H231285   2.244   3.554   9.907  1.0231  0.3359 -0.1699
 2364TIP3   OH231286   0.177   7.235   7.292 -0.7798 -0.0894  0.2477
 2364TIP3    H131287   0.192   7.274   7.206  0.1296 -0.6250  0.1562
 2364TIP3    H231288   0.232   7.157   7.293 -0.8322 -0.1258  1.2961
 2365TIP3   OH231289   4.718   0.639   7.805  0.0934 -0.2434  0.1266
 2365TIP3    H131290   4.807   0.672   7.820  0.1323 -0.8297  1.3396
 2365TIP3    H231291   4.666   0.682   7.873 -0.4319 -0.3612 -0.2064
 2366TIP3   OH231292   3.483   5.804   8.938 -0.4252 -0.0280 -0.0454
 2366TIP3    H131293   3.568   5.848   8.931 -0.4752 -0.1212 -1.5454
 2366TIP3    H231294   3.491   5.748   9.015  0.9886 -0.2661 -0.3411
 2367TIP3   OH231295   4.783   2.364   7.875 -0.3469  0.0214 -0.2642
 2367TIP3    H131296   4.813   2.379   7.965 -0.1632 -0.2263 -0.2839
 2367TIP3    H231297   4.863   2.350   7.825 -0.4572  0.0315 -0.4437
 2368TIP3   OH231298   1.193   1.625   7.271  0.3374  0.4467 -0.0136
 2368TIP3    H131299   1.154   1.705   7.236 -0.6243 -0.4561 -1.0734
 2368TIP3    H231300   1.170   1.624   7.364 -1.6735  0.2457 -0.4841
 2369TIP3   OH231301   5.680   5.544   8.255 -0.2835  0.3018 -0.2692
 2369TIP3    H131302   5.615   5.577   8.193  0.0738  0.6335 -0.4684
 2369TIP3    H231303   5.718   5.467   8.212 -1.2939 -0.5474  0.3021
 2370TIP3   OH231304   1.690   6.331   8.150  0.3896  0.4313 -0.0918
 2370TIP3    H131305   1.694   6.240   8.120  0.6731 -0.4868  2.4769
 2370TIP3    H231306   1.612   6.367   8.108 -0.1963 -1.2465 -0.5213
 2371TIP3   OH231307   6.167   5.359   8.589 -0.1648 -0.2367 -0.5111
 2371TIP3    H131308   6.213   5.330   8.510 -1.2136 -1.2167 -0.7847
 2371TIP3    H231309   6.211   5.314   8.660 -0.6021 -1.0663 -0.7580
 2372TIP3   OH231310   5.222   5.621   7.904 -0.1012 -0.7262 -0.0807
 2372TIP3    H131311   5.248   5.712   7.918 -0.8554 -0.5048 -0.0633
 2372TIP3    H231312   5.158   5.604   7.973  0.6464 -1.5334  0.4224
 2373TIP3   OH231313   2.490   1.927   7.776 -0.6565  0.1638  0.3211
 2373TIP3    H131314   2.430   1.906   7.704  0.4090 -1.7231 -0.0916
 2373TIP3    H231315   2.542   2.000   7.744 -1.3299  0.4526 -0.1336
 2374TIP3   OH231316   6.768   4.075   6.855 -0.2640  0.3621  0.1843
 2374TIP3    H131317   6.808   4.001   6.901  0.6397  0.4711 -0.3911
 2374TIP3    H231318   6.691   4.038   6.812 -0.7602  0.1252  1.2504
 2375TIP3   OH231319   7.661   4.565   7.302  0.0130  0.6484 -0.6539
 2375TIP3    H131320   7.689   4.628   7.369 -0.7346  0.8128 -0.4823
 2375TIP3    H231321   7.601   4.507   7.348 -0.2515  0.5610 -1.1069
 2376TIP3   OH231322   7.413   4.516   8.485 -0.1605 -0.3243  0.2727
 2376TIP3    H131323   7.482   4.469   8.531  0.5192 -1.8870 -2.1744
 2376TIP3    H231324   7.437   4.608   8.493  0.4857 -0.6069  2.0510
 2377TIP3   OH231325   1.139   3.763   7.841  0.2609 -0.1943 -0.5747
 2377TIP3    H131326   1.110   3.832   7.901  1.8521 -0.8500  1.0427
 2377TIP3    H231327   1.232   3.752   7.860  0.2175 -2.3021 -1.2998
 2378TIP3   OH231328   4.801   3.272   8.016  0.2088  0.4118 -0.0197
 2378TIP3    H131329   4.784   3.179   8.001 -1.3227  0.5690  0.5160
 2378TIP3    H231330   4.873   3.293   7.957  0.8232 -1.1885  0.1167
 2379TIP3   OH231331   2.363   3.414   8.554  0.2195 -0.0020 -0.1554
 2379TIP3    H131332   2.273   3.387   8.570 -0.3225  1.5012 -0.5975
 2379TIP3    H231333   2.369   3.503   8.589  2.3263 -1.0041  2.5033
 2380TIP3   OH231334   6.963   3.156   8.771  0.3854 -0.1419  0.0591
 2380TIP3    H131335   6.913   3.229   8.808 -0.2838 -0.4477 -0.2188
 2380TIP3    H231336   6.925   3.078   8.812  1.9702 -0.2726  1.3530
 2381TIP3   OH231337   4.334   3.502   9.079  0.2476  0.2993 -0.0605
 2381TIP3    H131338   4.370   3.581   9.118 -3.3392  1.7778  0.6602
 2381TIP3    H231339   4.406   3.439   9.080  2.8979  3.1334  0.4632
 2382TIP3   OH231340   2.635   2.444   8.090 -0.3146  0.2004 -0.2134
 2382TIP3    H131341   2.585   2.518   8.054 -0.6707  0.0968  0.0689
 2382TIP3    H231342   2.587   2.418   8.168 -0.4757 -0.6535 -0.5829
 2383TIP3   OH231343   1.911   4.456   8.007 -0.4488 -0.2763  0.1165
 2383TIP3    H131344   1.891   4.504   7.926  1.3283  0.8031  0.2663
 2383TIP3    H231345   1.950   4.374   7.977 -1.7283 -0.8251 -0.1158
 2384TIP3   OH231346   5.462   7.209   8.547 -0.2426  0.0127  0.1584
 2384TIP3    H131347   5.433   7.159   8.623 -3.8176  0.8535 -0.4449
 2384TIP3    H231348   5.416   7.292   8.554  1.9134  1.4284 -1.2696
 2385TIP3   OH231349   6.749   4.230   8.505  0.3739 -0.1474 -0.0553
 2385TIP3    H131350   6.753   4.140   8.538  0.3458 -0.7142 -1.5083
 2385TIP3    H231351   6.743   4.284   8.583 -1.9886 -1.5319  0.8402
 2386TIP3   OH231352   7.073   2.039   7.608 -0.4299 -0.3511 -0.2338
 2386TIP3    H131353   7.007   1.984   7.567  0.0909 -0.4832 -0.9016
 2386TIP3    H231354   7.036   2.127   7.605 -1.3669 -0.6529  1.0384
 2387TIP3   OH231355   0.406   1.333   7.854  0.2983 -0.4085 -0.0709
 2387TIP3    H131356   0.335   1.397   7.861  0.0158 -0.7407  0.1420
 2387TIP3    H231357   0.485   1.386   7.851  0.0707 -0.0455  0.1406
 2388TIP3   OH231358   1.676   7.055   6.540  0.1802  0.0591 -0.3932
 2388TIP3    H131359   1.751   7.113   6.551  0.2274 -0.2966  1.3568
 2388TIP3    H231360   1.621   7.072   6.616 -0.9330 -0.5693 -1.0247
 2389TIP3   OH231361   0.491   7.029   8.773 -0.1460 -0.2706  0.2275
 2389TIP3    H131362   0.435   6.972   8.824  0.3755 -1.2173 -0.2343
 2389TIP3    H231363   0.431   7.090   8.730 -0.7845 -1.0070  0.0639
 2390TIP3   OH231364   3.034   0.026   7.891  0.0931  0.0550 -0.2393
 2390TIP3    H131365   3.029   0.106   7.945  0.8449  0.9754 -1.4747
 2390TIP3    H231366   3.123   0.026   7.856  0.1266 -1.3917 -0.2156
 2391TIP3   OH231367   1.582   1.152   7.966  0.2617  0.2281 -0.2790
 2391TIP3    H131368   1.586   1.199   7.883  1.6464 -0.2508 -0.5038
 2391TIP3    H231369   1.490   1.157   7.992  0.1137  1.7991 -1.0084
 2392TIP3   OH231370   5.802   3.490   9.042  0.6203  0.0054  0.2036
 2392TIP3    H131371   5.881   3.446   9.073 -0.0283  0.2206  2.3164
 2392TIP3    H231372   5.734   3.422   9.046  0.0746  0.5900  1.4085
 2393TIP3   OH231373   2.257   4.781   8.009 -0.0145 -0.6147 -0.0090
 2393TIP3    H131374   2.260   4.697   7.962 -0.8336 -0.9213  0.4547
 2393TIP3    H231375   2.224   4.844   7.945 -0.5369 -0.9040 -0.0358
 2394TIP3   OH231376   2.627   2.165   8.961  0.2789  0.6743 -0.0880
 2394TIP3    H131377   2.597   2.147   9.050  2.9676  0.2996  0.8330
 2394TIP3    H231378   2.608   2.084   8.913 -1.5502  1.0224 -0.0079
 2395TIP3   OH231379   3.948   6.754   9.274 -0.4877  0.0742  0.6472
 2395TIP3    H131380   3.909   6.673   9.241  0.2574 -0.0931  0.1241
 2395TIP3    H231381   4.040   6.746   9.249 -0.3712  0.9877  0.7874
 2396TIP3   OH231382   2.834   2.656   7.502 -0.9105 -0.0486 -0.2272
 2396TIP3    H131383   2.764   2.649   7.436 -1.8961  0.5044  0.7187
 2396TIP3    H231384   2.870   2.568   7.509 -1.5386 -0.3522 -0.7066
 2397TIP3   OH231385   5.186   3.379   8.039 -0.0717 -0.1630 -0.2543
 2397TIP3    H131386   5.160   3.438   7.969  0.0831  1.1621  0.7627
 2397TIP3    H231387   5.148   3.295   8.015 -1.8946  0.7644 -0.8290
 2398TIP3   OH231388   6.493   3.970   7.415 -0.1586 -0.7467 -0.0256
 2398TIP3    H131389   6.491   3.951   7.321  0.1679 -0.5440 -0.0723
 2398TIP3    H231390   6.514   3.886   7.456  0.9592 -0.5773 -0.2138
 2399TIP3   OH231391   7.197   7.170   7.492  0.4669  0.1627  0.5080
 2399TIP3    H131392   7.209   7.114   7.415 -0.3337  0.6047  0.0556
 2399TIP3    H231393   7.159   7.250   7.457 -1.9517 -0.4315  1.6284
 2400TIP3   OH231394   5.802   2.591   7.196 -0.1904 -0.0487  0.2190
 2400TIP3    H131395   5.741   2.639   7.140 -1.0140 -0.5899  0.6465
 2400TIP3    H231396   5.862   2.659   7.229  0.9231  0.1643 -2.0334
 2401TIP3   OH231397   2.507   1.960   8.834 -0.2238  0.2834 -0.0492
 2401TIP3    H131398   2.559   1.883   8.812  1.0944  2.1626 -4.4387
 2401TIP3    H231399   2.420   1.940   8.800 -0.3565  0.1077  0.3829
 2402TIP3   OH231400   1.576   2.867   7.750  0.3424  0.1790  0.1511
 2402TIP3    H131401   1.595   2.799   7.815 -0.2130  0.9152  1.1257
 2402TIP3    H231402   1.662   2.892   7.715  0.6145 -0.4918  0.3297
 2403TIP3   OH231403   0.346   1.193   7.428  0.0680 -0.0322 -0.4398
 2403TIP3    H131404   0.430   1.193   7.474 -0.0156 -0.9503 -0.2627
 2403TIP3    H231405   0.367   1.163   7.340 -0.0402 -0.0547 -0.4581
 2404TIP3   OH231406   3.771   1.515   7.423  0.3824  0.2789  0.3566
 2404TIP3    H131407   3.835   1.445   7.413 -0.1817 -0.3665  1.1506
 2404TIP3    H231408   3.686   1.471   7.422 -0.1102  1.1790 -1.2862
 2405TIP3   OH231409   3.231   2.065   9.176 -0.3164 -0.0123 -0.2372
 2405TIP3    H131410   3.265   2.063   9.265 -0.5366  2.1166 -0.0472
 2405TIP3    H231411   3.193   1.978   9.162 -0.0892 -0.4502  1.6546
 2406TIP3   OH231412   6.936   3.261   7.317 -0.1027  0.1970 -0.7258
 2406TIP3    H131413   6.980   3.226   7.240 -0.1047 -0.9575 -0.2274
 2406TIP3    H231414   6.883   3.334   7.284  1.0350  0.6673 -1.5614
 2407TIP3   OH231415   5.356   3.535   9.059 -0.0449  0.2536  0.3243
 2407TIP3    H131416   5.384   3.604   8.998  0.5756  0.1836  0.5224
 2407TIP3    H231417   5.436   3.486   9.078 -0.1486  0.5137  1.5002
 2408TIP3   OH231418   5.679   7.099   7.948 -0.3982  0.2745 -0.1501
 2408TIP3    H131419   5.587   7.077   7.959 -0.2699  0.0680  0.5718
 2408TIP3    H231420   5.685   7.191   7.973 -0.1902 -0.0682  1.1785
 2409TIP3   OH231421   5.692   7.016   7.054 -0.0103  0.3744  0.3522
 2409TIP3    H131422   5.612   6.971   7.079  0.1087 -0.0123  0.0518
 2409TIP3    H231423   5.760   6.978   7.110  0.2403 -0.4323 -0.4643
 2410TIP3   OH231424   1.571   2.429   9.246  0.2481  0.2989  0.7247
 2410TIP3    H131425   1.483   2.465   9.237  0.4662  0.4988 -0.8281
 2410TIP3    H231426   1.589   2.387   9.161  1.2077 -0.7398  1.4062
 2411TIP3   OH231427   5.508   2.037   7.564  0.2397 -0.0971  0.1391
 2411TIP3    H131428   5.589   1.987   7.564 -0.2438 -0.9004 -0.1937
 2411TIP3    H231429   5.482   2.041   7.472 -0.2417 -0.0887  0.2730
 2412TIP3   OH231430   5.837   6.032   8.246  0.3022  0.0202 -0.2627
 2412TIP3    H131431   5.854   5.947   8.287 -0.0369  0.5479  1.0300
 2412TIP3    H231432   5.866   6.021   8.155  1.3766 -1.1069  0.1819
 2413TIP3   OH231433   5.333   2.117   7.310 -0.5356 -0.5810 -0.7097
 2413TIP3    H131434   5.366   2.058   7.242  0.1897  0.2833 -1.1092
 2413TIP3    H231435   5.284   2.184   7.263 -1.1060 -0.6858 -0.2768
 2414TIP3   OH231436   4.570   6.522   7.574 -0.1928  0.2783 -0.4324
 2414TIP3    H131437   4.517   6.579   7.630 -1.1150  0.0777 -1.0753
 2414TIP3    H231438   4.507   6.482   7.514  0.9064  1.4895 -2.5040
 2415TIP3   OH231439   0.886   3.208   7.938 -0.2619  0.7584  0.0929
 2415TIP3    H131440   0.965   3.256   7.962 -0.1252  0.4654  0.2299
 2415TIP3    H231441   0.916   3.119   7.923 -0.3510  0.9053 -1.0859
 2416TIP3   OH231442   0.860   2.282   7.439 -0.2033  0.3818  0.4537
 2416TIP3    H131443   0.930   2.295   7.376 -0.9368  1.4453 -0.1803
 2416TIP3    H231444   0.785   2.328   7.402 -0.9072  0.2803  1.6769
 2417TIP3   OH231445   4.909   3.822   9.623 -0.4683 -0.5708  0.0416
 2417TIP3    H131446   4.969   3.781   9.561 -2.0509  0.7015 -2.4721
 2417TIP3    H231447   4.933   3.915   9.622 -2.0068 -0.1610 -0.4735
 2418TIP3   OH231448   0.901   4.054   8.970 -0.0758  0.4035 -0.0455
 2418TIP3    H131449   0.872   4.126   9.027 -2.1305 -0.0948 -0.3775
 2418TIP3    H231450   0.831   3.989   8.976 -0.0540  0.0441 -2.6138
 2419TIP3   OH231451   3.934   0.383   9.369  0.1207 -0.1985 -0.4151
 2419TIP3    H131452   3.865   0.450   9.364  0.7087  0.3546 -1.3472
 2419TIP3    H231453   3.946   0.353   9.279  3.3274  2.0608 -0.9326
 2420TIP3   OH231454   4.463   2.810   8.031 -0.0090  0.3225 -0.2641
 2420TIP3    H131455   4.449   2.732   7.978 -1.6765  0.4042 -0.0231
 2420TIP3    H231456   4.520   2.782   8.102 -1.6004 -1.0577  0.5409
 2421TIP3   OH231457   1.639   5.187   9.380 -0.4599  0.4488  0.3384
 2421TIP3    H131458   1.682   5.117   9.330 -0.9154 -1.2600  2.2125
 2421TIP3    H231459   1.701   5.260   9.376  0.3801 -0.2930 -1.0624
 2422TIP3   OH231460   1.351   7.209   8.245 -0.1215 -0.1070  0.6339
 2422TIP3    H131461   1.396   7.136   8.203  0.6343  0.0153  1.2114
 2422TIP3    H231462   1.419   7.274   8.261 -0.8470  0.8840 -0.1707
 2423TIP3   OH231463   2.857   3.951   6.914  0.0792 -0.2432  0.0273
 2423TIP3    H131464   2.775   3.970   6.869  0.3351  0.3111 -0.2142
 2423TIP3    H231465   2.844   3.983   7.003  0.3637  0.7176 -0.2671
 2424TIP3   OH231466   0.674   1.220   8.869 -0.1855 -0.7443 -0.0838
 2424TIP3    H131467   0.623   1.160   8.923 -1.1053 -2.9080 -3.1123
 2424TIP3    H231468   0.608   1.269   8.820  0.6207 -0.4561 -0.8929
 2425TIP3   OH231469   6.820   7.423   7.128 -0.0092 -0.4948  0.5508
 2425TIP3    H131470   6.763   7.347   7.119  0.9885 -1.0734 -1.3370
 2425TIP3    H231471   6.761   7.498   7.134 -1.0904 -0.8567 -3.2001
 2426TIP3   OH231472   4.312   1.982   7.434  0.2044  0.0498 -0.4049
 2426TIP3    H131473   4.344   2.015   7.517  2.3347  1.1521 -1.5736
 2426TIP3    H231474   4.243   2.044   7.408  0.2096  0.2575  0.0641
 2427TIP3   OH231475   3.146   7.379   8.735  0.2059 -1.0516  0.4518
 2427TIP3    H131476   3.195   7.459   8.719  0.4928 -1.3011  0.0730
 2427TIP3    H231477   3.068   7.388   8.679 -0.1031 -0.7301  0.9298
 2428TIP3   OH231478   5.328   4.261   9.006  0.1692  0.3802  0.1885
 2428TIP3    H131479   5.415   4.240   8.973 -0.4346  0.4622 -1.5344
 2428TIP3    H231480   5.274   4.186   8.982 -0.5652  0.9993 -0.1570
 2429TIP3   OH231481   2.245   0.812   8.076 -0.2590 -0.0439  0.7465
 2429TIP3    H131482   2.210   0.792   7.989  0.3830 -0.4391  0.5752
 2429TIP3    H231483   2.256   0.907   8.076 -1.2357  0.0850  0.7733
 2430TIP3   OH231484   3.689   6.095   8.004 -0.2964 -0.0252 -0.8322
 2430TIP3    H131485   3.660   6.019   7.954  1.8279 -0.4582 -1.5042
 2430TIP3    H231486   3.689   6.065   8.095 -0.5666 -0.4578 -0.9709
 2431TIP3   OH231487   2.247   4.631   8.875 -0.8222  0.5420  0.8568
 2431TIP3    H131488   2.324   4.678   8.907 -0.3129  1.6883 -1.8166
 2431TIP3    H231489   2.172   4.679   8.912 -0.2841  1.0255  1.3404
 2432TIP3   OH231490   4.732   3.584   9.673 -0.2609 -0.0354 -0.0049
 2432TIP3    H131491   4.799   3.652   9.674 -1.3029  1.0335 -0.7706
 2432TIP3    H231492   4.656   3.624   9.630 -1.1542 -1.4452  0.1644
 2433TIP3   OH231493   2.248   7.498   9.236  0.3640  0.3018  0.2585
 2433TIP3    H131494   2.290   7.569   9.188  0.5139 -0.0526 -0.1389
 2433TIP3    H231495   2.321   7.446   9.272  0.3542 -1.2561 -1.7855
 2434TIP3   OH231496   0.601   5.551   7.737  0.1792 -0.0629  0.0472
 2434TIP3    H131497   0.568   5.538   7.648  0.3079 -0.2489  0.0251
 2434TIP3    H231498   0.586   5.644   7.756  2.2230  0.5259 -1.0062
 2435TIP3   OH231499   6.016   0.224   7.783  0.3266  0.2587  0.0869
 2435TIP3    H131500   5.962   0.145   7.775  0.2754  0.3208 -0.2113
 2435TIP3    H231501   6.106   0.191   7.780  0.3217  0.2986 -1.2070
 2436TIP3   OH231502   1.479   6.190   6.524 -0.1468 -0.1622  0.6439
 2436TIP3    H131503   1.532   6.263   6.491  2.0119  0.3148  4.5159
 2436TIP3    H231504   1.425   6.228   6.593 -2.7216 -1.4419 -0.5368
 2437TIP3   OH231505   5.999   4.528   8.039  0.1587 -0.1624 -0.1403
 2437TIP3    H131506   5.957   4.445   8.019 -2.0600  0.5224  1.3520
 2437TIP3    H231507   6.085   4.504   8.074 -0.0353 -1.7470 -0.6701
 2438TIP3   OH231508   5.930   5.718   8.574  0.5277  0.8157 -0.1439
 2438TIP3    H131509   5.972   5.729   8.660 -0.3984  3.2137  0.0771
 2438TIP3    H231510   5.857   5.660   8.590  0.4730  1.0980  0.6688
 2439TIP3   OH231511   0.428   4.270   7.412 -0.2728  0.3735 -0.0141
 2439TIP3    H131512   0.401   4.326   7.485  4.1485 -0.1917  2.4126
 2439TIP3    H231513   0.484   4.327   7.358  0.0944 -0.3578 -0.4179
 2440TIP3   OH231514   7.013   4.749   7.954  0.0777 -0.3922  0.0155
 2440TIP3    H131515   7.093   4.789   7.922 -0.4092  2.0882  1.6292
 2440TIP3    H231516   7.042   4.686   8.020  0.7362 -0.6394 -0.5054
 2441TIP3   OH231517   4.893   4.826   8.140  0.2784 -0.0848 -0.0921
 2441TIP3    H131518   4.889   4.800   8.232 -0.7029  0.9422  0.1731
 2441TIP3    H231519   4.952   4.901   8.139  1.3541 -0.9013 -0.5280
 2442TIP3   OH231520   2.288   0.039   7.311 -0.4596 -0.3014  0.0105
 2442TIP3    H131521   2.229   0.061   7.239  1.4227 -0.2364 -1.6033
 2442TIP3    H231522   2.284  -0.057   7.316 -2.1809 -0.2043  1.2901
 2443TIP3   OH231523   3.709   6.482   7.370 -0.2966 -0.2908  0.1574
 2443TIP3    H131524   3.693   6.534   7.449 -0.6102 -1.8454  1.1590
 2443TIP3    H231525   3.723   6.393   7.402 -1.7110 -1.2223 -1.6118
 2444TIP3   OH231526   0.297   1.769   8.933 -0.2170  1.1311 -0.5190
 2444TIP3    H131527   0.244   1.834   8.888  0.5405  2.0047 -0.1994
 2444TIP3    H231528   0.346   1.819   8.998 -0.8258 -0.0059  0.8665
 2445TIP3   OH231529   6.235   1.255   9.439 -0.1494  0.3584 -0.4207
 2445TIP3    H131530   6.262   1.163   9.449 -1.8138 -0.1286 -0.0453
 2445TIP3    H231531   6.220   1.265   9.345  0.1415  0.2924 -0.4778
 2446TIP3   OH231532   2.224   2.981   7.393 -0.5807  0.4434 -0.0390
 2446TIP3    H131533   2.236   2.894   7.355 -0.6234  0.2382  0.4178
 2446TIP3    H231534   2.268   3.040   7.331 -1.6160  0.2421 -1.0042
 2447TIP3   OH231535   0.544   2.351   7.430  0.4125 -0.1194  0.1844
 2447TIP3    H131536   0.474   2.415   7.422 -0.2886 -1.0520 -1.4182
 2447TIP3    H231537   0.524   2.283   7.366  2.1646 -0.9989  0.4838
 2448TIP3   OH231538   5.854   3.738   8.784 -0.5975  0.1075 -0.6820
 2448TIP3    H131539   5.788   3.674   8.810 -0.4717  0.1827 -0.1626
 2448TIP3    H231540   5.833   3.817   8.834  0.9869 -0.4448  0.9993
 2449TIP3   OH231541   2.920   2.365   7.512  0.0768  0.1207  0.2739
 2449TIP3    H131542   2.923   2.369   7.608 -0.6776  0.2149  0.2958
 2449TIP3    H231543   2.995   2.311   7.488 -1.3422 -2.3588  1.0765
 2450TIP3   OH231544   6.897   6.557   6.788  0.1761  0.1059 -0.2097
 2450TIP3    H131545   6.852   6.475   6.769 -0.1700  0.0712  0.7099
 2450TIP3    H231546   6.983   6.548   6.746 -0.2421 -0.2938 -1.0000
 2451TIP3   OH231547   2.630   3.689   8.084 -0.2797 -0.0673 -0.6872
 2451TIP3    H131548   2.605   3.687   7.991 -4.3970  1.1569  0.1927
 2451TIP3    H231549   2.633   3.782   8.106 -0.1185 -0.3497  0.5767
 2452TIP3   OH231550   3.454   6.396   9.181 -0.1765 -0.1087  0.2922
 2452TIP3    H131551   3.523   6.429   9.124  0.1358 -1.0973  0.0702
 2452TIP3    H231552   3.402   6.473   9.204 -0.2672  0.3251 -1.2640
 2453TIP3   OH231553   6.215   2.517   9.169  0.2452 -0.1344  0.2208
 2453TIP3    H131554   6.215   2.579   9.097 -1.2004  0.1266  0.4038
 2453TIP3    H231555   6.263   2.561   9.239 -1.8221  1.3716  0.7797
 2454TIP3   OH231556   7.294   7.218   8.906 -0.5376 -0.1617  0.1859
 2454TIP3    H131557   7.307   7.128   8.936  0.3641  0.2488  1.1198
 2454TIP3    H231558   7.381   7.246   8.876 -1.1427 -0.1094 -1.6363
 2455TIP3   OH231559   2.215   6.848   8.659  0.3392 -0.3642  0.6070
 2455TIP3    H131560   2.302   6.887   8.649 -0.0638  0.3153 -0.3600
 2455TIP3    H231561   2.215   6.813   8.748  2.1040 -1.6303  0.1812
 2456TIP3   OH231562   4.293   1.293   8.888 -0.3950  0.4189 -0.2122
 2456TIP3    H131563   4.235   1.367   8.873  1.2767  1.7509 -0.4560
 2456TIP3    H231564   4.373   1.332   8.923 -0.0680 -1.4622  1.3187
 2457TIP3   OH231565   6.052   2.797   7.981 -0.3526 -0.0483 -0.0401
 2457TIP3    H131566   6.068   2.885   7.948 -1.0488  0.3111  0.5613
 2457TIP3    H231567   6.034   2.809   8.074 -1.7504 -0.6681 -0.2081
 2458TIP3   OH231568   1.437   3.258   8.354 -0.3803 -0.4613  0.7184
 2458TIP3    H131569   1.393   3.340   8.374  0.9043 -0.1034  2.3287
 2458TIP3    H231570   1.474   3.271   8.267 -2.0882 -0.2165 -0.0021
 2459TIP3   OH231571   7.012   5.525   8.227 -0.3615  0.3132 -0.6405
 2459TIP3    H131572   7.061   5.554   8.151 -0.1238 -0.6048 -0.8501
 2459TIP3    H231573   6.920   5.532   8.201 -0.2818  0.0702 -0.9924
 2460TIP3   OH231574   6.857   3.620   8.675  0.0570  0.5180  0.0167
 2460TIP3    H131575   6.943   3.648   8.708  0.4931  1.1823 -1.5633
 2460TIP3    H231576   6.876   3.578   8.592 -0.7946 -3.0443  1.4465
 2461TIP3   OH231577   5.543   1.214   7.979 -0.2624  0.5117 -0.4942
 2461TIP3    H131578   5.614   1.264   7.940 -0.9893  1.6204 -0.4460
 2461TIP3    H231579   5.531   1.252   8.066 -0.7014  0.1197 -0.3789
 2462TIP3   OH231580   4.746   3.371   9.495 -0.4493  0.3119  0.3889
 2462TIP3    H131581   4.723   3.289   9.539 -1.7914 -0.2794 -1.2917
 2462TIP3    H231582   4.764   3.432   9.567  1.8560 -1.7216  1.7108
 2463TIP3   OH231583   7.193   5.526   9.213 -0.1834  0.1632  0.1729
 2463TIP3    H131584   7.240   5.609   9.217  0.1314  0.0563 -0.8387
 2463TIP3    H231585   7.259   5.463   9.183 -0.6583 -0.2504 -0.0175
 2464TIP3   OH231586   5.926   5.832   8.850  0.0730  0.0953 -0.0825
 2464TIP3    H131587   5.907   5.914   8.804 -0.8113 -0.9532 -1.6823
 2464TIP3    H231588   5.841   5.788   8.855  0.8093 -1.4537 -0.7499
 2465TIP3   OH231589   1.593   5.971   6.669 -0.7448  0.5633 -0.3374
 2465TIP3    H131590   1.657   6.035   6.703 -0.6696 -0.0235  0.6780
 2465TIP3    H231591   1.541   6.020   6.606 -0.0353  1.3611 -0.3204
 2466TIP3   OH231592   1.287   6.921   9.175 -0.6076  0.0819 -0.1977
 2466TIP3    H131593   1.304   6.876   9.092 -0.6342  0.3866 -0.3686
 2466TIP3    H231594   1.294   6.852   9.241  0.4640  0.0386 -0.3470
 2467TIP3   OH231595   1.265   5.828   7.428  0.1032 -0.1186  0.1714
 2467TIP3    H131596   1.259   5.773   7.350  1.4760 -2.6196  1.6600
 2467TIP3    H231597   1.358   5.849   7.434  0.2142 -0.9174  1.6730
 2468TIP3   OH231598   5.527   3.509   8.776  0.2526 -0.4856  0.2601
 2468TIP3    H131599   5.436   3.499   8.750  0.2817 -1.5942  0.5407
 2468TIP3    H231600   5.559   3.419   8.786  2.2318 -0.2600 -2.7397
 2469TIP3   OH231601   7.436   4.916   7.489  0.1893  0.5795 -0.1110
 2469TIP3    H131602   7.509   4.959   7.445  1.2023 -0.8729  0.0761
 2469TIP3    H231603   7.403   4.982   7.550  0.5052  1.6932 -1.1077
 2470TIP3   OH231604   0.920   1.783   8.162 -1.0097 -0.0181 -0.0570
 2470TIP3    H131605   0.945   1.873   8.144 -3.0673  0.4329 -0.8923
 2470TIP3    H231606   0.862   1.788   8.238 -0.2025 -0.8130  0.6508
 2471TIP3   OH231607   5.772   2.909   7.828  0.3173  0.9404  0.1211
 2471TIP3    H131608   5.693   2.918   7.774 -0.8717 -2.2391  1.1139
 2471TIP3    H231609   5.830   2.852   7.777  0.0825 -0.3118  1.1914
 2472TIP3   OH231610   6.571   5.671   8.699  0.4845 -0.1564  0.0706
 2472TIP3    H131611   6.477   5.657   8.686  0.3506  0.8013 -0.1120
 2472TIP3    H231612   6.614   5.607   8.642 -0.0668  0.3145 -0.8956
 2473TIP3   OH231613   5.474   0.273   7.399 -0.0140  0.4208 -0.1357
 2473TIP3    H131614   5.447   0.307   7.484 -0.8506 -1.2552  0.3085
 2473TIP3    H231615   5.484   0.350   7.343  0.3427  1.5263  1.4123
 2474TIP3   OH231616   3.337   1.501   8.506  0.4472 -0.4644 -0.5486
 2474TIP3    H131617   3.365   1.509   8.415 -0.6373 -2.4409 -1.1043
 2474TIP3    H231618   3.288   1.420   8.510 -2.3809  1.1458  1.1064
 2475TIP3   OH231619   3.993   4.925   7.599 -0.6557 -0.2892  0.2874
 2475TIP3    H131620   4.003   4.897   7.690  2.7205 -0.3991  0.0281
 2475TIP3    H231621   3.959   4.847   7.554 -0.2812 -0.9496  1.1059
 2476TIP3   OH231622   4.605   1.820   8.602  0.2934  0.5496 -0.1233
 2476TIP3    H131623   4.618   1.726   8.616 -0.4955  0.4733  0.1787
 2476TIP3    H231624   4.689   1.860   8.624  1.6088 -0.3300 -3.0688
 2477TIP3   OH231625   1.285   5.119   7.568  0.6449 -0.3835 -0.5457
 2477TIP3    H131626   1.258   5.187   7.630 -1.3696 -0.7810 -0.8949
 2477TIP3    H231627   1.265   5.156   7.482 -0.8359 -1.4913 -0.7262
 2478TIP3   OH231628   3.359   6.647   8.081 -0.3839  0.3729  0.1596
 2478TIP3    H131629   3.443   6.609   8.107  0.0112  0.2445 -1.2197
 2478TIP3    H231630   3.339   6.605   7.997 -1.5143  0.8816  0.1631
 2479TIP3   OH231631   6.204   2.760   9.406 -0.4905 -0.2246 -0.2965
 2479TIP3    H131632   6.169   2.840   9.445 -1.3921 -0.4801 -0.5424
 2479TIP3    H231633   6.141   2.692   9.430 -0.2417 -0.6760 -0.8813
 2480TIP3   OH231634   3.696   5.276   7.052 -0.2757 -0.1541  0.3757
 2480TIP3    H131635   3.673   5.367   7.071 -1.1165 -0.6644  1.9889
 2480TIP3    H231636   3.614   5.228   7.064  0.9014 -1.6383  3.3002
 2481TIP3   OH231637   2.449   7.214   8.700 -0.4348 -0.0042  0.5654
 2481TIP3    H131638   2.382   7.247   8.760 -1.4531 -0.6170 -0.2019
 2481TIP3    H231639   2.401   7.194   8.619  0.3325 -2.1956  0.5944
 2482TIP3   OH231640   4.199   3.875   9.517 -0.1080  0.1761  0.1166
 2482TIP3    H131641   4.244   3.821   9.582 -2.7538 -1.4174  0.8107
 2482TIP3    H231642   4.107   3.849   9.524 -1.0198  2.4146 -1.9344
 2483TIP3   OH231643   4.393   7.650   9.346  0.0745 -0.2128  0.2754
 2483TIP3    H131644   4.425   7.713   9.411  2.0761  0.7633 -1.5326
 2483TIP3    H231645   4.380   7.703   9.267 -0.3780 -1.6965 -0.6690
 2484TIP3   OH231646   5.192   6.966   8.975 -0.5377  0.5599  0.0423
 2484TIP3    H131647   5.102   6.984   8.948 -1.0310 -1.1492  0.3846
 2484TIP3    H231648   5.188   6.958   9.070 -0.3952 -1.1580 -0.0556
 2485TIP3   OH231649   2.692   3.514   8.606  0.6014  0.7147 -0.4407
 2485TIP3    H131650   2.722   3.550   8.522  1.5028  0.1897 -0.3568
 2485TIP3    H231651   2.670   3.423   8.588 -1.1292  1.1114 -0.5224
 2486TIP3   OH231652   2.393   3.150   8.954  0.7309 -0.1779  0.0725
 2486TIP3    H131653   2.436   3.232   8.979  0.0023  1.2421 -2.8229
 2486TIP3    H231654   2.328   3.135   9.022  2.5795  0.2057  2.0126
 2487TIP3   OH231655   1.892   1.026   8.755 -0.5151 -0.1777  0.1433
 2487TIP3    H131656   1.913   1.116   8.733 -0.1438 -0.8868 -2.8549
 2487TIP3    H231657   1.975   0.979   8.746 -1.2916 -1.3155 -1.6584
 2488TIP3   OH231658   0.949   1.500   8.440  0.2640 -0.0621 -0.0503
 2488TIP3    H131659   0.857   1.518   8.420  0.3603  0.8660  0.3030
 2488TIP3    H231660   0.966   1.546   8.522  1.4507  1.0523 -0.8832
 2489TIP3   OH231661   2.446   5.831   8.541 -0.0418  0.5151  1.0833
 2489TIP3    H131662   2.486   5.758   8.493 -0.3352  0.8811  0.2555
 2489TIP3    H231663   2.415   5.792   8.622 -0.9264 -0.4820  0.2973
 2490TIP3   OH231664   5.112   0.276   8.762 -0.0142 -0.8532  0.3518
 2490TIP3    H131665   5.136   0.184   8.755  1.5638 -0.4638  0.2536
 2490TIP3    H231666   5.169   0.311   8.831  0.8316  0.4715 -0.9618
 2491TIP3   OH231667   7.302   3.391   8.453 -0.4820 -0.1500 -0.0042
 2491TIP3    H131668   7.225   3.370   8.506 -1.3277  0.1546 -1.0826
 2491TIP3    H231669   7.376   3.361   8.506 -1.3515 -0.7469  0.9126
 2492TIP3   OH231670   2.895   5.213   7.748 -0.4438 -0.1035  0.4889
 2492TIP3    H131671   2.833   5.284   7.730  0.7731  1.5150  2.2432
 2492TIP3    H231672   2.899   5.208   7.843  2.5378  0.3038  0.4935
 2493TIP3   OH231673   2.027   3.070   7.565  0.4117  0.3821 -0.0827
 2493TIP3    H131674   1.999   3.098   7.478  2.4603  1.0181 -0.6031
 2493TIP3    H231675   2.105   3.017   7.548  1.2667  1.1217  1.3972
 2494TIP3   OH231676   2.189   1.646   9.641 -0.3710  0.0492 -0.4598
 2494TIP3    H131677   2.095   1.665   9.636 -0.1042  1.0821 -1.9337
 2494TIP3    H231678   2.210   1.660   9.734 -1.8352 -1.1065  0.0905
 2495TIP3   OH231679   6.929   0.998   7.176  0.5908  0.4930  0.3399
 2495TIP3    H131680   7.025   0.992   7.175  0.7769  2.4395  1.4210
 2495TIP3    H231681   6.907   1.026   7.264 -0.8984  1.1767 -0.2067
 2496TIP3   OH231682   5.343   7.266   7.591  0.3296 -0.1237 -0.3404
 2496TIP3    H131683   5.252   7.239   7.580 -0.0839  1.5825 -1.4369
 2496TIP3    H231684   5.389   7.186   7.616 -1.7861 -0.6816  2.2961
 2497TIP3   OH231685   3.408   2.691   8.595 -0.3080  0.3787 -0.2423
 2497TIP3    H131686   3.484   2.747   8.578 -1.4600  1.2440 -3.2918
 2497TIP3    H231687   3.444   2.602   8.598  1.2447  0.9895  2.2777
 2498TIP3   OH231688   4.197   0.511   7.332 -0.3395  0.0500 -0.5649
 2498TIP3    H131689   4.190   0.601   7.363 -1.9931 -0.1823 -0.1340
 2498TIP3    H231690   4.264   0.513   7.264  0.1331  1.4561 -0.0899
 2499TIP3   OH231691   6.525   0.484   7.598 -0.1731  0.0137 -0.5125
 2499TIP3    H131692   6.529   0.531   7.515  0.4995 -0.9280 -1.0270
 2499TIP3    H231693   6.435   0.452   7.604 -0.0115 -0.5882 -1.2604
 2500TIP3   OH231694   2.719   2.580   9.424  0.3306  0.3151 -0.2889
 2500TIP3    H131695   2.680   2.559   9.339  1.5215  0.4242 -0.8839
 2500TIP3    H231696   2.741   2.494   9.461 -1.1901  0.2054  0.4246
 2501TIP3   OH231697   7.406   5.694   8.754 -0.0632 -0.3526  0.7711
 2501TIP3    H131698   7.410   5.629   8.824  1.3734  0.4534  1.4900
 2501TIP3    H231699   7.420   5.643   8.674  0.0168 -1.0653  1.2217
 2502TIP3   OH231700   2.994   3.264   7.724 -0.0982 -0.3487 -0.6239
 2502TIP3    H131701   2.933   3.226   7.661  0.5584 -0.7894 -0.9983
 2502TIP3    H231702   3.028   3.190   7.773 -0.8885  0.0188  0.5332
 2503TIP3   OH231703   3.468   2.421   8.189 -0.2423 -0.2970 -0.0813
 2503TIP3    H131704   3.456   2.516   8.195  0.4891 -0.1597 -0.6267
 2503TIP3    H231705   3.550   2.411   8.141  0.5148 -1.1934  1.3384
 2504TIP3   OH231706   4.614   2.862   8.833  0.5995 -0.3992 -0.4843
 2504TIP3    H131707   4.628   2.923   8.761 -1.1408  0.3726 -0.2239
 2504TIP3    H231708   4.570   2.787   8.793  0.6912 -0.4829 -0.4274
 2505TIP3   OH231709   7.359   6.702   6.728 -0.6035  0.1119  0.2347
 2505TIP3    H131710   7.430   6.764   6.747 -0.8708  0.6041 -0.3416
 2505TIP3    H231711   7.281   6.742   6.766 -0.4497 -0.8353  1.6310
 2506TIP3   OH231712   0.815   6.706   6.759 -0.0247  0.1687 -0.1073
 2506TIP3    H131713   0.872   6.665   6.824 -0.2586  0.9723  0.6247
 2506TIP3    H231714   0.737   6.652   6.758 -0.7224  1.0706  1.5382
 2507TIP3   OH231715   2.350   1.564   9.407  0.5839 -0.1440 -0.3493
 2507TIP3    H131716   2.320   1.637   9.352 -0.9954 -0.5982 -0.1422
 2507TIP3    H231717   2.308   1.579   9.492  1.3841 -0.5426  0.1235
 2508TIP3   OH231718   7.272   4.777   7.875 -0.5640 -0.0849 -0.0938
 2508TIP3    H131719   7.306   4.852   7.827 -0.7048 -0.4321 -0.7434
 2508TIP3    H231720   7.348   4.742   7.921 -0.1097 -0.6128 -1.2143
 2509TIP3   OH231721   0.330   1.260   8.440 -0.0178 -0.1941 -0.2369
 2509TIP3    H131722   0.348   1.276   8.347 -2.9538 -0.3637 -0.9404
 2509TIP3    H231723   0.247   1.306   8.456  0.5444  0.0319  2.3877
 2510TIP3   OH231724   6.643   1.784   9.571 -0.4268  0.3224  0.1684
 2510TIP3    H131725   6.553   1.812   9.588 -0.7951 -0.7203  0.0310
 2510TIP3    H231726   6.643   1.690   9.590  0.6699  0.3339  0.2955
 2511TIP3   OH231727   2.693   5.884   7.459  0.2611 -0.2707  0.4134
 2511TIP3    H131728   2.610   5.840   7.439 -0.1291  0.5092  0.3032
 2511TIP3    H231729   2.668   5.973   7.483  1.1900  0.6102 -1.5981
 2512TIP3   OH231730   2.268   0.388   8.564 -0.7117  0.0566  0.0912
 2512TIP3    H131731   2.216   0.420   8.638  1.2374  0.9816  1.1707
 2512TIP3    H231732   2.327   0.461   8.543 -0.2659 -0.6999 -1.4615
 2513TIP3   OH231733   4.756   5.544   9.002  0.4683 -0.2511 -0.3007
 2513TIP3    H131734   4.789   5.465   8.960 -1.4160 -0.4644 -1.5316
 2513TIP3    H231735   4.750   5.608   8.931 -1.5177 -0.1952 -0.1493
 2514TIP3   OH231736   1.687   4.226   8.903  0.5159 -0.1687 -0.5777
 2514TIP3    H131737   1.643   4.226   8.818  0.7035 -1.1508 -0.6921
 2514TIP3    H231738   1.769   4.273   8.888  0.7785 -0.7700 -1.0813
 2515TIP3   OH231739   1.800   6.607   8.472 -0.2242 -0.4425  0.3558
 2515TIP3    H131740   1.893   6.629   8.478 -0.2549  0.8214 -2.4277
 2515TIP3    H231741   1.756   6.691   8.464 -1.5044 -1.0748  0.4500
 2516TIP3   OH231742   1.007   2.338   8.048  0.1339  0.0956 -0.0275
 2516TIP3    H131743   0.938   2.281   8.013  0.3218  0.8175 -1.6780
 2516TIP3    H231744   0.960   2.416   8.078  0.1792  0.4385 -0.8240
 2517TIP3   OH231745   2.506   6.050   9.068  0.7203 -0.9317 -0.1853
 2517TIP3    H131746   2.575   6.081   9.010  0.5179  0.2893  0.2051
 2517TIP3    H231747   2.475   6.128   9.113  0.7507 -1.8143  1.4532
 2518TIP3   OH231748   6.322   6.312   8.861  0.8905 -0.4327  0.5321
 2518TIP3    H131749   6.269   6.263   8.924  1.4815 -0.2287  1.1916
 2518TIP3    H231750   6.409   6.317   8.900  1.2416 -0.2091 -0.2526
 2519TIP3   OH231751   4.604   5.935   8.473 -0.0875 -0.1014  0.0134
 2519TIP3    H131752   4.607   5.937   8.378 -2.4055 -1.2505 -0.1487
 2519TIP3    H231753   4.566   6.020   8.497 -0.7312 -0.3320 -0.1773
 2520TIP3   OH231754   2.954   3.058   9.552 -0.5339 -0.0461 -0.3623
 2520TIP3    H131755   2.866   3.034   9.582 -0.2964 -0.9297 -0.3478
 2520TIP3    H231756   2.947   3.058   9.457 -1.1574  2.2621 -0.3581
 2521TIP3   OH231757   5.128   2.392   6.920 -0.0772 -0.7142 -0.3761
 2521TIP3    H131758   5.215   2.426   6.900 -0.0931 -0.5417 -0.1569
 2521TIP3    H231759   5.069   2.444   6.866 -0.0319 -0.9401 -0.6462
 2522TIP3   OH231760   0.331   0.886   7.525  0.2180 -0.2151 -0.3078
 2522TIP3    H131761   0.320   0.945   7.599 -2.8029 -0.9097 -0.0855
 2522TIP3    H231762   0.306   0.939   7.449  0.1919 -0.4116 -0.4360
 2523TIP3   OH231763   2.826   0.134   9.342 -0.4059 -0.0403 -0.0777
 2523TIP3    H131764   2.798   0.084   9.265  0.1083 -1.4084  0.5853
 2523TIP3    H231765   2.916   0.104   9.359  1.2397  3.4295 -1.5202
 2524TIP3   OH231766   0.143   5.196   9.404 -0.1186 -0.0284  0.4674
 2524TIP3    H131767   0.196   5.252   9.461 -0.3838 -1.2209  1.9439
 2524TIP3    H231768   0.187   5.200   9.319  1.0855  0.7177  1.0963
 2525TIP3   OH231769   7.532   5.747   7.687  0.1427  0.2490 -0.3683
 2525TIP3    H131770   7.497   5.749   7.598  2.1333 -0.0666 -1.2155
 2525TIP3    H231771   7.627   5.748   7.676  0.4672 -0.5499  1.7366
 2526TIP3   OH231772   2.833   1.713   8.054 -0.0245 -0.4672 -0.1645
 2526TIP3    H131773   2.876   1.754   7.979 -0.0167 -0.3181 -0.0799
 2526TIP3    H231774   2.769   1.654   8.015  2.0322 -2.7326 -0.3774
 2527TIP3   OH231775   5.650   2.605   8.987 -0.1592 -0.0613  0.0785
 2527TIP3    H131776   5.620   2.622   9.076 -1.3540 -1.9901  0.0881
 2527TIP3    H231777   5.731   2.556   8.998  0.8819  1.5811  0.0557
 2528TIP3   OH231778   2.320   1.542   7.134  0.2782 -0.3083  0.4392
 2528TIP3    H131779   2.255   1.474   7.154  0.8612 -1.4141 -1.2106
 2528TIP3    H231780   2.278   1.624   7.159 -1.3729 -1.0791  0.3017
 2529TIP3   OH231781   0.930   7.136   8.980  0.4048  0.2393 -0.1462
 2529TIP3    H131782   0.950   7.149   9.073 -0.3795  0.6278 -0.0291
 2529TIP3    H231783   0.941   7.223   8.941  3.5397 -0.4103 -0.9859
 2530TIP3   OH231784   6.322   4.517   7.694 -0.0816  0.6810  0.3103
 2530TIP3    H131785   6.316   4.571   7.615  0.8757 -1.0787 -1.0167
 2530TIP3    H231786   6.240   4.468   7.696 -0.7711  1.8123  1.2927
 2531TIP3   OH231787   3.065   3.921   8.321 -0.3673  0.4455 -0.3652
 2531TIP3    H131788   3.070   4.012   8.291  1.3416  0.6180  0.3124
 2531TIP3    H231789   3.135   3.914   8.386 -0.8085 -1.2279 -0.0316
 2532TIP3   OH231790   0.415   1.898   9.152 -0.1380 -0.3511  0.0626
 2532TIP3    H131791   0.503   1.865   9.172 -1.1632 -2.1219  2.1085
 2532TIP3    H231792   0.415   1.988   9.183  0.8319 -0.4786  0.4663
 2533TIP3   OH231793   5.078   0.523   9.444 -0.5365 -0.3898 -0.0891
 2533TIP3    H131794   4.988   0.527   9.476  0.0147 -0.4512  1.5679
 2533TIP3    H231795   5.097   0.429   9.437 -0.5603 -0.3785 -0.3038
 2534TIP3   OH231796   5.261   4.117   7.111  0.1430  0.0111  0.5872
 2534TIP3    H131797   5.349   4.141   7.083 -0.1477  0.0587 -0.3272
 2534TIP3    H231798   5.235   4.048   7.051 -1.6389  2.1379 -1.2920
 2535TIP3   OH231799   6.605   1.372   9.632 -0.4207  0.0677  0.4290
 2535TIP3    H131800   6.682   1.429   9.640 -0.1800 -0.0061 -1.0610
 2535TIP3    H231801   6.545   1.421   9.574 -1.0773 -0.3046  0.7793
 2536TIP3   OH231802   5.808   1.640   6.670 -0.1530 -0.7068  0.1506
 2536TIP3    H131803   5.736   1.628   6.733 -0.0906  2.3086  0.9176
 2536TIP3    H231804   5.769   1.687   6.597  0.4185 -1.7515 -0.8628
 2537TIP3   OH231805   6.736   2.512   8.563 -0.3892  0.1838 -0.2003
 2537TIP3    H131806   6.739   2.417   8.576 -1.0346  0.2212  0.2456
 2537TIP3    H231807   6.803   2.529   8.496 -1.0003 -0.7132 -1.0523
 2538TIP3   OH231808   0.857   6.497   7.834  0.1172 -0.9932  0.2365
 2538TIP3    H131809   0.805   6.571   7.802  1.2513 -0.9986 -1.8519
 2538TIP3    H231810   0.946   6.518   7.805  0.5966 -2.7738  0.3614
 2539TIP3   OH231811   3.630   3.004   9.231 -0.4871  0.2009 -0.0691
 2539TIP3    H131812   3.599   2.965   9.149 -1.6317 -0.3114  0.5805
 2539TIP3    H231813   3.554   2.999   9.289  0.3592  0.4148  1.0699
 2540TIP3   OH231814   5.632   1.302   7.485  0.9759  0.0056  0.5998
 2540TIP3    H131815   5.615   1.223   7.537  3.9537 -1.2835 -0.1566
 2540TIP3    H231816   5.722   1.291   7.454  1.6657  3.9413  0.7784
 2541TIP3   OH231817   6.340   5.356   7.663  0.2468 -0.0669 -0.3587
 2541TIP3    H131818   6.408   5.393   7.720 -2.5697  0.4047  3.0485
 2541TIP3    H231819   6.365   5.265   7.651  0.5562 -0.4643  2.5613
 2542TIP3   OH231820   6.558   4.809   7.114  0.4415 -0.1351  0.3772
 2542TIP3    H131821   6.470   4.826   7.147 -0.3870 -1.1551 -1.1896
 2542TIP3    H231822   6.615   4.821   7.190 -1.0811  0.1212  1.5257
 2543TIP3   OH231823   1.763   0.061   7.509  0.7527  0.1014  0.0647
 2543TIP3    H131824   1.740   0.079   7.418  2.4765 -0.1832 -0.4703
 2543TIP3    H231825   1.704   0.116   7.560  0.7849  1.4515 -1.2827
 2544TIP3   OH231826   3.121   2.200   8.954  0.2669 -0.2595 -0.3510
 2544TIP3    H131827   3.211   2.178   8.979 -0.1790 -2.0643 -0.1633
 2544TIP3    H231828   3.101   2.140   8.882 -0.5082  0.7226 -0.9854
 2545TIP3   OH231829   6.637   1.802   8.036  0.0298 -0.2930 -0.0366
 2545TIP3    H131830   6.652   1.896   8.048 -0.6412 -0.2332  0.3587
 2545TIP3    H231831   6.697   1.778   7.965  2.5929 -0.2376  1.9646
 2546TIP3   OH231832   4.884   0.966   7.205 -0.0539  0.4266 -0.0495
 2546TIP3    H131833   4.847   0.898   7.149  0.6109 -0.8116  0.9497
 2546TIP3    H231834   4.978   0.960   7.190  0.0351  0.8576  0.3422
 2547TIP3   OH231835   7.013   6.864   9.351 -0.5040  0.5476 -0.5487
 2547TIP3    H131836   6.958   6.903   9.419 -0.0655 -1.0437  0.7628
 2547TIP3    H231837   7.100   6.861   9.390 -0.8412 -3.4834  0.2538
 2548TIP3   OH231838   0.388   2.982   8.387  0.1116  0.0062 -0.6803
 2548TIP3    H131839   0.383   2.894   8.426  2.1355 -0.5218 -1.4711
 2548TIP3    H231840   0.445   2.971   8.311 -0.9765  1.6974 -1.8067
 2549TIP3   OH231841   5.382   1.381   8.183  0.1900  0.0398  0.2730
 2549TIP3    H131842   5.426   1.465   8.179 -0.4097  0.4573  1.6753
 2549TIP3    H231843   5.435   1.328   8.243 -1.4721  0.7765  2.5212
 2550TIP3   OH231844   7.454   6.554   7.472 -0.2146 -0.0321  0.3293
 2550TIP3    H131845   7.447   6.627   7.533 -0.1607  0.4105 -0.1801
 2550TIP3    H231846   7.458   6.595   7.386  0.4316 -0.6034  0.0686
 2551TIP3   OH231847   6.061   7.155   7.187  0.2307 -0.5944 -0.0612
 2551TIP3    H131848   6.075   7.173   7.094  2.3272  0.4695  0.4094
 2551TIP3    H231849   5.979   7.105   7.189 -0.4686  0.2983 -2.3658
 2552TIP3   OH231850   4.902   7.187   8.303 -0.0912  0.6619  0.0265
 2552TIP3    H131851   4.969   7.255   8.293 -0.8846  1.6151  1.0198
 2552TIP3    H231852   4.924   7.145   8.387  1.3982 -1.4979 -1.3325
 2553TIP3   OH231853   6.662   2.745   8.709  0.4237  0.0192  0.3278
 2553TIP3    H131854   6.651   2.808   8.638 -0.3586 -1.0945 -0.5676
 2553TIP3    H231855   6.698   2.667   8.666 -1.0424 -1.0334  0.9554
 2554TIP3   OH231856   7.595   6.367   8.551 -0.3476  0.3217  0.4580
 2554TIP3    H131857   7.598   6.425   8.627  0.3721  2.2980 -0.9765
 2554TIP3    H231858   7.512   6.388   8.508 -1.7469 -2.2512  1.6896
 2555TIP3   OH231859   6.734   5.417   8.737 -0.1103 -0.3109  0.1394
 2555TIP3    H131860   6.749   5.365   8.816 -0.0971  0.0361  0.3640
 2555TIP3    H231861   6.755   5.507   8.763  0.5243 -0.2893 -0.4350
 2556TIP3   OH231862   4.308   0.836   8.448  0.3663 -0.5075  0.3213
 2556TIP3    H131863   4.374   0.879   8.395 -0.0522  0.0157  0.2165
 2556TIP3    H231864   4.351   0.757   8.482  1.2282  0.1515  0.7755
 2557TIP3   OH231865   3.312   1.989   8.182 -0.5170 -0.7123  0.0093
 2557TIP3    H131866   3.381   2.015   8.120 -1.5803 -1.0688 -1.3655
 2557TIP3    H231867   3.267   1.917   8.139 -1.8848 -0.3516  0.7812
 2558TIP3   OH231868   5.418   0.205   8.723  0.3302 -0.0854 -0.1222
 2558TIP3    H131869   5.388   0.288   8.686  0.2500 -1.0992 -2.5339
 2558TIP3    H231870   5.447   0.227   8.812 -1.4565  2.1306  0.0081
 2559TIP3   OH231871   3.268   0.571   8.823  0.2067 -0.0624 -0.0987
 2559TIP3    H131872   3.344   0.628   8.816 -0.8952  1.2609 -3.2211
 2559TIP3    H231873   3.286   0.499   8.762 -1.3709  0.8098 -1.6950
 2560TIP3   OH231874   2.101   6.170   8.417 -0.3973 -0.0390  0.0714
 2560TIP3    H131875   2.017   6.125   8.429 -0.3918  0.4889  2.8795
 2560TIP3    H231876   2.078   6.251   8.371 -1.1439 -0.7174 -0.7634
 2561TIP3   OH231877   4.000   5.805   8.408 -0.2802 -0.5606  0.5479
 2561TIP3    H131878   3.975   5.846   8.325 -1.7956 -2.1515  0.1658
 2561TIP3    H231879   4.095   5.802   8.405 -0.2689  0.2792 -0.7053
 2562TIP3   OH231880   4.139   2.748   8.549  0.2867 -0.5327 -0.1274
 2562TIP3    H131881   4.154   2.825   8.603  0.8296  0.0280 -1.0536
 2562TIP3    H231882   4.129   2.676   8.612 -0.4685  0.3175  0.7610
 2563TIP3   OH231883   1.978   1.129   7.382  0.0541  0.4187 -0.6581
 2563TIP3    H131884   1.936   1.060   7.435  0.3094 -1.2958 -2.5483
 2563TIP3    H231885   2.071   1.118   7.398  0.0943  0.3315 -0.9432
 2564TIP3   OH231886   5.576   5.021   8.559  0.3917  0.0421 -0.7970
 2564TIP3    H131887   5.634   5.094   8.584 -0.5872  0.4397  0.4817
 2564TIP3    H231888   5.544   5.045   8.472 -0.2199  1.3734 -0.2417
 2565TIP3   OH231889   6.740   4.382   7.513  0.2884  0.5213  0.6845
 2565TIP3    H131890   6.657   4.422   7.540  0.1898  1.3861 -0.7801
 2565TIP3    H231891   6.714   4.296   7.479  0.0620  0.5573  0.7615
 2566TIP3   OH231892   3.303   6.748   7.555  0.8215  0.0637  0.0025
 2566TIP3    H131893   3.330   6.706   7.637 -1.5485  1.3694  1.5843
 2566TIP3    H231894   3.366   6.717   7.490  1.7792 -2.4099  1.9372
 2567TIP3   OH231895   3.144   1.374   6.862  0.5268  0.4005  0.1784
 2567TIP3    H131896   3.124   1.327   6.942 -0.9910 -1.0297 -0.9542
 2567TIP3    H231897   3.164   1.463   6.890 -0.7904  0.1541  2.0793
 2568TIP3   OH231898   7.068   7.173   7.006  0.1588  0.3545  0.2227
 2568TIP3    H131899   7.065   7.240   6.939 -0.1448  2.0544  1.8586
 2568TIP3    H231900   6.977   7.160   7.032  0.2162 -0.6824 -0.0277
 2569TIP3   OH231901   6.157   0.833   8.141  0.2683 -0.2609 -0.0591
 2569TIP3    H131902   6.229   0.806   8.083  0.9057 -1.3758  1.2102
 2569TIP3    H231903   6.139   0.756   8.194 -0.8772  0.4765  0.6515
 2570TIP3   OH231904   2.538   5.196   9.228 -0.3375 -0.1774  0.6353
 2570TIP3    H131905   2.566   5.177   9.317  0.2476  0.8457  0.6863
 2570TIP3    H231906   2.453   5.240   9.238  0.3164  1.1085  0.7951
 2571TIP3   OH231907   1.826   6.029   8.456  0.1421  0.1506 -0.2906
 2571TIP3    H131908   1.832   5.988   8.543  0.1007 -0.1313 -0.4201
 2571TIP3    H231909   1.772   5.969   8.405  0.8874 -0.1300 -0.7709
 2572TIP3   OH231910   1.344   3.586   7.892  0.3627  0.1184  0.1633
 2572TIP3    H131911   1.287   3.553   7.822  0.6376  0.0397 -0.0266
 2572TIP3    H231912   1.315   3.541   7.971  1.5128 -1.5222 -0.2903
 2573TIP3   OH231913   5.095   3.323   8.942 -0.7234  0.0024  0.4023
 2573TIP3    H131914   5.032   3.326   8.870  0.3626 -0.7084 -0.6080
 2573TIP3    H231915   5.158   3.392   8.922  0.1100 -0.8099  0.1518
 2574TIP3   OH231916   6.084   5.350   7.592 -0.0209 -0.2197 -0.2497
 2574TIP3    H131917   6.174   5.332   7.620 -0.0344  0.9235  0.5753
 2574TIP3    H231918   6.091   5.367   7.499  0.4829 -0.9863 -0.3642
 2575TIP3   OH231919   1.557   5.055   7.477  0.1533 -0.3107 -0.1071
 2575TIP3    H131920   1.486   5.053   7.542  1.1701 -0.9555  1.0113
 2575TIP3    H231921   1.540   5.135   7.426 -1.3414 -0.4253  0.1702
 2576TIP3   OH231922   0.480   6.186   8.819 -0.0233 -0.0296 -0.7942
 2576TIP3    H131923   0.434   6.166   8.738 -0.2158 -1.2589 -0.4041
 2576TIP3    H231924   0.475   6.105   8.871  0.2920  0.6509  0.3516
 2577TIP3   OH231925   5.630   6.920   9.336 -0.4065 -0.5263 -0.6646
 2577TIP3    H131926   5.610   6.841   9.286 -1.7054  0.7187 -2.2821
 2577TIP3    H231927   5.554   6.933   9.392 -0.6821  0.0733 -1.1517
 2578TIP3   OH231928   5.201   2.067   9.372  0.0020  1.0292 -0.0064
 2578TIP3    H131929   5.143   2.072   9.297 -1.2668  0.3474  0.8842
 2578TIP3    H231930   5.289   2.059   9.334 -0.6436  0.2204 -1.4150
 2579TIP3   OH231931   2.773   4.182   8.806 -0.2047  0.7380  0.1315
 2579TIP3    H131932   2.797   4.269   8.838 -2.0805  0.9167  1.1747
 2579TIP3    H231933   2.799   4.182   8.714  2.9893  1.1289  0.9210
 2580TIP3   OH231934   6.316   2.105   8.101  0.1296  0.4523 -0.5371
 2580TIP3    H131935   6.345   2.148   8.020  0.5335 -0.3132 -0.8064
 2580TIP3    H231936   6.355   2.157   8.171  1.0641  0.2159 -0.8697
 2581TIP3   OH231937   3.418   0.097   7.498 -0.9371  0.2823 -0.1422
 2581TIP3    H131938   3.363   0.088   7.419 -0.8187 -2.4794 -0.0126
 2581TIP3    H231939   3.507   0.085   7.466 -0.5817  2.1871  0.0314
 2582TIP3   OH231940   6.622   1.194   7.239 -0.2945  0.4348  0.9230
 2582TIP3    H131941   6.712   1.177   7.267  0.0711  0.2061 -0.3498
 2582TIP3    H231942   6.626   1.281   7.200 -0.3022 -0.1706 -0.4598
 2583TIP3   OH231943   6.247   2.182   7.096 -0.7779  0.2596  0.2770
 2583TIP3    H131944   6.291   2.174   7.012 -1.5307 -0.2608 -0.0669
 2583TIP3    H231945   6.175   2.242   7.080 -1.0286  0.0222  0.5110
 2584TIP3   OH231946   0.679   0.315   7.720  0.2493  0.3720  0.6485
 2584TIP3    H131947   0.756   0.260   7.731  1.5303  1.8887 -0.3242
 2584TIP3    H231948   0.664   0.317   7.625 -0.1883  1.1612  0.7243
 2585TIP3   OH231949   6.316   3.557   7.949 -0.9492 -0.1416  0.2546
 2585TIP3    H131950   6.377   3.618   7.907 -0.7253 -0.7579 -0.3286
 2585TIP3    H231951   6.271   3.610   8.015 -1.2933  0.8428 -0.7396
 2586TIP3   OH231952   0.614   5.224   7.563 -0.2479  0.2704 -0.2484
 2586TIP3    H131953   0.683   5.185   7.508 -0.3301  0.8177 -0.7439
 2586TIP3    H231954   0.660   5.251   7.643  0.0253  0.1967 -0.3797
 2587TIP3   OH231955   5.678   7.565   8.702 -0.5020 -0.1416 -0.2031
 2587TIP3    H131956   5.685   7.490   8.642  3.0814  1.5927 -2.3039
 2587TIP3    H231957   5.613   7.622   8.661 -0.1481 -0.2695 -0.9776
 2588TIP3   OH231958   1.438   1.794   9.317 -0.3818  0.2165 -0.4173
 2588TIP3    H131959   1.440   1.870   9.374 -1.4679  1.7987 -2.3710
 2588TIP3    H231960   1.373   1.736   9.357  0.8361  0.0089  1.3693
 2589TIP3   OH231961   4.087   0.859   8.902 -0.1368 -0.0677 -0.1900
 2589TIP3    H131962   4.021   0.929   8.895 -0.8603 -0.6112  0.9125
 2589TIP3    H231963   4.038   0.783   8.934  1.0613 -0.4299  0.8780
 2590TIP3   OH231964   4.876   3.566   9.303  0.5300  0.1681 -0.2176
 2590TIP3    H131965   4.842   3.551   9.214 -0.1419 -0.5353  0.1416
 2590TIP3    H231966   4.821   3.511   9.359  0.2176  1.4389  0.7739
 2591TIP3   OH231967   5.693   4.615   7.339  0.4435  0.3411 -0.3886
 2591TIP3    H131968   5.629   4.618   7.410 -0.4640  0.0235 -1.1704
 2591TIP3    H231969   5.767   4.567   7.376 -0.5670 -1.0662 -0.0750
 2592TIP3   OH231970   5.569   4.267   7.907  0.8060  0.2564  0.1002
 2592TIP3    H131971   5.553   4.205   7.978  0.0301 -1.5108 -1.5221
 2592TIP3    H231972   5.519   4.345   7.931 -0.1152 -0.6097  1.1058
 2593TIP3   OH231973   7.107   4.559   9.520  0.0591 -0.3762 -0.1208
 2593TIP3    H131974   7.166   4.521   9.585 -1.1366 -1.0984  0.5732
 2593TIP3    H231975   7.131   4.652   9.518 -0.5165 -0.1185  2.1104
 2594TIP3   OH231976   3.132   4.002   8.958  0.1684  0.4817  0.4487
 2594TIP3    H131977   3.039   3.985   8.948  0.5222 -1.2036 -0.1728
 2594TIP3    H231978   3.173   3.964   8.880  1.5049  0.0329  1.3299
 2595TIP3   OH231979   2.107   1.372   8.611  0.2235  0.3030  0.8306
 2595TIP3    H131980   2.183   1.330   8.572  0.0456 -0.3539  1.1723
 2595TIP3    H231981   2.050   1.393   8.537  0.2743 -0.1453  0.6642
 2596TIP3   OH231982   4.072   1.438   8.822 -0.0396 -0.1680 -0.4102
 2596TIP3    H131983   4.027   1.356   8.842 -0.2159 -0.3496 -1.4598
 2596TIP3    H231984   4.026   1.504   8.872 -0.1183 -0.6638  0.1777
 2597TIP3   OH231985   2.159   5.399   7.505  0.7635  0.4538 -0.1899
 2597TIP3    H131986   2.186   5.480   7.547 -1.1915  0.0913  2.0050
 2597TIP3    H231987   2.089   5.425   7.444  1.7180  0.6514 -1.2275
 2598TIP3   OH231988   6.930   6.037   8.854  0.7029  0.2445  0.1257
 2598TIP3    H131989   6.998   6.091   8.894 -0.5585  1.2391  0.9879
 2598TIP3    H231990   6.874   6.099   8.808  0.7386 -0.6366 -1.1725
 2599TIP3   OH231991   6.548   5.112   7.413 -0.2801 -0.1948 -0.3812
 2599TIP3    H131992   6.499   5.137   7.334  0.6639  0.6535 -0.7335
 2599TIP3    H231993   6.582   5.025   7.394 -0.7594 -0.3433 -0.5670
 2600TIP3   OH231994   0.715   6.794   8.251 -0.2553  0.0966  0.6047
 2600TIP3    H131995   0.692   6.712   8.208  2.2163  0.0844 -0.8919
 2600TIP3    H231996   0.748   6.768   8.336  1.3871 -0.6176 -0.2106
 2601TIP3   OH231997   3.326   2.347   9.221 -0.2484  0.1676 -0.5891
 2601TIP3    H131998   3.262   2.415   9.242 -0.7436 -0.0291 -1.4296
 2601TIP3    H231999   3.273   2.269   9.202  0.2844 -0.2679 -0.3068
 2602TIP3   OH232000   7.523   4.365   6.548  0.6928  0.6344 -0.2976
 2602TIP3    H132001   7.615   4.345   6.531  1.2102  3.1547 -0.8607
 2602TIP3    H232002   7.509   4.451   6.509 -1.7433  0.6178  0.3595
 2603TIP3   OH232003   3.840   1.367   8.563  0.1738  0.4031  0.3561
 2603TIP3    H132004   3.839   1.424   8.640 -3.0341  0.3279  0.5386
 2603TIP3    H232005   3.897   1.294   8.588  0.7360  1.3274  1.9079
 2604TIP3   OH232006   6.901   0.982   7.793  0.3676 -0.1494  0.1946
 2604TIP3    H132007   6.893   1.024   7.708 -0.8136  0.2675  0.4989
 2604TIP3    H232008   6.971   1.031   7.837  1.6604 -0.9713 -0.8494
 2605TIP3   OH232009   4.244   1.469   9.139  0.2349 -0.2095  0.1704
 2605TIP3    H132010   4.333   1.504   9.141  0.7433 -1.3184 -1.2254
 2605TIP3    H232011   4.191   1.540   9.104  0.5922  0.3687  0.7633
 2606TIP3   OH232012   5.821   0.072   8.844  0.2467  0.1360  0.1460
 2606TIP3    H132013   5.768  -0.002   8.815  0.4516 -0.2997  0.8782
 2606TIP3    H232014   5.906   0.035   8.867 -0.0732  0.3591  1.8480
 2607TIP3   OH232015   4.542   0.542   8.279  0.4962  0.5525  0.0720
 2607TIP3    H132016   4.451   0.560   8.301  0.4634  0.2470  0.1834
 2607TIP3    H232017   4.576   0.626   8.247 -0.1619  0.3632 -1.1562
 2608TIP3   OH232018   6.619   5.084   8.722  0.4412  0.0268  0.1655
 2608TIP3    H132019   6.701   5.129   8.699  0.5469  0.3936  1.1762
 2608TIP3    H232020   6.625   5.072   8.817 -1.1368  1.0026  0.4359
 2609TIP3   OH232021   0.131   6.214   8.436  0.2916 -0.1803 -0.0418
 2609TIP3    H132022   0.063   6.274   8.467 -0.4132 -0.6406 -0.6575
 2609TIP3    H232023   0.096   6.180   8.353  1.1627 -0.6181 -0.2368
 2610TIP3   OH232024   4.682   1.586   9.374  0.4021 -0.4579 -0.3708
 2610TIP3    H132025   4.610   1.553   9.427  0.4469  1.6919  1.1605
 2610TIP3    H232026   4.643   1.603   9.288 -0.4615 -1.0040 -0.1003
 2611TIP3   OH232027   1.930   7.665   8.148  0.2193 -0.0574 -0.1135
 2611TIP3    H132028   1.988   7.737   8.123  0.0277 -0.2732 -1.2438
 2611TIP3    H232029   1.869   7.658   8.075  0.7412 -1.8962 -0.4077
 2612TIP3   OH232030   5.884   6.721   7.803 -0.1836  0.6568 -0.1951
 2612TIP3    H132031   5.878   6.799   7.859 -0.7129  0.0090  0.6890
 2612TIP3    H232032   5.966   6.731   7.756  1.1696  0.4314  1.9727
 2613TIP3   OH232033   0.464   0.548   8.664 -0.6812  0.3356  0.8465
 2613TIP3    H132034   0.383   0.559   8.613 -0.9811 -1.9315  0.7099
 2613TIP3    H232035   0.440   0.486   8.733  1.3934 -2.3011 -0.5796
 2614TIP3   OH232036   3.399   1.049   7.909 -0.3530  0.0704  0.2373
 2614TIP3    H132037   3.421   0.969   7.862 -1.5125  0.5065 -1.1397
 2614TIP3    H232038   3.482   1.081   7.943  0.4918 -0.4873 -1.2179
 2615TIP3   OH232039   6.288   1.081   8.268 -0.0869 -0.1584 -0.1893
 2615TIP3    H132040   6.232   1.045   8.199 -0.9432  1.6044 -0.4878
 2615TIP3    H232041   6.359   1.125   8.221  0.5330 -0.7769  0.1408
 2616TIP3   OH232042   2.059   5.372   6.977  0.5013 -0.1798  0.1727
 2616TIP3    H132043   2.153   5.381   6.997  1.1995 -2.4696 -1.6648
 2616TIP3    H232044   2.038   5.282   7.000 -1.3998  0.4017  0.8959
 2617TIP3   OH232045   3.151   2.394   8.645  0.0229  0.1423  0.0476
 2617TIP3    H132046   3.057   2.413   8.648  0.4680  2.6728  1.2873
 2617TIP3    H232047   3.166   2.332   8.716 -0.4916  1.1069  1.0216
 2618TIP3   OH232048   4.780   3.695   8.229 -0.4973 -0.3991  0.2265
 2618TIP3    H132049   4.851   3.680   8.166 -0.5100  0.4943 -0.0188
 2618TIP3    H232050   4.825   3.712   8.312 -0.3502  1.3331 -0.1716
 2619TIP3   OH232051   1.130   2.409   9.803 -0.3050  0.1322 -0.0429
 2619TIP3    H132052   1.151   2.502   9.811 -0.5545  0.2594 -0.8392
 2619TIP3    H232053   1.215   2.365   9.803 -0.1495  0.4360 -0.6368
 2620TIP3   OH232054   5.533   1.806   8.947 -0.8010 -0.4307  0.2916
 2620TIP3    H132055   5.465   1.796   9.013  0.7814 -1.3937  1.8615
 2620TIP3    H232056   5.562   1.897   8.957  0.4680 -0.9760  2.0625
 2621TIP3   OH232057   1.404   5.637   9.292  0.4651 -0.2446 -0.7177
 2621TIP3    H132058   1.399   5.719   9.341 -0.4126  0.0872 -1.3470
 2621TIP3    H232059   1.388   5.569   9.357 -1.6576  0.2343 -0.6831
 2622TIP3   OH232060   6.468   6.042   7.398 -0.3448  0.1843  0.3821
 2622TIP3    H132061   6.421   6.076   7.474 -0.8328  1.6231 -0.5166
 2622TIP3    H232062   6.429   5.957   7.381 -0.8277  0.2345  1.2191
 2623TIP3   OH232063   0.436   1.753   8.658 -0.6061  0.4675  0.4101
 2623TIP3    H132064   0.489   1.680   8.628  0.5852  1.7507 -0.7509
 2623TIP3    H232065   0.493   1.800   8.719 -0.4001  1.8018 -0.7618
 2624TIP3   OH232066   6.975   3.634   8.396 -0.1383 -0.1312  0.3782
 2624TIP3    H132067   7.061   3.659   8.428 -0.5860 -0.9470  2.3927
 2624TIP3    H232068   6.990   3.552   8.348  0.0270 -1.3660  2.3978
 2625TIP3   OH232069   2.654   2.340   7.442  0.5353 -0.4306 -0.3911
 2625TIP3    H132070   2.748   2.349   7.460  0.5669  1.1670 -1.1453
 2625TIP3    H232071   2.649   2.323   7.348  0.0584  0.8312 -0.6267
 2626TIP3   OH232072   7.039   0.396   8.076 -0.6700  0.1367 -0.0583
 2626TIP3    H132073   7.124   0.355   8.089  0.0921  1.6470 -0.0153
 2626TIP3    H232074   7.048   0.484   8.113 -1.9335  0.6802 -0.9343
 2627TIP3   OH232075   5.243   3.409   7.586  0.4127 -0.1870 -0.0486
 2627TIP3    H132076   5.204   3.454   7.511  1.3751  1.7043  0.4955
 2627TIP3    H232077   5.277   3.480   7.641 -1.4652 -1.3923  2.9099
 2628TIP3   OH232078   1.756   1.496   8.796  0.3350 -0.3635  0.1571
 2628TIP3    H132079   1.779   1.558   8.726  3.1804  0.2721  1.5320
 2628TIP3    H232080   1.828   1.433   8.797 -0.8660 -1.8070  0.9911
 2629TIP3   OH232081   1.715   0.439   7.452  0.1374 -0.3114  0.1236
 2629TIP3    H132082   1.764   0.409   7.529 -0.7796  0.6845  1.1355
 2629TIP3    H232083   1.722   0.535   7.455  1.8374 -0.2826 -2.2442
 2630TIP3   OH232084   4.875   5.938   7.462  0.0729 -0.4903  0.5076
 2630TIP3    H132085   4.930   5.909   7.389 -0.6611  1.0544 -0.7331
 2630TIP3    H232086   4.787   5.941   7.425 -0.3931 -0.1588  1.6175
 2631TIP3   OH232087   7.508   2.074   6.933  0.6790 -0.1258  0.4712
 2631TIP3    H132088   7.577   2.012   6.956  0.3651 -0.8782 -0.5328
 2631TIP3    H232089   7.427   2.027   6.949  0.4456 -0.5239 -1.6375
 2632TIP3   OH232090   6.415   3.833   9.007 -0.2251 -0.8880 -0.4275
 2632TIP3    H132091   6.345   3.797   8.952  0.2876  0.2613 -1.9207
 2632TIP3    H232092   6.484   3.856   8.945  0.7224 -0.2759  0.8155
 2633TIP3   OH232093   2.489   5.420   9.501  0.5986  0.0842 -0.0409
 2633TIP3    H132094   2.447   5.480   9.439 -0.4104  0.0278  0.5688
 2633TIP3    H232095   2.425   5.408   9.570  0.9396 -1.3962  0.0505
 2634TIP3   OH232096   2.103   4.916   7.413 -0.2822 -0.0823 -0.0780
 2634TIP3    H132097   2.012   4.939   7.432 -0.7368 -1.8820  0.1024
 2634TIP3    H232098   2.149   5.001   7.408 -2.2185  0.9581 -1.6914
 2635TIP3   OH232099   1.900   3.722   9.147  0.2143 -0.1378  0.2572
 2635TIP3    H132100   1.990   3.689   9.152  1.8750  3.6535 -1.1095
 2635TIP3    H232101   1.885   3.764   9.231 -1.2221 -2.5232  1.3070
 2636TIP3   OH232102   6.129   6.926   8.810  0.3053 -0.3540  0.0447
 2636TIP3    H132103   6.104   6.965   8.726  0.1925  1.7575  0.9939
 2636TIP3    H232104   6.225   6.932   8.811  0.4160 -1.6614 -0.4788
 2637TIP3   OH232105   0.268   2.043   7.962  0.4557  0.5246  0.2765
 2637TIP3    H132106   0.297   2.018   7.875  0.5608 -0.6189  0.6255
 2637TIP3    H232107   0.257   1.960   8.009  0.8881  1.1334  1.5032
 2638TIP3   OH232108   5.615   5.619   7.858  0.3639 -0.2508  0.7135
 2638TIP3    H132109   5.652   5.682   7.921 -0.5798 -0.4499  1.5007
 2638TIP3    H232110   5.535   5.587   7.901  0.0354 -0.8714 -0.3266
 2639TIP3   OH232111   2.238   1.008   7.658 -0.2239 -0.0019  0.1391
 2639TIP3    H132112   2.272   1.047   7.577  3.6651 -1.8577  0.6671
 2639TIP3    H232113   2.212   1.084   7.711  2.4011  1.7028 -0.7654
 2640TIP3   OH232114   1.305   6.827   7.504 -0.1456 -0.4402 -0.2144
 2640TIP3    H132115   1.290   6.756   7.442 -0.6624 -0.0349 -0.5602
 2640TIP3    H232116   1.276   6.793   7.588 -0.1447 -0.7251 -0.3290
 2641TIP3   OH232117   3.660   5.977   8.287 -0.4549 -0.1644  0.3786
 2641TIP3    H132118   3.653   5.989   8.381  0.9225  2.4009  0.2572
 2641TIP3    H232119   3.588   5.918   8.264 -0.9432 -0.6683  2.9726
 2642TIP3   OH232120   6.886   6.093   8.242 -0.2424 -0.1009  0.2910
 2642TIP3    H132121   6.894   6.023   8.178  0.6099 -1.3899  1.7560
 2642TIP3    H232122   6.834   6.055   8.313  1.3026  0.2901  1.6820
 2643TIP3   OH232123   1.972   7.108   8.856  0.1653  0.5913 -0.0691
 2643TIP3    H132124   2.041   7.164   8.821 -0.8648  2.7705  1.1470
 2643TIP3    H232125   1.905   7.107   8.788 -0.1655  1.5866  0.2199
 2644TIP3   OH232126   3.269   2.304   8.376  0.4297  0.8091 -0.0595
 2644TIP3    H132127   3.316   2.319   8.294 -3.5211  0.7014 -2.6028
 2644TIP3    H232128   3.239   2.213   8.371 -0.3717  0.9787  1.1914
 2645TIP3   OH232129   0.703   1.938   6.979 -0.4420 -0.0087  0.1878
 2645TIP3    H132130   0.644   1.954   6.905 -0.7469 -0.7583  0.2673
 2645TIP3    H232131   0.791   1.942   6.941 -0.5306  1.0010  0.0481
 2646TIP3   OH232132   1.664   4.433   8.095 -0.0217 -0.7323 -0.7125
 2646TIP3    H132133   1.659   4.482   8.176 -2.3648 -2.5071  0.3469
 2646TIP3    H232134   1.754   4.444   8.065  0.8099  0.2765  1.9121
 2647TIP3   OH232135   5.450   2.229   9.299  0.1400  0.1315 -0.9150
 2647TIP3    H132136   5.424   2.320   9.285  0.1938  1.1457  3.7063
 2647TIP3    H232137   5.546   2.231   9.300  0.1880  0.7602  1.7852
 2648TIP3   OH232138   3.780   6.836   9.013  0.9910  0.4112  0.1274
 2648TIP3    H132139   3.842   6.837   8.940  2.6579 -0.3059  1.4829
 2648TIP3    H232140   3.806   6.761   9.066 -0.7105  0.4185  1.0433
 2649TIP3   OH232141   4.204   5.067   9.171 -0.3326  0.4395 -0.8924
 2649TIP3    H132142   4.238   5.074   9.261  1.0851  0.1582 -1.3807
 2649TIP3    H232143   4.136   5.000   9.176  2.1959 -2.3209 -0.6524
 2650TIP3   OH232144   6.031   4.393   8.449 -0.5024 -0.2732  0.5935
 2650TIP3    H132145   6.083   4.452   8.504 -1.4301  0.3444  0.8382
 2650TIP3    H232146   5.967   4.451   8.406 -0.9224 -0.9940  0.2267
 2651TIP3   OH232147   5.326   0.235   7.901  0.2054  0.5553  0.4643
 2651TIP3    H132148   5.348   0.326   7.880 -0.1496  0.6202  0.3601
 2651TIP3    H232149   5.359   0.185   7.827  0.6288  0.5676  0.6405
 2652TIP3   OH232150   3.468   1.401   9.205 -0.2779  0.3868  0.0951
 2652TIP3    H132151   3.466   1.477   9.264  1.6880  0.8531 -0.3578
 2652TIP3    H232152   3.495   1.328   9.261  1.3516  0.7809 -0.1259
 2653TIP3   OH232153   3.219   4.240   9.027 -0.0013  0.1097 -0.0859
 2653TIP3    H132154   3.212   4.164   8.969  1.7150 -0.0899 -0.1013
 2653TIP3    H232155   3.151   4.226   9.093 -0.4454 -0.8629 -0.7238
 2654TIP3   OH232156   6.336   5.061   6.924  0.0593  0.0101  0.1390
 2654TIP3    H132157   6.348   5.026   6.835  2.4754 -0.0683  0.4477
 2654TIP3    H232158   6.316   4.985   6.977 -0.8372 -0.0163 -0.2119
 2655TIP3   OH232159   2.442   6.743   8.227  0.0966 -0.0859  0.6863
 2655TIP3    H132160   2.456   6.805   8.155  0.3939 -0.5572  0.3348
 2655TIP3    H232161   2.446   6.657   8.186  1.4936 -0.4231  1.4510
 2656TIP3   OH232162   4.829   2.137   8.863  0.6220 -0.2529 -0.6841
 2656TIP3    H132163   4.760   2.072   8.876  0.7661 -0.3843 -0.5842
 2656TIP3    H232164   4.815   2.168   8.773 -0.5987  0.9138 -0.1384
 2657TIP3   OH232165   5.748   3.002   9.495 -0.0054 -0.1151 -0.1149
 2657TIP3    H132166   5.808   2.959   9.556  0.4040  0.4849 -0.0891
 2657TIP3    H232167   5.674   2.941   9.488 -0.2850  0.0134  1.3425
 2658TIP3   OH232168   3.444   3.582   8.503  0.0214  0.0550 -0.2399
 2658TIP3    H132169   3.367   3.636   8.486  0.1505  0.0346 -0.9207
 2658TIP3    H232170   3.440   3.564   8.597 -1.0275 -0.2699 -0.3236
 2659TIP3   OH232171   3.513   0.961   7.362 -0.1887  0.0785  0.4107
 2659TIP3    H132172   3.593   0.933   7.406  0.3618 -2.3370 -1.8224
 2659TIP3    H232173   3.544   1.019   7.292 -0.1267 -1.8178 -1.2300
 2660TIP3   OH232174   7.189   2.279   9.566  0.3770 -0.8736 -0.6193
 2660TIP3    H132175   7.195   2.194   9.611  0.7762 -0.4551  0.1563
 2660TIP3    H232176   7.276   2.292   9.528  0.7568 -0.2006  0.4379
 2661TIP3   OH232177   6.699   4.037   8.173 -0.0400 -0.1463  0.3174
 2661TIP3    H132178   6.746   4.021   8.254  0.2181 -0.4667  0.1096
 2661TIP3    H232179   6.620   4.084   8.199  0.6652  0.8980  0.6107
 2662TIP3   OH232180   3.659   1.970   8.032  0.3457 -0.9084 -0.0124
 2662TIP3    H132181   3.647   2.060   8.000  0.6186 -0.3333  1.4101
 2662TIP3    H232182   3.578   1.925   8.009 -0.5018  0.1792  0.7359
 2663TIP3   OH232183   4.839   6.803   8.450 -0.1007 -0.1212  0.2041
 2663TIP3    H132184   4.799   6.849   8.376  0.5659  0.6410  0.3090
 2663TIP3    H232185   4.916   6.854   8.471  0.4726 -1.1073  0.5529
 2664TIP3   OH232186   2.465   5.504   8.664  0.7450 -0.1517  0.6458
 2664TIP3    H132187   2.370   5.492   8.669  0.7428  0.2032  1.7330
 2664TIP3    H232188   2.481   5.537   8.576 -0.5334  3.0384  1.4644
 2665TIP3   OH232189   6.668   2.367   7.726 -0.0574 -0.1304 -0.9369
 2665TIP3    H132190   6.662   2.404   7.814 -0.7173 -0.9255 -0.6330
 2665TIP3    H232191   6.694   2.441   7.671 -1.0082  0.7090 -0.3021
 2666TIP3   OH232192   4.534   2.473   9.560 -0.2453  0.1007 -0.2319
 2666TIP3    H132193   4.512   2.565   9.578  1.2297  0.2734  0.8556
 2666TIP3    H232194   4.453   2.425   9.574 -0.2886  0.8310  2.5271
 2667TIP3   OH232195   4.131   0.177   8.190 -0.1154 -0.2273  0.6918
 2667TIP3    H132196   4.146   0.119   8.265  0.0625 -0.4213  0.5078
 2667TIP3    H232197   4.160   0.127   8.114 -1.0671 -0.3459  0.3964
 2668TIP3   OH232198   6.147   6.759   9.423 -0.0899 -0.1307 -0.3742
 2668TIP3    H132199   6.157   6.792   9.333 -0.3530 -1.9642 -1.1188
 2668TIP3    H232200   6.201   6.680   9.425 -1.0703 -0.7951  0.7193
 2669TIP3   OH232201   0.586   2.640   9.505 -0.5808 -0.1793  0.6603
 2669TIP3    H132202   0.539   2.693   9.441  2.6629  1.8686 -0.3098
 2669TIP3    H232203   0.562   2.677   9.590 -0.2378  1.3098  0.1399
 2670TIP3   OH232204   0.787   6.085   8.683  0.1579  0.0238  0.1202
 2670TIP3    H132205   0.789   6.123   8.595  1.6893 -1.9211 -0.7704
 2670TIP3    H232206   0.718   6.019   8.680  0.0270  0.1391  0.4759
 2671TIP3   OH232207   0.704   1.801   9.108 -0.0947 -0.3857  0.5101
 2671TIP3    H132208   0.790   1.766   9.084 -0.9433 -1.8701 -0.6161
 2671TIP3    H232209   0.709   1.816   9.202  1.7116  0.5581  0.2937
 2672TIP3   OH232210   5.721   0.948   7.683 -0.4322  0.2721 -0.0479
 2672TIP3    H132211   5.725   0.972   7.590 -1.3631  1.2122  0.1297
 2672TIP3    H232212   5.789   0.882   7.694 -1.4204 -1.1197 -1.7777
 2673TIP3   OH232213   4.745   0.008   8.983 -0.3912  0.2821 -0.2173
 2673TIP3    H132214   4.746   0.042   8.894  0.0644 -0.1193 -0.3680
 2673TIP3    H232215   4.829   0.034   9.020  0.5719 -1.7921 -0.7754
 2674TIP3   OH232216   5.299   1.361   7.185 -0.4509 -0.0089 -0.4295
 2674TIP3    H132217   5.218   1.403   7.155 -0.8686 -0.1786  0.4316
 2674TIP3    H232218   5.275   1.318   7.267  0.5437  0.0237 -0.1068
 2675TIP3   OH232219   0.720   6.919   7.581  0.2803  0.7302  0.7093
 2675TIP3    H132220   0.718   6.973   7.660  1.8938 -0.4821  1.6277
 2675TIP3    H232221   0.627   6.907   7.560 -0.1889  1.4651  2.1436
 2676TIP3   OH232222   6.374   3.641   9.252 -0.4176  0.1334 -0.3652
 2676TIP3    H132223   6.432   3.632   9.177 -0.3281  0.4557 -0.3356
 2676TIP3    H232224   6.430   3.673   9.323 -0.6550  0.5732 -0.3737
 2677TIP3   OH232225   6.170   4.545   9.198  0.3912  0.1642 -0.0403
 2677TIP3    H132226   6.134   4.610   9.258 -0.2793 -0.4629  0.2596
 2677TIP3    H232227   6.106   4.539   9.127 -0.3848 -1.3150  0.7383
 2678TIP3   OH232228   5.771   3.691   9.404 -0.0266 -0.2798  0.3536
 2678TIP3    H132229   5.705   3.761   9.397 -0.6571 -0.9583 -0.7982
 2678TIP3    H232230   5.721   3.610   9.398  0.8795 -0.8172 -0.3387
 2679TIP3   OH232231   6.783   0.278   8.122  0.1794  0.3912 -0.2484
 2679TIP3    H132232   6.870   0.319   8.125  0.9920 -1.2985  0.7592
 2679TIP3    H232233   6.723   0.348   8.147  1.5108  0.9922  1.5201
 2680TIP3   OH232234   0.838   2.402   7.059 -0.2281 -0.0263  0.2174
 2680TIP3    H132235   0.926   2.384   7.027 -0.4216 -0.8070  0.1027
 2680TIP3    H232236   0.808   2.318   7.094 -1.2189  0.0385 -0.4413
 2681TIP3   OH232237   5.782   0.266   8.637 -0.3172  0.2020  0.0230
 2681TIP3    H132238   5.761   0.175   8.661  1.5453 -0.4328 -0.5991
 2681TIP3    H232239   5.871   0.279   8.668 -0.8450  2.1374  0.8567
 2682TIP3   OH232240   2.729   4.637   8.209 -0.2208  0.4558 -0.7879
 2682TIP3    H132241   2.811   4.628   8.160  0.4820 -0.9485  0.5848
 2682TIP3    H232242   2.709   4.731   8.205  2.4382  1.1659  0.3969
 2683TIP3   OH232243   1.356   7.431   8.812  0.8864  0.1670 -0.2086
 2683TIP3    H132244   1.269   7.422   8.774  0.6115 -1.9463  0.7591
 2683TIP3    H232245   1.401   7.493   8.755 -0.8371  0.3428 -1.4602
 2684TIP3   OH232246   2.016   2.521   8.658 -0.0409 -0.2388 -0.2283
 2684TIP3    H132247   1.922   2.513   8.678 -0.3113  0.0304 -1.3515
 2684TIP3    H232248   2.019   2.562   8.572  1.1051 -0.7030 -0.4256
 2685TIP3   OH232249   6.567   3.143   7.886  0.6028  0.6215 -0.1794
 2685TIP3    H132250   6.642   3.108   7.837  0.5445  0.7472 -0.3604
 2685TIP3    H232251   6.582   3.237   7.888  0.4599  0.6446 -0.1972
 2686TIP3   OH232252   3.855   3.185   7.803 -0.3729  0.0190 -0.2076
 2686TIP3    H132253   3.815   3.146   7.725 -2.0984  0.4405  0.4208
 2686TIP3    H232254   3.781   3.207   7.859  0.8580 -1.7849  2.3176
 2687TIP3   OH232255   2.331   5.543   8.940 -0.5340  0.0524  0.4409
 2687TIP3    H132256   2.282   5.473   8.897  0.0527 -0.1324  0.0655
 2687TIP3    H232257   2.314   5.531   9.034 -1.3581  0.1105  0.3039
 2688TIP3   OH232258   5.653   3.180   6.636 -0.0916 -0.1754 -0.0080
 2688TIP3    H132259   5.740   3.141   6.644 -0.8417 -1.7476  1.1601
 2688TIP3    H232260   5.664   3.270   6.667  1.3435  0.0266 -1.0495
 2689TIP3   OH232261   3.511   4.807   7.769  0.0683 -0.1603  0.3683
 2689TIP3    H132262   3.572   4.772   7.704  0.9087 -0.8091  1.4690
 2689TIP3    H232263   3.565   4.822   7.847 -0.7443  1.3848  0.6715
 2690TIP3   OH232264   1.364   2.032   8.990  0.0456  0.1639  0.0400
 2690TIP3    H132265   1.279   2.044   8.948 -0.7760 -1.1267  1.2385
 2690TIP3    H232266   1.380   1.938   8.985  0.7709  0.2230  1.0019
 2691TIP3   OH232267   1.430   7.000   8.082  0.3051 -0.4578 -0.2468
 2691TIP3    H132268   1.391   6.913   8.082  0.4390 -0.5174 -0.4900
 2691TIP3    H232269   1.447   7.019   7.990 -0.0939 -0.0096 -0.2366
 2692TIP3   OH232270   4.159   4.169   9.163  0.7708  0.0091 -0.2336
 2692TIP3    H132271   4.173   4.263   9.150  0.3098 -0.0837 -1.4846
 2692TIP3    H232272   4.108   4.164   9.244 -1.4926  1.0322 -1.5076
 2693TIP3   OH232273   1.373   5.565   8.882  0.6529  0.0518 -0.4175
 2693TIP3    H132274   1.334   5.525   8.960  2.5596 -1.2391 -0.0270
 2693TIP3    H232275   1.341   5.655   8.882  0.2398 -0.0398  1.6220
 2694TIP3   OH232276   5.222   1.271   6.663 -0.3071 -0.1488 -0.1229
 2694TIP3    H132277   5.170   1.320   6.726  2.6305  0.9772  1.6728
 2694TIP3    H232278   5.229   1.183   6.700  0.6763  0.2652  0.7244
 2695TIP3   OH232279   7.318   1.650   8.374 -0.7373 -0.1757 -0.3715
 2695TIP3    H132280   7.295   1.660   8.281 -0.4585  3.0059 -0.2309
 2695TIP3    H232281   7.263   1.714   8.419 -0.6736 -1.4638  1.6631
 2696TIP3   OH232282   5.248   0.212   9.040 -0.1897  0.2626  0.1714
 2696TIP3    H132283   5.330   0.163   9.040  0.4025  1.1824 -1.0711
 2696TIP3    H232284   5.258   0.276   9.111 -0.0891 -0.0383  0.4278
 2697TIP3   OH232285   2.723   4.440   8.891 -0.1338 -0.2238 -0.1637
 2697TIP3    H132286   2.674   4.483   8.821  0.3075 -1.1392 -1.0661
 2697TIP3    H232287   2.680   4.467   8.971 -2.3683 -1.2667 -0.9284
 2698TIP3   OH232288   3.430   4.164   8.086 -0.2403  0.2157  0.1373
 2698TIP3    H132289   3.498   4.228   8.107 -0.2713 -0.2522  1.8174
 2698TIP3    H232290   3.460   4.122   8.006 -0.8240  3.1247 -1.7692
 2699TIP3   OH232291   6.040   4.907   8.881 -0.3001 -0.0498  0.0498
 2699TIP3    H132292   5.986   4.984   8.865 -2.1224 -1.1457  0.6976
 2699TIP3    H232293   6.096   4.933   8.955 -0.6174  0.7805  0.0161
 2700TIP3   OH232294   3.023   4.958   8.936 -0.9685 -0.3026  0.0873
 2700TIP3    H132295   3.097   5.013   8.912 -1.9739  1.1888  0.2545
 2700TIP3    H232296   3.059   4.892   8.994 -0.0944  1.6206  1.8438
 2701TIP3   OH232297   2.222   1.875   9.530 -0.5640 -0.0385  0.5413
 2701TIP3    H132298   2.200   1.819   9.455 -0.3360  0.3547  0.1765
 2701TIP3    H232299   2.245   1.813   9.600 -0.5630 -0.4057  0.2207
 2702TIP3   OH232300   2.709   0.448   8.013  0.4829  0.0586  0.2942
 2702TIP3    H132301   2.795   0.487   7.995 -0.2529  0.6669 -2.4339
 2702TIP3    H232302   2.728   0.361   8.047  2.2901 -0.8860 -2.7380
 2703TIP3   OH232303   0.497   6.841   9.184  0.0669 -0.5607  0.3816
 2703TIP3    H132304   0.526   6.926   9.150  0.0435 -0.5360  0.4227
 2703TIP3    H232305   0.534   6.777   9.124 -0.0955 -0.5090  0.2268
 2704TIP3   OH232306   3.561   1.367   7.379 -0.3973 -0.0038 -0.4945
 2704TIP3    H132307   3.518   1.320   7.451 -1.6538  0.7707 -0.7033
 2704TIP3    H232308   3.570   1.302   7.310  0.2783 -0.5985  0.1303
 2705TIP3   OH232309   7.193   7.264   8.044  0.3840 -0.1528 -0.3106
 2705TIP3    H132310   7.205   7.249   7.950 -0.1114 -1.5462 -0.1648
 2705TIP3    H232311   7.106   7.230   8.063  0.8954 -0.8308  0.8542
 2706TIP3   OH232312   6.246   4.880   8.342  0.1415  0.1355 -0.0733
 2706TIP3    H132313   6.275   4.930   8.419  0.4827  1.7202 -1.1761
 2706TIP3    H232314   6.326   4.861   8.294  0.1133 -2.2265  0.6833
 2707TIP3   OH232315   6.535   5.477   7.220  0.1891 -0.2427 -0.1381
 2707TIP3    H132316   6.466   5.411   7.210  0.5865 -0.5820 -0.6762
 2707TIP3    H232317   6.581   5.450   7.300 -0.5978  0.2735  0.5156
 2708TIP3   OH232318   2.958   6.348   7.135  0.2128 -0.5103  0.1189
 2708TIP3    H132319   2.908   6.402   7.197  1.2029 -1.5217  1.8411
 2708TIP3    H232320   3.034   6.401   7.113 -1.2316  0.8434 -2.1643
 2709TIP3   OH232321   2.275   2.737   7.304  0.4618 -0.5355  0.7029
 2709TIP3    H132322   2.347   2.766   7.248 -0.1990  1.4867  0.8061
 2709TIP3    H232323   2.213   2.695   7.245  1.2301 -1.3542  0.4553
 2710TIP3   OH232324   4.242   4.769   8.016  0.2825  0.2587 -0.5012
 2710TIP3    H132325   4.278   4.780   8.104  0.4258  0.1193 -0.5417
 2710TIP3    H232326   4.313   4.728   7.966 -0.2354 -0.8700 -0.3486
 2711TIP3   OH232327   7.677   7.511   9.269 -0.0084 -0.0413  0.1357
 2711TIP3    H132328   7.645   7.462   9.193 -0.0383 -0.5508  0.4715
 2711TIP3    H232329   7.609   7.577   9.284  0.1467  0.2654 -0.4648
 2712TIP3   OH232330   1.030   1.364   9.258  0.5798 -0.1633  0.2163
 2712TIP3    H132331   1.005   1.299   9.324 -1.5270 -0.9595 -1.2515
 2712TIP3    H232332   1.032   1.447   9.305 -0.3232 -0.7900  1.4163
 2713TIP3   OH232333   6.256   0.027   9.130 -0.3583  0.4417  0.2251
 2713TIP3    H132334   6.187   0.048   9.193  0.2449 -0.8469  1.3696
 2713TIP3    H232335   6.330   0.082   9.156 -0.0431 -0.2385  0.7806
 2714TIP3   OH232336   0.221   5.426   8.608  0.2699  0.1218 -0.5319
 2714TIP3    H132337   0.126   5.418   8.609  0.0535  2.1402 -0.8292
 2714TIP3    H232338   0.244   5.449   8.698  0.0727  2.8725 -1.1061
 2715TIP3   OH232339   7.245   1.221   8.065 -0.4497  0.2907 -0.3967
 2715TIP3    H132340   7.263   1.315   8.070  3.4503 -0.3060  0.3568
 2715TIP3    H232341   7.265   1.188   8.153 -1.8861 -1.2847 -0.6043
 2716TIP3   OH232342   3.450   4.844   7.290 -0.1608  0.0792  0.4009
 2716TIP3    H132343   3.437   4.750   7.304 -0.8626  0.4405  2.5480
 2716TIP3    H232344   3.398   4.863   7.212  1.1505 -1.5316 -0.9481
 2717TIP3   OH232345   2.769   1.696   9.127 -0.2707 -0.5305 -0.0974
 2717TIP3    H132346   2.837   1.651   9.077 -0.6935 -1.3555  0.0463
 2717TIP3    H232347   2.789   1.675   9.218  0.4184  0.8515  0.0873
 2718TIP3   OH232348   1.910   3.010   8.353 -0.2760  0.1152 -0.5429
 2718TIP3    H132349   1.960   3.021   8.434 -0.7362 -1.7924  0.0670
 2718TIP3    H232350   1.833   3.065   8.365 -0.3327 -0.1394  0.3296
 2719TIP3   OH232351   0.520   2.354   9.491  0.1239  0.1723 -0.2962
 2719TIP3    H132352   0.552   2.445   9.487  0.1875  0.1023 -1.7402
 2719TIP3    H232353   0.481   2.347   9.578  1.6634  1.0608  0.5261
 2720TIP3   OH232354   4.440   0.612   8.562 -0.2471 -0.1521  0.2901
 2720TIP3    H132355   4.431   0.619   8.657  0.6440 -1.8965  0.5438
 2720TIP3    H232356   4.500   0.538   8.548  0.7323  0.8900 -1.6017
 2721TIP3   OH232357   5.509   2.169   8.568  1.0620 -1.0286 -0.6853
 2721TIP3    H132358   5.431   2.114   8.562 -0.2532  0.6924 -0.1722
 2721TIP3    H232359   5.487   2.247   8.518  1.8582  0.1382  0.7147
 2722TIP3   OH232360   5.778   3.729   7.990 -0.5638 -0.0665 -0.4320
 2722TIP3    H132361   5.719   3.750   8.062  2.2691  0.3027  1.9852
 2722TIP3    H232362   5.828   3.810   7.975  0.6769 -0.8885 -0.9359
 2723TIP3   OH232363   6.391   4.280   8.429  0.2459  0.2270  0.0638
 2723TIP3    H132364   6.305   4.260   8.393 -0.4649  1.3839  1.0555
 2723TIP3    H232365   6.453   4.244   8.365 -0.9592  0.7340 -1.4387
 2724TIP3   OH232366   1.794   3.037   7.699 -0.8352 -0.0249 -0.2246
 2724TIP3    H132367   1.888   3.038   7.679 -0.7799 -0.7345 -0.0328
 2724TIP3    H232368   1.767   3.128   7.690 -0.4894 -0.0571 -1.9932
 2725TIP3   OH232369   3.045   0.572   8.982  0.2319  0.1124  0.3215
 2725TIP3    H132370   3.129   0.573   8.935  0.3582 -2.0564  0.3978
 2725TIP3    H232371   3.052   0.644   9.044  1.7803  0.3912 -0.1208
 2726TIP3   OH232372   7.615   5.661   8.298 -0.5642 -0.1443  0.0776
 2726TIP3    H132373   7.648   5.749   8.317 -0.0349 -0.9242  3.4240
 2726TIP3    H232374   7.680   5.622   8.240  0.4738  0.8983  0.5054
 2727TIP3   OH232375   4.779   3.794   8.866  0.4891 -0.1351  0.1381
 2727TIP3    H132376   4.718   3.792   8.792  0.1441 -2.0333  0.4246
 2727TIP3    H232377   4.866   3.787   8.826  0.2559 -2.4563 -0.0941
 2728TIP3   OH232378   3.390   2.899   7.893  0.1995  0.1014  0.0613
 2728TIP3    H132379   3.386   2.995   7.888 -1.2836  0.0500 -0.0515
 2728TIP3    H232380   3.456   2.882   7.960 -1.8412  1.2791  2.5277
 2729TIP3   OH232381   4.985   3.236  10.206  0.2333  0.1266 -0.1046
 2729TIP3    H132382   5.051   3.257  10.139 -0.4944  0.8701 -0.6052
 2729TIP3    H232383   4.932   3.315  10.213  1.8162  1.0510  3.2440
 2730TIP3   OH232384   2.489   2.450   7.727 -0.3180 -0.0699 -0.4265
 2730TIP3    H132385   2.541   2.376   7.758 -2.4194 -0.7797  1.6484
 2730TIP3    H232386   2.507   2.454   7.633  2.5811 -0.9280  0.0165
 2731TIP3   OH232387   0.927   2.338   8.407 -0.3597  0.0728  0.1304
 2731TIP3    H132388   0.955   2.273   8.472  1.4896 -1.8530 -2.4078
 2731TIP3    H232389   0.989   2.410   8.417 -0.2205 -0.1064  0.6106
 2732TIP3   OH232390   0.321   6.329   8.278 -0.3611  0.1647 -0.3374
 2732TIP3    H132391   0.257   6.281   8.331  0.2551 -0.3890 -0.0891
 2732TIP3    H232392   0.279   6.413   8.261 -1.8745 -0.7786 -1.5549
 2733TIP3   OH232393   5.919   2.567   9.033  0.0256 -0.2610  0.1463
 2733TIP3    H132394   5.909   2.542   8.941  0.7036 -0.9691  0.2545
 2733TIP3    H232395   5.979   2.642   9.031 -1.5733  1.0938 -0.1317
 2734TIP3   OH232396   6.584   3.268   7.109 -0.0359  0.0063 -0.4592
 2734TIP3    H132397   6.549   3.354   7.132  2.3042  0.6855  0.8884
 2734TIP3    H232398   6.650   3.286   7.043  0.3242 -0.7670 -0.3220
 2735TIP3   OH232399   4.488   3.064   8.123 -0.3317 -0.3604 -0.1989
 2735TIP3    H132400   4.427   3.053   8.195  0.8465 -1.2396  0.7014
 2735TIP3    H232401   4.486   2.980   8.077  1.5623 -1.1119  0.9761
 2736TIP3   OH232402   5.855   6.896   8.286 -0.4684  0.5395  0.3887
 2736TIP3    H132403   5.895   6.859   8.208  0.5825  1.0320  0.6796
 2736TIP3    H232404   5.804   6.824   8.324  0.7385 -0.3286  0.4027
 2737TIP3   OH232405   4.576   6.220   7.725 -0.2648 -0.1525  0.3876
 2737TIP3    H132406   4.604   6.168   7.650 -1.4386  0.8185 -0.7685
 2737TIP3    H232407   4.596   6.310   7.700  1.4467  0.0495  2.2180
 2738TIP3   OH232408   3.680   5.399   8.394  0.1662 -0.6172  0.1264
 2738TIP3    H132409   3.642   5.316   8.422 -2.2112  0.3393  0.0243
 2738TIP3    H232410   3.734   5.377   8.318 -1.9154 -1.8912 -1.0931
 2739TIP3   OH232411   6.834   1.007   6.916  0.4179  0.2054 -0.9975
 2739TIP3    H132412   6.885   1.072   6.868 -0.8178  0.7411 -1.6331
 2739TIP3    H232413   6.860   1.018   7.007  1.1008  0.7752 -1.2582
 2740TIP3   OH232414   4.299   6.419   7.110  0.6286  0.1029  0.2633
 2740TIP3    H132415   4.308   6.344   7.051  0.7698 -0.2810  0.7624
 2740TIP3    H232416   4.321   6.495   7.056  0.0646 -0.1702 -0.3619
 2741TIP3   OH232417   0.473   3.539   8.222  0.9303  0.0023 -0.6654
 2741TIP3    H132418   0.543   3.604   8.228 -0.2188  1.2115  0.2493
 2741TIP3    H232419   0.487   3.483   8.299  0.7196  0.4307 -0.3114
 2742TIP3   OH232420   4.533   2.837   6.999 -0.2089  0.5398  0.2418
 2742TIP3    H132421   4.620   2.870   7.020  0.8739 -1.0828 -1.2828
 2742TIP3    H232422   4.488   2.832   7.083  1.0373  1.7494  1.0282
 2743TIP3   OH232423   5.882   1.481   9.395 -0.4393  0.0627  0.1939
 2743TIP3    H132424   5.911   1.516   9.480 -2.1542 -0.4191  1.0280
 2743TIP3    H232425   5.817   1.545   9.364 -1.1323 -0.6636  0.1193
 2744TIP3   OH232426   4.143   5.503   9.162 -0.5626  0.0196  0.9736
 2744TIP3    H132427   4.198   5.444   9.213 -1.0532 -0.8491  0.5140
 2744TIP3    H232428   4.166   5.590   9.194  1.0695 -0.3189  0.7737
 2745TIP3   OH232429   1.949   0.306   8.498 -0.0213  0.2866  0.1694
 2745TIP3    H132430   2.000   0.226   8.500 -0.1114  0.2196  2.3193
 2745TIP3    H232431   1.991   0.363   8.562 -0.5087  1.6066 -0.6459
 2746TIP3   OH232432   1.069   2.034   7.497  0.1240 -0.4453  0.2085
 2746TIP3    H132433   1.113   2.049   7.413  1.2411  0.2281  0.8700
 2746TIP3    H232434   0.991   2.090   7.494 -1.0864 -2.1216 -1.2326
 2747TIP3   OH232435   2.518   1.781   7.202 -0.4043  0.0238 -0.9151
 2747TIP3    H132436   2.429   1.747   7.189 -0.4986 -1.0471  1.8343
 2747TIP3    H232437   2.505   1.872   7.227 -0.5949  0.2904 -1.9228
 2748TIP3   OH232438   5.712   5.289   8.162 -0.1488 -0.2610  0.1254
 2748TIP3    H132439   5.805   5.286   8.183  0.0122 -2.1038 -0.6432
 2748TIP3    H232440   5.709   5.278   8.067 -1.1759 -3.0016  0.3730
 2749TIP3   OH232441   3.752   2.199   7.750  0.0536 -0.1910 -0.0314
 2749TIP3    H132442   3.811   2.125   7.765  1.0991  0.8426  1.1195
 2749TIP3    H232443   3.665   2.166   7.774  0.6971 -0.6744  1.8011
 2750TIP3   OH232444   6.813   5.932   9.087  0.1693  0.4096  0.2440
 2750TIP3    H132445   6.832   5.947   8.995 -2.1916  1.0792 -0.2003
 2750TIP3    H232446   6.799   6.019   9.124  1.3208  0.1720  1.3188
 2751TIP3   OH232447   6.848   4.567   8.530  0.4123 -0.2159  0.3952
 2751TIP3    H132448   6.845   4.577   8.435  1.3120  1.1424  0.4689
 2751TIP3    H232449   6.758   4.586   8.559 -0.2276 -2.0882 -0.2630
 2752TIP3   OH232450   0.847   0.162   7.064  0.5547  0.0320  0.5364
 2752TIP3    H132451   0.888   0.076   7.071  1.4711  0.5088  1.2902
 2752TIP3    H232452   0.893   0.216   7.129 -0.0118  1.0828  0.0916
 2753TIP3   OH232453   1.065   1.569   8.190  0.3855  0.0007  0.0438
 2753TIP3    H132454   1.065   1.560   8.285 -0.6269 -0.0684  0.0480
 2753TIP3    H232455   1.023   1.654   8.174  0.7413  0.1062 -0.3337
 2754TIP3   OH232456   0.213   0.578   8.553 -0.1559 -0.6579  0.0844
 2754TIP3    H132457   0.195   0.648   8.490 -1.9380  0.9526  2.2054
 2754TIP3    H232458   0.190   0.498   8.506 -2.8668  0.5715 -0.9277
 2755TIP3   OH232459   0.189   5.123   7.729  0.0622 -0.3355  0.5580
 2755TIP3    H132460   0.270   5.100   7.684 -0.3965  0.1467 -0.5353
 2755TIP3    H232461   0.133   5.047   7.720 -0.1981 -0.0704 -0.0953
 2756TIP3   OH232462   6.269   0.297   7.396  0.4590 -0.7790  0.0295
 2756TIP3    H132463   6.343   0.287   7.337 -0.6835  0.3949 -1.6993
 2756TIP3    H232464   6.235   0.209   7.409  1.7074 -1.2365  0.2543
 2757TIP3   OH232465   6.151   0.416   8.494 -0.2765  0.4730  0.5147
 2757TIP3    H132466   6.219   0.353   8.467 -0.7988 -0.5057  1.3989
 2757TIP3    H232467   6.074   0.362   8.509 -0.8421  1.3870  0.9607
 2758TIP3   OH232468   6.880   1.533   7.710  0.2542 -0.5254  0.0422
 2758TIP3    H132469   6.908   1.442   7.701 -0.0352 -0.7225  0.9946
 2758TIP3    H232470   6.915   1.560   7.795 -2.1304 -0.6891  1.1529
 2759TIP3   OH232471   1.673   7.289   7.744  0.3368 -0.2365 -0.4058
 2759TIP3    H132472   1.705   7.345   7.673  1.4623 -0.7448 -0.3339
 2759TIP3    H232473   1.608   7.233   7.703  0.6937 -0.2612 -0.9577
 2760TIP3   OH232474   5.366   0.358   8.448  0.7576 -0.9377 -0.7935
 2760TIP3    H132475   5.378   0.314   8.363 -1.0622 -0.5142 -1.3326
 2760TIP3    H232476   5.272   0.350   8.464  1.2487 -2.2834  1.9282
 2761TIP3   OH232477   0.312   3.460   9.019 -0.3358 -0.0598  0.3413
 2761TIP3    H132478   0.281   3.444   9.108 -0.3740  0.1632  0.3701
 2761TIP3    H232479   0.306   3.555   9.009 -0.7139 -0.1185 -0.0374
 2762TIP3   OH232480   3.754   7.370   8.837  0.2758  0.4137  0.2293
 2762TIP3    H132481   3.702   7.389   8.915  0.3332 -0.4147  0.4744
 2762TIP3    H232482   3.845   7.385   8.864  0.4476 -1.5845  0.8652
 2763TIP3   OH232483   2.265   4.257   8.070 -0.0666  0.2488 -0.1212
 2763TIP3    H132484   2.278   4.269   7.976  0.1997 -0.4952 -0.1835
 2763TIP3    H232485   2.332   4.312   8.111  0.2755  0.0248 -0.3793
 2764TIP3   OH232486   0.391   5.915   8.898  0.1846  0.0901 -0.5193
 2764TIP3    H132487   0.345   5.835   8.926 -1.0379  0.6959 -0.7073
 2764TIP3    H232488   0.416   5.898   8.807 -2.6469  0.9276 -1.5710
 2765TIP3   OH232489   7.066   7.403   7.411  0.0066 -0.3639 -0.6683
 2765TIP3    H132490   7.053   7.412   7.317 -2.8483  0.3039 -0.3162
 2765TIP3    H232491   6.979   7.420   7.449  0.7687 -1.8129  2.0082
 2766TIP3   OH232492   5.463   6.838   8.590 -0.1808 -0.0797  0.5022
 2766TIP3    H132493   5.406   6.905   8.629 -0.6870  0.4637 -1.1080
 2766TIP3    H232494   5.409   6.759   8.587  0.5512 -0.7620  2.7962
 2767TIP3   OH232495   2.827   0.390   7.736 -0.2935  0.1455 -0.3282
 2767TIP3    H132496   2.911   0.395   7.781 -0.3985 -0.1537 -0.0978
 2767TIP3    H232497   2.840   0.323   7.668 -0.4760 -0.2217 -0.0062
 2768TIP3   OH232498   5.133   1.267   8.278  0.7535  0.2910  0.1369
 2768TIP3    H132499   5.211   1.254   8.223  0.2871 -2.4552 -0.0219
 2768TIP3    H232500   5.060   1.270   8.217  0.5528  1.1486  0.4010
 2769TIP3   OH232501   0.404   4.830   6.722 -0.2563  0.1619 -0.4134
 2769TIP3    H132502   0.318   4.847   6.760 -0.4041  0.7189 -0.9723
 2769TIP3    H232503   0.439   4.758   6.773 -1.1115 -0.1581 -0.2569
 2770TIP3   OH232504   7.636   4.286   7.428  1.1004  0.0175 -0.1573
 2770TIP3    H132505   7.594   4.269   7.344  1.6386 -1.9689 -0.0860
 2770TIP3    H232506   7.594   4.224   7.488  0.4586  1.6443  1.1668
 2771TIP3   OH232507   6.226   6.043   8.740  0.0344  0.3426  0.2228
 2771TIP3    H132508   6.157   6.064   8.677 -0.2123  1.2911  0.7797
 2771TIP3    H232509   6.248   6.128   8.780  1.3538  0.0245  0.2265
 2772TIP3   OH232510   1.396   4.964   8.501  0.3624 -0.5157 -0.1120
 2772TIP3    H132511   1.315   5.002   8.466 -0.2563  0.4751  2.2191
 2772TIP3    H232512   1.466   5.016   8.462 -0.2401  0.0087 -0.5205
 2773TIP3   OH232513   1.118   2.505   8.465 -0.0169  0.0765 -0.3138
 2773TIP3    H132514   1.168   2.555   8.401 -0.7687  1.4863  0.1542
 2773TIP3    H232515   1.129   2.553   8.547 -2.3700  0.6439 -0.2578
 2774TIP3   OH232516   1.204   2.244   8.790  0.1784 -0.5899  0.1909
 2774TIP3    H132517   1.296   2.220   8.787 -0.0121 -1.3098 -1.6548
 2774TIP3    H232518   1.203   2.338   8.772  0.5998 -0.3396  1.4103
 2775TIP3   OH232519   1.445   2.640   9.872  0.4925  0.4640 -0.1629
 2775TIP3    H132520   1.430   2.556   9.916 -1.0062 -0.6076 -2.5243
 2775TIP3    H232521   1.497   2.617   9.794  0.5549  1.8244 -0.5508
 2776TIP3   OH232522   2.369   6.424   8.924  0.3822  0.3241 -0.2926
 2776TIP3    H132523   2.433   6.363   8.887 -0.8683  0.0328 -2.0958
 2776TIP3    H232524   2.297   6.369   8.954 -1.0266  0.8649 -2.4721
 2777TIP3   OH232525   6.296   5.585   8.230 -0.6671 -0.3072 -0.2204
 2777TIP3    H132526   6.315   5.493   8.246 -1.2311 -0.6350 -1.3859
 2777TIP3    H232527   6.241   5.586   8.152 -3.1914  0.8011  1.4653
 2778TIP3   OH232528   1.628   5.395   7.488 -0.0399 -0.0855 -0.0364
 2778TIP3    H132529   1.585   5.346   7.418 -0.4389 -0.2472  0.3151
 2778TIP3    H232530   1.606   5.487   7.470 -0.1032 -0.1238 -0.1526
 2779TIP3   OH232531   2.264   1.535   8.758  0.5780  0.0545  0.4885
 2779TIP3    H132532   2.347   1.487   8.760 -0.0116 -1.0109  0.3952
 2779TIP3    H232533   2.204   1.477   8.711  0.3130  1.7107 -1.3463
 2780TIP3   OH232534   7.154   4.846   7.577 -0.4255 -0.3314  0.0308
 2780TIP3    H132535   7.224   4.868   7.516 -0.7163  0.6323  0.0298
 2780TIP3    H232536   7.173   4.898   7.655 -0.8636 -0.4349  0.2088
 2781TIP3   OH232537   6.656   4.803   9.361 -0.0807  0.1768 -0.0241
 2781TIP3    H132538   6.688   4.714   9.345  0.1035  0.4298 -1.2044
 2781TIP3    H232539   6.583   4.813   9.300 -1.0584  0.3463  1.1435
 2782TIP3   OH232540   7.637   6.464   8.128  0.3462  0.2306 -0.3404
 2782TIP3    H132541   7.578   6.454   8.053  0.8972 -1.0672 -0.6253
 2782TIP3    H232542   7.618   6.388   8.184  0.1932  0.9957  0.6860
 2783TIP3   OH232543   0.495   3.097   9.171  0.4201  0.5173 -0.5125
 2783TIP3    H132544   0.401   3.084   9.184  0.4637  0.1711 -0.5376
 2783TIP3    H232545   0.512   3.184   9.207  0.1968  0.3439  0.0130
 2784TIP3   OH232546   0.031   0.393   7.789 -0.4842  0.0866  0.0802
 2784TIP3    H132547   0.032   0.446   7.710 -0.3174  0.7269  0.5022
 2784TIP3    H232548   0.023   0.303   7.758  0.7657  0.2246 -0.7256
 2785TIP3   OH232549   2.041   6.160   7.328 -0.7234 -0.1718  0.0855
 2785TIP3    H132550   2.028   6.077   7.282 -0.7273  0.3788 -0.9436
 2785TIP3    H232551   1.954   6.199   7.332 -0.6232  0.0571  0.0322
 2786TIP3   OH232552   3.343   3.581   7.792 -0.3530  0.0742 -0.4349
 2786TIP3    H132553   3.434   3.552   7.799 -0.8012 -2.0733 -2.2704
 2786TIP3    H232554   3.345   3.653   7.728  0.0976  0.3534 -0.1094
 2787TIP3   OH232555   7.580   6.630   7.008  0.1902 -0.0003 -0.0776
 2787TIP3    H132556   7.654   6.687   6.989  0.4612 -0.6885 -1.2405
 2787TIP3    H232557   7.550   6.601   6.922 -0.7281 -0.6146  0.4305
 2788TIP3   OH232558   3.353   1.539   7.533  0.1565 -0.0954 -0.4529
 2788TIP3    H132559   3.435   1.500   7.563  1.5762  1.6183 -1.9190
 2788TIP3    H232560   3.342   1.505   7.444 -1.2260 -0.9810  0.0216
 2789TIP3   OH232561   6.375   1.381   7.816  0.1658  0.0467 -0.0333
 2789TIP3    H132562   6.301   1.438   7.793  1.0564  0.7440 -1.2946
 2789TIP3    H232563   6.445   1.441   7.839  0.6608 -0.5782  0.1095
 2790TIP3   OH232564   2.417   0.956   9.479 -0.0696 -0.2684  0.1135
 2790TIP3    H132565   2.356   1.029   9.484 -0.2537 -0.1267 -2.5682
 2790TIP3    H232566   2.362   0.880   9.460  0.4820 -0.0539 -2.8704
 2791TIP3   OH232567   3.743   2.137   8.839  0.4982 -0.0011  0.0649
 2791TIP3    H132568   3.671   2.199   8.851  1.0891  0.4459  1.6254
 2791TIP3    H232569   3.822   2.187   8.860  1.4302 -0.1841 -2.6315
 2792TIP3   OH232570   3.718   4.128   8.624  0.2958 -0.0570  0.0878
 2792TIP3    H132571   3.812   4.141   8.641  0.0459  1.4882  0.4943
 2792TIP3    H232572   3.681   4.111   8.710  0.0565  0.5276  0.1091
 2793TIP3   OH232573   6.688   4.118   7.559 -0.6334  0.0537 -0.1488
 2793TIP3    H132574   6.608   4.091   7.515 -0.5261 -0.1524 -0.2206
 2793TIP3    H232575   6.716   4.041   7.608 -1.0187  0.4360  0.6869
 2794TIP3   OH232576   6.006   7.102   8.313  0.5221  0.0293 -0.8693
 2794TIP3    H132577   6.081   7.102   8.254 -0.1225  1.0507 -1.7138
 2794TIP3    H232578   5.940   7.049   8.269  0.3797 -0.0206 -0.6016
 2795TIP3   OH232579   7.201   0.837   7.970 -0.1117 -0.6777 -0.2743
 2795TIP3    H132580   7.170   0.918   8.009 -1.8478 -0.2826 -2.2816
 2795TIP3    H232581   7.195   0.772   8.040  1.7220  0.9368  1.5072
 2796TIP3   OH232582   7.388   3.969   9.203 -0.7982 -0.2481  0.4740
 2796TIP3    H132583   7.455   4.027   9.240 -0.7938  0.9172 -1.2434
 2796TIP3    H232584   7.438   3.900   9.159 -0.7574 -0.1722  0.4017
 2797TIP3   OH232585   5.202   2.105   9.813 -0.1403 -0.2494  0.5919
 2797TIP3    H132586   5.240   2.023   9.781  0.1211  0.2230 -0.3499
 2797TIP3    H232587   5.172   2.084   9.901  0.2399 -1.2626  0.5020
 2798TIP3   OH232588   4.323   1.405   8.165 -0.4014 -0.4522  0.4970
 2798TIP3    H132589   4.419   1.405   8.160 -0.4497  0.3644 -1.2178
 2798TIP3    H232590   4.300   1.498   8.169 -1.1874 -0.3936 -2.7514
 2799TIP3   OH232591   0.760   4.237   7.401 -0.2886 -0.4498  0.0406
 2799TIP3    H132592   0.798   4.242   7.313 -1.8528 -0.4909 -0.6579
 2799TIP3    H232593   0.712   4.154   7.402 -0.4665 -0.3456  0.8648
 2800TIP3   OH232594   3.157   6.818   8.947 -0.9889 -0.1449 -0.0787
 2800TIP3    H132595   3.168   6.725   8.925 -0.4519  0.3255 -1.9977
 2800TIP3    H232596   3.066   6.837   8.926 -1.0975 -0.2320  0.3096
 2801TIP3   OH232597   1.419   6.900   7.161 -0.3711  0.2730  0.1852
 2801TIP3    H132598   1.356   6.837   7.196 -0.2294 -0.6716 -1.1802
 2801TIP3    H232599   1.450   6.860   7.080  1.4830  1.0219  0.4670
 2802TIP3   OH232600   4.288   4.249   8.232 -0.0434 -0.3978 -0.2330
 2802TIP3    H132601   4.270   4.171   8.284  0.9235 -0.4788 -0.0061
 2802TIP3    H232602   4.384   4.257   8.233 -0.0877  0.2987 -0.9731
 2803TIP3   OH232603   4.868   0.966   8.113 -0.4792 -0.2503  0.0676
 2803TIP3    H132604   4.809   1.037   8.086 -1.2553 -0.5545  0.8965
 2803TIP3    H232605   4.867   0.905   8.040 -0.6171  0.0984 -0.2279
 2804TIP3   OH232606   2.059   0.273   9.195  0.4279  0.0289 -0.1024
 2804TIP3    H132607   2.037   0.330   9.268  1.6306  0.7599 -0.2793
 2804TIP3    H232608   2.088   0.333   9.126 -0.5096 -0.6547 -1.1235
 2805TIP3   OH232609   1.803   2.724   9.609 -0.1773 -0.1369  0.3807
 2805TIP3    H132610   1.850   2.650   9.572  1.5453  0.4322  1.2748
 2805TIP3    H232611   1.786   2.782   9.535  0.5736 -0.3571  0.0294
 2806TIP3   OH232612   3.887   4.442   7.529  0.3682  1.0105 -0.3113
 2806TIP3    H132613   3.884   4.380   7.456 -1.9183 -2.0515  2.1339
 2806TIP3    H232614   3.970   4.424   7.573  1.1969  2.0430 -1.3744
 2807TIP3   OH232615   6.067   2.807   9.113  0.5497 -0.0814  0.1192
 2807TIP3    H132616   6.122   2.878   9.144 -1.1474  1.5398 -0.4275
 2807TIP3    H232617   5.997   2.800   9.178  0.1840 -0.6319 -0.3196
 2808TIP3   OH232618   2.680   6.255   7.704 -0.0770 -0.2222  0.1646
 2808TIP3    H132619   2.755   6.211   7.746  1.0687  3.2695  2.2718
 2808TIP3    H232620   2.705   6.261   7.612  1.6159 -0.3971  0.5646
 2809TIP3   OH232621   6.822   1.961   8.405 -0.0133  0.1313  0.3653
 2809TIP3    H132622   6.779   1.929   8.484  2.1965  1.3876  2.2214
 2809TIP3    H232623   6.869   1.885   8.371 -0.1544 -0.1804  0.8600
 2810TIP3   OH232624   0.249   0.997   9.538  0.3101 -0.4239 -0.1312
 2810TIP3    H132625   0.229   0.918   9.487 -0.4179  0.0956 -0.6705
 2810TIP3    H232626   0.181   1.059   9.514  0.9684  0.4348  0.1645
 2811TIP3   OH232627   3.500   2.981   8.280 -0.0063  0.3335  0.1859
 2811TIP3    H132628   3.424   3.032   8.252  1.1009  1.7261 -0.4180
 2811TIP3    H232629   3.522   2.927   8.205  0.3258  0.8294 -0.0765
 2812TIP3   OH232630   6.957   7.327   7.774 -0.3595 -0.5110 -0.0604
 2812TIP3    H132631   6.900   7.385   7.825  1.0683 -0.1112  1.1594
 2812TIP3    H232632   6.918   7.325   7.687 -2.2173 -0.2595  0.7211
 2813TIP3   OH232633   6.957   0.866   8.296  0.0022  0.4440 -0.3839
 2813TIP3    H132634   6.971   0.844   8.388 -1.2816  0.6753 -0.1058
 2813TIP3    H232635   6.964   0.961   8.292  2.3292  0.3081 -0.9841
 2814TIP3   OH232636   4.857   1.134   9.642 -0.2445  0.2889 -0.3527
 2814TIP3    H132637   4.831   1.139   9.734 -0.9643  0.1991 -0.5419
 2814TIP3    H232638   4.776   1.153   9.593  0.6665  3.1558 -0.9761
 2815TIP3   OH232639   6.896   1.315   7.047  0.3769  0.5080 -0.0726
 2815TIP3    H132640   6.805   1.344   7.035  0.6230  1.2186 -0.2882
 2815TIP3    H232641   6.921   1.280   6.961  0.3376  0.3995 -0.0401
 2816TIP3   OH232642   3.205   3.357   9.410  0.5866 -0.3110  0.7144
 2816TIP3    H132643   3.245   3.278   9.373  0.5884  0.4065 -0.8689
 2816TIP3    H232644   3.272   3.424   9.402 -1.0963  1.1869 -2.9491
 2817TIP3   OH232645   0.693   7.028   9.243 -0.3049 -0.9854  0.1298
 2817TIP3    H132646   0.786   7.012   9.260 -0.0744  0.5993  0.6077
 2817TIP3    H232647   0.648   6.952   9.278  0.7658 -1.4303  0.5792
 2818TIP3   OH232648   5.048   3.613   9.531 -0.1601  0.1473  0.0193
 2818TIP3    H132649   5.133   3.593   9.571  0.1776 -0.4714 -0.9476
 2818TIP3    H232650   5.025   3.533   9.484 -0.6799  0.7346 -0.7469
 2819TIP3   OH232651   4.598   5.436   9.178 -0.5960 -0.0782 -0.2343
 2819TIP3    H132652   4.658   5.484   9.122  0.5927 -1.0898  0.1294
 2819TIP3    H232653   4.652   5.401   9.248 -1.0809 -3.0759 -1.1971
 2820TIP3   OH232654   3.260   3.044   8.871 -0.3743 -0.1246 -0.0035
 2820TIP3    H132655   3.183   3.079   8.916 -0.3774 -0.3627  0.1786
 2820TIP3    H232656   3.252   2.949   8.880  0.5940 -0.1258  1.1442
 2821TIP3   OH232657   2.165   3.258   9.752  0.3918 -0.3819 -0.0485
 2821TIP3    H132658   2.192   3.347   9.775 -0.6733  0.2600 -1.1542
 2821TIP3    H232659   2.230   3.202   9.794  0.5576  0.8579  1.4662
 2822TIP3   OH232660   2.155   2.113   8.473 -0.5124  0.2647 -0.0314
 2822TIP3    H132661   2.168   2.208   8.463  0.1539  0.2646  0.7344
 2822TIP3    H232662   2.219   2.074   8.414  0.0649  0.2922  0.5663
 2823TIP3   OH232663   3.964   3.608   8.350  0.3486 -0.1613  0.0791
 2823TIP3    H132664   3.896   3.554   8.309 -0.8033  1.0864  0.2780
 2823TIP3    H232665   4.010   3.547   8.409 -0.9208 -0.9235  0.3204
 2824TIP3   OH232666   1.710   5.497   8.536 -0.0359  0.7394 -0.2469
 2824TIP3    H132667   1.645   5.456   8.592 -0.5366 -1.1092 -2.0580
 2824TIP3    H232668   1.690   5.591   8.541  0.0561  0.6703  2.6904
 2825TIP3   OH232669   4.806   7.580   9.239  0.5417 -0.2590  0.0705
 2825TIP3    H132670   4.868   7.647   9.211 -0.5795  0.3176 -1.1611
 2825TIP3    H232671   4.739   7.579   9.171  0.8651 -3.1566 -0.3221
 2826TIP3   OH232672   6.868   1.128   8.999  0.0947 -0.4479 -0.9658
 2826TIP3    H132673   6.819   1.190   8.945  1.4235  0.2087 -1.4488
 2826TIP3    H232674   6.908   1.182   9.067 -1.4361 -1.2371  0.6503
 2827TIP3   OH232675   3.468   0.754   8.811  0.1319 -0.0558 -0.3963
 2827TIP3    H132676   3.563   0.752   8.818  0.1895  1.2849 -0.4562
 2827TIP3    H232677   3.451   0.796   8.727 -0.4931  1.2156  0.3363
 2828TIP3   OH232678   1.813   5.749   8.317  0.4143  0.2654 -0.2646
 2828TIP3    H132679   1.886   5.801   8.284  0.7598  0.6161  0.9989
 2828TIP3    H232680   1.853   5.681   8.370 -0.1915  1.2502  1.5398
 2829TIP3   OH232681   7.282   5.962   8.268  0.0321 -0.0756 -0.6330
 2829TIP3    H132682   7.234   5.895   8.316  1.3494 -1.2277 -0.8593
 2829TIP3    H232683   7.359   5.980   8.321  1.1405 -0.8433 -1.9007
 2830TIP3   OH232684   6.575   2.303   7.054  0.6579 -0.3539  0.3862
 2830TIP3    H132685   6.615   2.267   7.134 -0.5031  0.8785  1.5785
 2830TIP3    H232686   6.636   2.372   7.026 -0.6781  1.8464  2.4647
 2831TIP3   OH232687   2.635   6.800   8.836 -0.5571  0.2126 -0.2212
 2831TIP3    H132688   2.559   6.748   8.809 -0.6061 -0.0105  0.3350
 2831TIP3    H232689   2.600   6.866   8.895 -0.4471  0.6872 -0.6840
 2832TIP3   OH232690   2.869   0.372   9.008  0.0645 -0.6356  0.1721
 2832TIP3    H132691   2.932   0.444   9.001  0.7092 -1.0920  1.0191
 2832TIP3    H232692   2.919   0.294   8.984  0.3655 -1.2441  2.5109
 2833TIP3   OH232693   2.457   5.124   8.472 -0.0681 -0.0478  0.6398
 2833TIP3    H132694   2.363   5.138   8.458 -0.2418 -1.0913  0.6781
 2833TIP3    H232695   2.463   5.035   8.507  1.0529 -0.6172 -0.8829
 2834TIP3   OH232696   1.436   1.828   7.327  0.7873 -0.2195  0.3872
 2834TIP3    H132697   1.366   1.789   7.276  1.9880 -1.0558 -0.6779
 2834TIP3    H232698   1.416   1.922   7.328 -0.3427 -0.4435  0.1372
 2835TIP3   OH232699   3.880   7.002   9.206 -0.2952  0.2587  0.6146
 2835TIP3    H132700   3.892   6.915   9.243  0.3206 -0.5100 -1.2777
 2835TIP3    H232701   3.824   6.989   9.131  0.7571  1.2866 -0.3973
 2836TIP3   OH232702   1.387   2.275   9.698 -0.1324  0.4917  0.0318
 2836TIP3    H132703   1.477   2.248   9.682 -0.6464 -1.8801  0.7375
 2836TIP3    H232704   1.350   2.288   9.610  0.9872  1.9259 -0.2489
 2837TIP3   OH232705   1.383   6.815   8.703  0.0515 -0.2518 -0.0616
 2837TIP3    H132706   1.357   6.902   8.734  0.9531  0.1930 -0.5202
 2837TIP3    H232707   1.301   6.766   8.700 -0.4127  0.4451  0.6097
 2838TIP3   OH232708   7.384   6.445   9.066 -0.3511  0.1459 -0.3799
 2838TIP3    H132709   7.389   6.378   8.999  0.5668 -1.3326  1.0880
 2838TIP3    H232710   7.308   6.421   9.120  0.1704  0.0736  0.3435
 2839TIP3   OH232711   1.428   3.096   8.565  0.1932 -0.2550  0.5910
 2839TIP3    H132712   1.410   3.144   8.646 -3.5058  0.3879 -0.4301
 2839TIP3    H232713   1.418   3.162   8.495  0.3603 -1.4047 -0.5555
 2840TIP3   OH232714   4.849   4.848   9.015 -0.1078  0.4281 -0.1813
 2840TIP3    H132715   4.925   4.896   8.982  0.6966 -0.6556 -0.0106
 2840TIP3    H232716   4.774   4.901   8.991  0.8039  2.5889  1.4248
 2841TIP3   OH232717   4.564   0.295   7.408 -0.0425  0.1464 -0.6402
 2841TIP3    H132718   4.572   0.344   7.490  0.7960 -1.8281  0.5204
 2841TIP3    H232719   4.472   0.269   7.405 -0.2091  0.7249 -0.6288
 2842TIP3   OH232720   6.179   3.651   8.190  0.5653  0.4823  0.1072
 2842TIP3    H132721   6.087   3.638   8.212  0.1559  0.6592 -1.4186
 2842TIP3    H232722   6.226   3.620   8.268 -0.7287 -0.6948  0.4801
 2843TIP3   OH232723   7.414   4.866   8.926 -0.0272 -0.1715  0.9267
 2843TIP3    H132724   7.325   4.890   8.897  0.4398  0.3925 -0.1061
 2843TIP3    H232725   7.409   4.773   8.945 -0.7096 -0.2647  0.3317
 2844TIP3   OH232726   4.349   1.064   8.087  0.2894 -1.3222 -0.1719
 2844TIP3    H132727   4.313   0.980   8.059  1.1439 -2.5568  2.1318
 2844TIP3    H232728   4.273   1.114   8.117 -0.1897 -1.3754 -1.2730
 2845TIP3   OH232729   2.951   3.304   9.294  0.3295 -0.0300 -0.1462
 2845TIP3    H132730   2.960   3.300   9.390  0.0047  1.4462 -0.0247
 2845TIP3    H232731   3.020   3.364   9.266 -1.1960  1.6799 -0.5105
 2846TIP3   OH232732   0.555   4.634   8.540  0.3551 -0.0090  0.4714
 2846TIP3    H132733   0.580   4.672   8.456  2.1975 -0.0910  0.9389
 2846TIP3    H232734   0.548   4.540   8.522 -0.4581  0.1012  0.1612
 2847TIP3   OH232735   7.098   2.110   8.414  0.1688  0.2205  0.1440
 2847TIP3    H132736   7.140   2.127   8.329  1.9733  0.7548  1.0937
 2847TIP3    H232737   7.150   2.161   8.477 -1.0933 -0.2072  1.5885
 2848TIP3   OH232738   2.289   0.107   7.580 -0.4366  0.1694  0.0771
 2848TIP3    H132739   2.281   0.053   7.502 -0.4545  0.2918 -0.0075
 2848TIP3    H232740   2.317   0.193   7.547 -1.2609  0.4659  0.1120
 2849TIP3   OH232741   5.112   3.496   7.356 -0.2189 -0.1321  0.4618
 2849TIP3    H132742   5.090   3.484   7.263  1.7542 -0.0480 -0.0592
 2849TIP3    H232743   5.170   3.572   7.357  0.2448 -0.4863  1.6957
 2850TIP3   OH232744   4.141   7.127   8.928  0.4741 -0.0750  0.5013
 2850TIP3    H132745   4.112   7.217   8.914  0.6790 -0.1033 -0.1437
 2850TIP3    H232746   4.166   7.124   9.020  1.2986  0.7719  0.3268
 2851TIP3   OH232747   7.571   7.626   7.496  0.2066 -0.0986 -0.1564
 2851TIP3    H132748   7.489   7.579   7.509 -0.2108  0.5387 -0.4830
 2851TIP3    H232749   7.548   7.701   7.442  1.0022  0.0927 -0.2434
 2852TIP3   OH232750   5.308   0.115   7.166 -0.5931  0.3156 -0.2099
 2852TIP3    H132751   5.252   0.132   7.090 -0.0979 -1.7689 -1.1182
 2852TIP3    H232752   5.381   0.175   7.157  0.3929 -1.0753 -2.4661
 2853TIP3   OH232753   4.726   4.012   9.336 -0.0308 -0.6737  0.1077
 2853TIP3    H132754   4.732   3.984   9.245 -0.6212 -1.3845  0.2779
 2853TIP3    H232755   4.816   4.013   9.367  0.0401 -2.1369  0.0097
 2854TIP3   OH232756   4.275   2.290   9.564  0.0477  0.4844  0.1082
 2854TIP3    H132757   4.211   2.221   9.547 -0.4173  0.3972  2.0047
 2854TIP3    H232758   4.232   2.371   9.537 -0.2178  0.2550 -0.1664
 2855TIP3   OH232759   0.889   4.843   7.226 -0.2661 -0.0133 -0.3430
 2855TIP3    H132760   0.882   4.749   7.246 -1.5927 -0.2742 -1.8343
 2855TIP3    H232761   0.983   4.859   7.222 -0.0107 -1.3541 -0.3745
 2856TIP3   OH232762   2.657   3.075   9.550  0.2449  0.1929  0.1203
 2856TIP3    H132763   2.629   3.010   9.486 -1.3950  0.0146  0.9599
 2856TIP3    H232764   2.635   3.159   9.510  1.9931  0.2487 -0.7932
 2857TIP3   OH232765   1.603   3.505   7.539  0.0296 -0.2724  0.1587
 2857TIP3    H132766   1.525   3.547   7.576 -1.3640 -1.0000 -1.7408
 2857TIP3    H232767   1.568   3.440   7.478  2.1177 -2.8843  1.5344
 2858TIP3   OH232768   4.273   5.924   7.750  0.3070  0.4740  0.0490
 2858TIP3    H132769   4.195   5.894   7.703  1.4679 -4.4856  0.6963
 2858TIP3    H232770   4.346   5.888   7.700  1.9528  1.2373  1.7745
 2859TIP3   OH232771   2.614   4.030   7.920 -0.1362 -0.5812 -0.5764
 2859TIP3    H132772   2.621   4.125   7.914 -0.3266 -0.5909 -0.9878
 2859TIP3    H232773   2.520   4.013   7.923 -0.0810 -0.6932  0.6496
 2860TIP3   OH232774   0.950   2.131   7.884  0.9228  0.5268 -0.1243
 2860TIP3    H132775   0.882   2.073   7.849  2.0528 -0.5191 -0.6696
 2860TIP3    H232776   0.955   2.203   7.821 -0.3397  1.1193  0.4386
 2861TIP3   OH232777   6.120   3.436   8.567 -0.1629  0.0610 -0.3545
 2861TIP3    H132778   6.037   3.408   8.529  0.3986  0.5215 -1.9911
 2861TIP3    H232779   6.097   3.471   8.653 -1.4786 -0.9971 -0.2477
 2862TIP3   OH232780   7.169   1.275   7.091  0.0575  0.4184  0.0353
 2862TIP3    H132781   7.076   1.276   7.071  0.5872 -0.7516 -2.8917
 2862TIP3    H232782   7.186   1.186   7.123  0.1254  0.7713  1.0222
 2863TIP3   OH232783   3.881   3.112   7.515 -0.0626  0.0836 -0.5857
 2863TIP3    H132784   3.832   3.056   7.455 -1.9993  0.0810  0.8964
 2863TIP3    H232785   3.914   3.182   7.459  0.1440 -1.1025 -2.0191
 2864TIP3   OH232786   1.830   7.629   7.856 -0.0740 -0.2886  0.7619
 2864TIP3    H132787   1.896   7.684   7.814  1.3755  0.0207  3.2061
 2864TIP3    H232788   1.747   7.653   7.814  1.2774 -0.6416 -2.3761
 2865TIP3   OH232789   0.048   2.952   8.199  0.1409 -0.6483  0.6845
 2865TIP3    H132790   0.101   3.028   8.176 -0.2389 -0.8664 -1.0266
 2865TIP3    H232791   0.089   2.918   8.278  1.0104  0.6485  0.8348
 2866TIP3   OH232792   4.829   2.195   7.650 -0.0522  0.6061  0.1830
 2866TIP3    H132793   4.762   2.224   7.711 -2.0185 -0.3186 -1.4088
 2866TIP3    H232794   4.837   2.267   7.587 -0.4594  0.2332 -0.3071
 2867TIP3   OH232795   3.395   0.269   9.249  0.7447  0.3080  0.0433
 2867TIP3    H132796   3.430   0.354   9.223 -1.4863  0.6903 -1.9789
 2867TIP3    H232797   3.464   0.206   9.225  2.0643  1.4065  0.8045
 2868TIP3   OH232798   3.107   3.319   7.253 -0.4986  0.4066  0.0394
 2868TIP3    H132799   3.063   3.340   7.170 -0.3574  1.7843  0.3054
 2868TIP3    H232800   3.062   3.372   7.318 -0.5083 -0.5587  0.8485
 2869TIP3   OH232801   6.150   1.445   8.546 -0.1600  0.2499  0.1144
 2869TIP3    H132802   6.112   1.359   8.565  0.0051  0.2854  0.6002
 2869TIP3    H232803   6.187   1.435   8.458  0.9380 -0.5427  0.6422
 2870TIP3   OH232804   1.121   0.021   6.809  0.5949 -0.3706 -0.5179
 2870TIP3    H132805   1.041   0.062   6.778  0.6337 -0.3671 -0.6136
 2870TIP3    H232806   1.191   0.073   6.770  0.6460 -0.0209  0.0281
 2871TIP3   OH232807   4.621   0.208   9.288  0.1698  0.3149 -0.0858
 2871TIP3    H132808   4.596   0.276   9.350  1.1036  0.6933 -0.1137
 2871TIP3    H232809   4.716   0.211   9.284  0.1726 -0.2408 -0.9367
 2872TIP3   OH232810   0.606   5.330   9.160  0.3335 -0.3301 -0.3238
 2872TIP3    H132811   0.584   5.401   9.100  1.5245  0.5567  0.2466
 2872TIP3    H232812   0.675   5.366   9.216 -0.2007 -1.3788  1.0844
 2873TIP3   OH232813   3.283   5.480   7.370 -0.2573  0.2887 -0.0924
 2873TIP3    H132814   3.362   5.527   7.399  0.2358  0.4234 -1.5524
 2873TIP3    H232815   3.283   5.400   7.422 -0.7848  1.5790  2.0130
 2874TIP3   OH232816   3.116   1.830   9.153  0.3539 -0.0249 -0.5020
 2874TIP3    H132817   3.177   1.768   9.114  0.4938  0.1408 -0.5454
 2874TIP3    H232818   3.030   1.803   9.120  0.0346 -1.9196  1.6195
 2875TIP3   OH232819   1.092   6.445   7.504  0.3823  0.5207 -0.4165
 2875TIP3    H132820   1.157   6.434   7.434  2.0668  1.6164  0.8972
 2875TIP3    H232821   1.060   6.534   7.492 -1.9562 -0.4044 -1.8350
 2876TIP3   OH232822   3.941   1.541   9.030 -0.3085 -0.1982 -0.2125
 2876TIP3    H132823   3.874   1.595   8.989  0.2423  0.8374  0.1912
 2876TIP3    H232824   3.906   1.452   9.028 -1.9316  0.3944  0.4787
 2877TIP3   OH232825   1.677   4.149   9.449 -0.1409  0.2952 -0.6928
 2877TIP3    H132826   1.643   4.134   9.361  0.0084 -1.1623 -0.5204
 2877TIP3    H232827   1.772   4.150   9.439 -0.1345  0.6670 -0.6192
 2878TIP3   OH232828   3.469   6.370   7.498 -0.2357 -0.2774  0.0786
 2878TIP3    H132829   3.562   6.355   7.480  0.9191  3.2406  2.1011
 2878TIP3    H232830   3.431   6.391   7.413  1.2234 -0.0869 -0.5592
 2879TIP3   OH232831   5.960   5.176   8.911  0.8863 -0.3444 -0.2064
 2879TIP3    H132832   6.030   5.242   8.909 -0.2020  0.9414  1.3343
 2879TIP3    H232833   5.887   5.217   8.863  0.0154 -0.1330  1.2288
 2880TIP3   OH232834   7.087   1.049   8.809  0.3214 -0.2316 -0.3402
 2880TIP3    H132835   7.048   1.108   8.873  2.0179  1.6747 -0.9368
 2880TIP3    H232836   7.045   0.965   8.824  0.8491  0.0257  3.4870
 2881TIP3   OH232837   0.172   4.793   8.669  0.0416  0.4886 -0.3054
 2881TIP3    H132838   0.259   4.828   8.685  0.1997  0.1817 -0.4936
 2881TIP3    H232839   0.119   4.869   8.645 -0.4229  1.1493  2.4545
 2882TIP3   OH232840   7.133   2.519   9.109 -0.1281  0.0048  0.5062
 2882TIP3    H132841   7.182   2.591   9.149  0.1152  0.2731 -0.2664
 2882TIP3    H232842   7.096   2.471   9.184  0.6821  0.2405  1.0720
 2883TIP3   OH232843   4.485   0.377   6.821 -0.1644 -0.3376  0.0200
 2883TIP3    H132844   4.546   0.402   6.751 -0.8224 -1.3646 -0.9674
 2883TIP3    H232845   4.541   0.338   6.888  0.3503 -0.7645 -0.6299
 2884TIP3   OH232846   1.525   2.959   7.371  0.0237 -0.3376  0.2741
 2884TIP3    H132847   1.570   2.878   7.395 -1.3252 -1.2291 -0.0652
 2884TIP3    H232848   1.570   2.988   7.291  1.3383 -0.0315  1.0986
 2885TIP3   OH232849   4.559   7.414   7.678 -0.2588 -0.2430  0.2817
 2885TIP3    H132850   4.551   7.452   7.591  0.7873  0.7623  0.5982
 2885TIP3    H232851   4.654   7.408   7.693 -0.4181  0.1759  1.5819
 2886TIP3   OH232852   7.373   0.014   8.875  0.5166  0.3538  0.2569
 2886TIP3    H132853   7.378  -0.009   8.967  2.5838  1.2218  0.4225
 2886TIP3    H232854   7.350  -0.068   8.830  0.7576 -0.3667  1.4165
 2887TIP3   OH232855   5.093   1.330   7.519  0.0716  0.2559 -0.2360
 2887TIP3    H132856   5.162   1.265   7.503  0.4204  0.8861 -1.3883
 2887TIP3    H232857   5.125   1.381   7.593 -0.0909 -0.7162  0.5242
 2888TIP3   OH232858   1.641   2.657   8.732  0.0168  0.5641  0.3309
 2888TIP3    H132859   1.562   2.610   8.705  1.0402 -0.9027 -0.2077
 2888TIP3    H232860   1.713   2.612   8.689  1.2434  1.3982  1.3991
 2889TIP3   OH232861   4.892   0.283   9.270  0.0112 -0.0868 -0.0394
 2889TIP3    H132862   4.884   0.377   9.256 -0.1951 -0.0140  0.5150
 2889TIP3    H232863   4.929   0.276   9.358  1.6529 -0.4973 -0.7284
 2890TIP3   OH232864   3.037   4.825   7.706  0.2983  0.3686 -0.7817
 2890TIP3    H132865   3.128   4.796   7.711  0.4530  0.4812 -2.3135
 2890TIP3    H232866   3.002   4.813   7.794  1.8654  0.5702 -0.1088
 2891TIP3   OH232867   6.505   0.658   8.940 -0.0976 -0.0345 -0.0387
 2891TIP3    H132868   6.449   0.715   8.992  1.4128  0.3725  1.2253
 2891TIP3    H232869   6.590   0.703   8.938  0.6979 -1.4801 -0.3206
 2892TIP3   OH232870   7.164   0.557   9.437 -0.0894 -0.1379  0.0072
 2892TIP3    H132871   7.095   0.526   9.495  0.5643 -0.6575  0.5339
 2892TIP3    H232872   7.129   0.635   9.396 -1.0014 -0.4228  0.2330
 2893TIP3   OH232873   2.804   1.697   8.452 -0.0725 -0.1314 -0.7564
 2893TIP3    H132874   2.835   1.786   8.433 -0.9135 -0.0202 -1.6715
 2893TIP3    H232875   2.841   1.677   8.538  0.4455  0.9572 -0.7077
 2894TIP3   OH232876   2.237   3.703   7.606  0.4528 -1.0453  0.1623
 2894TIP3    H132877   2.240   3.730   7.514 -1.7023  2.0436  0.8412
 2894TIP3    H232878   2.144   3.692   7.625  0.7888 -0.8088  2.1677
 2895TIP3   OH232879   0.033   0.944   7.481  0.5349 -0.2023 -0.4670
 2895TIP3    H132880  -0.005   1.032   7.482  0.1964 -0.3372  1.0574
 2895TIP3    H232881   0.043   0.921   7.573 -0.9800 -2.4509 -0.7912
 2896TIP3   OH232882   2.708   4.497   9.156  0.0554  0.5654 -0.7762
 2896TIP3    H132883   2.642   4.559   9.186  0.3796 -0.1538  1.5971
 2896TIP3    H232884   2.786   4.518   9.207  0.3208 -1.4631 -0.2682
 2897TIP3   OH232885   5.748   2.315   7.258  0.1098 -0.3537 -0.0056
 2897TIP3    H132886   5.769   2.405   7.235 -0.6465 -0.1636  0.0082
 2897TIP3    H232887   5.742   2.269   7.174 -2.0570  0.2049 -0.2220
 2898TIP3   OH232888   7.645   6.194   7.902  0.0401  0.4639 -0.0992
 2898TIP3    H132889   7.556   6.223   7.923  0.1030  0.9937 -0.5610
 2898TIP3    H232890   7.634   6.138   7.824  0.0143 -0.1484  0.3339
 2899TIP3   OH232891   3.881   4.786   8.946  0.1790  0.2373  0.3305
 2899TIP3    H132892   3.951   4.766   8.885 -0.0162 -0.3276  0.2858
 2899TIP3    H232893   3.828   4.707   8.949  1.0816 -0.3706  2.4623
 2900TIP3   OH232894   3.777   2.247   6.992  0.5061 -0.1747  0.4294
 2900TIP3    H132895   3.855   2.271   7.043 -0.7939  0.3359  2.2618
 2900TIP3    H232896   3.773   2.152   6.999  0.5170 -0.1369  1.0623
 2901TIP3   OH232897   5.321   1.585   8.941  0.7109 -0.2735 -0.4576
 2901TIP3    H132898   5.333   1.641   9.018 -0.6446  0.4347 -0.7236
 2901TIP3    H232899   5.312   1.497   8.976 -2.4659  0.2999  0.5362
 2902TIP3   OH232900   5.570   7.020   7.336  0.2173  0.2993 -0.6608
 2902TIP3    H132901   5.552   6.942   7.284  1.2132 -1.6459  1.7317
 2902TIP3    H232902   5.483   7.056   7.355 -0.5409 -2.0866  0.7989
 2903TIP3   OH232903   7.071   2.700   8.757  0.1306 -0.1734 -0.1926
 2903TIP3    H132904   7.020   2.759   8.702  0.2201  1.9100  1.7917
 2903TIP3    H232905   7.135   2.757   8.800  1.0272 -1.9348  0.9152
 2904TIP3   OH232906   1.932   1.708   9.643 -0.1129  0.1915  0.3949
 2904TIP3    H132907   1.916   1.768   9.570  2.3092  0.3272 -0.0917
 2904TIP3    H232908   1.873   1.635   9.627 -0.2323  0.6072 -1.2365
 2905TIP3   OH232909   0.319   4.594   9.150  0.5207  0.4198 -0.2742
 2905TIP3    H132910   0.353   4.575   9.237  0.5466 -0.4766 -0.4671
 2905TIP3    H232911   0.381   4.552   9.090 -0.0994  0.0479 -0.6738
 2906TIP3   OH232912   6.645   3.851   7.153 -0.1063  0.3189 -0.3975
 2906TIP3    H132913   6.690   3.820   7.075 -1.7047 -0.5844 -1.0132
 2906TIP3    H232914   6.581   3.915   7.120 -1.1547 -0.4635  0.0795
 2907TIP3   OH232915   2.394   5.775   8.822  0.0332  0.3087 -0.5759
 2907TIP3    H132916   2.434   5.821   8.895 -0.4337  1.6063 -1.1114
 2907TIP3    H232917   2.366   5.691   8.859 -0.4394  1.0483  0.7987
 2908TIP3   OH232918   4.632   7.124   7.289 -0.2977 -0.5061  0.1107
 2908TIP3    H132919   4.542   7.111   7.318  0.0183 -2.2675  0.4116
 2908TIP3    H232920   4.645   7.058   7.221  1.5416 -2.1834  1.9379
 2909TIP3   OH232921   2.694   1.486   8.902 -0.5818 -0.1382 -1.0437
 2909TIP3    H132922   2.787   1.494   8.920 -0.2534 -0.4847 -2.5223
 2909TIP3    H232923   2.655   1.563   8.943  0.6924  1.4683 -2.7301
 2910TIP3   OH232924   5.458   5.573   8.119 -0.7594  0.1803 -0.3689
 2910TIP3    H132925   5.423   5.492   8.157  1.0817 -0.9681 -0.9947
 2910TIP3    H232926   5.399   5.641   8.151 -0.4718 -0.9288  2.9691
 2911TIP3   OH232927   3.033   4.308   9.565  0.2929  0.1769 -0.0255
 2911TIP3    H132928   3.094   4.316   9.491 -0.1001 -0.7273 -0.4724
 2911TIP3    H232929   3.089   4.288   9.640  0.5581 -0.6851 -0.4401
 2912TIP3   OH232930   4.612   6.933   7.573  0.1526  0.4060 -1.0127
 2912TIP3    H132931   4.672   6.945   7.499  0.5846  0.2172 -0.6995
 2912TIP3    H232932   4.666   6.952   7.650 -0.2714  0.5212 -0.7418
 2913TIP3   OH232933   2.265   6.502   6.889  0.5230  0.9741 -0.1651
 2913TIP3    H132934   2.319   6.484   6.966 -0.5351  0.3873  0.4652
 2913TIP3    H232935   2.315   6.466   6.816  0.9955  0.4472  0.3994
 2914TIP3   OH232936   6.950   2.494   8.910 -0.2476 -0.0050  0.4199
 2914TIP3    H132937   7.006   2.529   8.979 -0.9376  0.7026  0.6348
 2914TIP3    H232938   6.956   2.558   8.839  1.0536 -1.0940 -0.5088
 2915TIP3   OH232939   4.079   5.251   9.021  0.2568  0.3061 -0.1493
 2915TIP3    H132940   4.122   5.335   9.040  0.4325  0.3401 -0.6629
 2915TIP3    H232941   4.125   5.187   9.075 -0.1454  0.6005  0.5510
 2916TIP3   OH232942   2.699   7.039   7.681 -0.2983 -0.4660 -0.0105
 2916TIP3    H132943   2.769   7.081   7.631  1.6431 -0.3937  2.5551
 2916TIP3    H232944   2.656   7.110   7.728 -0.4028 -0.7851  0.3886
 2917TIP3   OH232945   0.441   6.243   6.796  0.1595  0.0237 -0.0054
 2917TIP3    H132946   0.473   6.290   6.719 -0.3529  1.0378  0.3709
 2917TIP3    H232947   0.351   6.275   6.807 -0.1875 -1.0189  0.3093
 2918TIP3   OH232948   1.111   4.413   8.191 -0.1537 -0.0303  0.6743
 2918TIP3    H132949   1.132   4.487   8.134 -1.3039 -0.1552  0.0611
 2918TIP3    H232950   1.047   4.449   8.253  0.5686 -0.0797  1.4833
 2919TIP3   OH232951   5.533   6.762   9.144  0.1465  0.2783  0.4043
 2919TIP3    H132952   5.542   6.799   9.056 -0.0279  0.4225  0.4445
 2919TIP3    H232953   5.445   6.788   9.172 -1.2191 -2.7192 -0.7441
 2920TIP3   OH232954   3.121   1.829   8.720 -0.2999 -0.3697 -0.5509
 2920TIP3    H132955   3.043   1.774   8.715 -1.2276  1.0034 -2.1746
 2920TIP3    H232956   3.180   1.792   8.655 -0.3273 -0.3422 -0.5920
 2921TIP3   OH232957   2.744   6.824   9.180 -0.6477  0.7812  0.0431
 2921TIP3    H132958   2.725   6.916   9.160 -0.6972  1.2046  1.8404
 2921TIP3    H232959   2.723   6.815   9.273 -0.0490 -0.9033  0.0527
 2922TIP3   OH232960   1.670   3.617   9.571  0.4333  0.7078  0.1929
 2922TIP3    H132961   1.745   3.669   9.543  1.1786  1.4611  3.2681
 2922TIP3    H232962   1.708   3.534   9.600 -0.1408  0.4749  0.2972
 2923TIP3   OH232963   7.228   3.980   8.807 -0.0453  0.0687 -0.1658
 2923TIP3    H132964   7.217   4.028   8.889 -0.7357 -0.8773  0.3167
 2923TIP3    H232965   7.211   4.045   8.739 -1.4340  0.4188  0.4677
 2924TIP3   OH232966   5.860   0.944   8.502 -0.2218  0.0596  0.0928
 2924TIP3    H132967   5.773   0.912   8.523 -1.2773  2.8072  0.3679
 2924TIP3    H232968   5.859   1.036   8.531  1.9402  0.8666 -2.0876
 2925TIP3   OH232969   5.789   2.531   8.389  0.2427 -0.4855 -0.2791
 2925TIP3    H132970   5.732   2.527   8.312 -0.3526 -0.1927  0.1348
 2925TIP3    H232971   5.740   2.583   8.452  1.6283  1.0829 -0.4476
 2926TIP3   OH232972   5.389   2.462   9.176  0.1713  0.2603 -0.7887
 2926TIP3    H132973   5.314   2.429   9.127 -0.8893  0.4161  0.6775
 2926TIP3    H232974   5.364   2.551   9.201  0.0992 -0.2713  1.1604
 2927TIP3   OH232975   7.507   6.703   7.248  0.0094 -0.1389  0.3131
 2927TIP3    H132976   7.548   6.677   7.165  0.1909  0.8832  0.0651
 2927TIP3    H232977   7.555   6.782   7.275  0.8215 -1.1654  2.0655
 2928TIP3   OH232978   3.127   3.659   8.250  0.1152  0.3066 -0.4962
 2928TIP3    H132979   3.087   3.624   8.171  0.8153  1.5965 -1.4627
 2928TIP3    H232980   3.144   3.751   8.230  2.8232  0.0263  0.1114
 2929TIP3   OH232981   2.614   2.115   7.596 -0.1976 -0.0934 -0.1975
 2929TIP3    H132982   2.654   2.196   7.564 -0.4146 -0.4482 -1.4171
 2929TIP3    H232983   2.543   2.097   7.535  0.6229 -1.8536 -0.6862
 2930TIP3   OH232984   0.288   6.214   7.091  0.2805 -0.5070  0.1252
 2930TIP3    H132985   0.369   6.181   7.053  0.7634 -0.4058  1.0571
 2930TIP3    H232986   0.226   6.142   7.081 -0.4357  0.3969 -3.2928
 2931TIP3   OH232987   5.768   3.297   8.052  0.6118  0.3805 -0.5353
 2931TIP3    H132988   5.699   3.349   8.095  1.5340  0.0867  1.4487
 2931TIP3    H232989   5.748   3.207   8.076  2.0426  0.3502  0.7279
 2932TIP3   OH232990   6.465   2.523   8.480  0.6456 -0.3179  0.0847
 2932TIP3    H132991   6.537   2.515   8.542  0.4320 -0.1959  0.3519
 2932TIP3    H232992   6.425   2.608   8.500 -0.5504 -1.0541  1.0117
 2933TIP3   OH232993   1.919   6.440   7.272 -0.1325  0.1754 -0.6254
 2933TIP3    H132994   1.868   6.517   7.246 -0.3339 -0.1338 -1.1675
 2933TIP3    H232995   1.982   6.427   7.201 -0.6084 -0.6114 -0.9161
 2934TIP3   OH232996   2.797   3.142   8.813  0.1846  0.3999 -0.3382
 2934TIP3    H132997   2.865   3.207   8.799  0.1617  0.9874  1.9108
 2934TIP3    H232998   2.717   3.182   8.779  0.6928  0.2965 -1.6784
 2935TIP3   OH232999   5.033   2.111   7.035 -0.7382 -0.2249  0.2498
 2935TIP3    H133000   5.063   2.066   6.956 -1.7224 -0.8521  0.2226
 2935TIP3    H233001   5.075   2.197   7.031  0.6116 -0.8599 -0.0604
 2936TIP3   OH233002   1.269   7.529   8.384 -0.4037 -0.3721  0.6662
 2936TIP3    H133003   1.327   7.491   8.318 -1.7783 -0.7638 -0.3835
 2936TIP3    H233004   1.204   7.578   8.333 -0.1384  1.3113  1.8746
 2937TIP3   OH233005   7.458   2.067   9.182  0.5995  0.5236  0.7448
 2937TIP3    H133006   7.485   2.080   9.091  0.0749 -1.8116  0.1888
 2937TIP3    H233007   7.376   2.117   9.190  0.5993  0.6753 -0.0991
 2938TIP3   OH233008   0.096   2.453   8.261  0.2292  0.2205  0.1500
 2938TIP3    H133009   0.131   2.391   8.197 -1.0908  0.2625 -0.6650
 2938TIP3    H233010   0.050   2.397   8.324 -0.2096  0.2920 -0.0978
 2939TIP3   OH233011   7.232   4.447   9.178  0.4583  0.5634 -0.4180
 2939TIP3    H133012   7.301   4.381   9.170  0.3500  0.4905 -0.7502
 2939TIP3    H233013   7.165   4.405   9.231  0.8410  0.7761  0.2476
 2940TIP3   OH233014   5.817   7.519   7.935 -0.7068 -0.5505  1.2817
 2940TIP3    H133015   5.823   7.588   8.001  0.5388 -0.3992  1.0415
 2940TIP3    H233016   5.881   7.453   7.963 -0.1999 -0.5108  0.2665
 2941TIP3   OH233017   7.523   2.785   8.419  0.1583  0.3746 -0.5954
 2941TIP3    H133018   7.485   2.869   8.394  0.2569  1.3392  2.1203
 2941TIP3    H233019   7.616   2.804   8.431  0.5488 -0.6365 -1.8127
 2942TIP3   OH233020   6.350   6.610   9.291 -0.1918  0.1943  0.2080
 2942TIP3    H133021   6.320   6.519   9.288 -1.2430  0.5008  0.8278
 2942TIP3    H233022   6.280   6.660   9.247  0.2790  0.7274  0.0532
 2943TIP3   OH233023   1.593   1.803   8.725  0.0361 -0.3006  0.1127
 2943TIP3    H133024   1.604   1.771   8.815  1.4815 -1.9732 -0.5788
 2943TIP3    H233025   1.510   1.765   8.696 -0.4053  0.1907  0.7040
 2944TIP3   OH233026   7.509   2.026   8.376 -0.0846 -0.4383 -0.3608
 2944TIP3    H133027   7.475   1.972   8.447  2.4508 -2.7388 -0.7028
 2944TIP3    H233028   7.435   2.079   8.348 -1.5607 -0.4946  2.9861
 2945TIP3   OH233029   0.802   5.080   7.369 -0.0428 -0.2730 -0.2446
 2945TIP3    H133030   0.844   5.145   7.313  0.8132 -1.5664 -1.1829
 2945TIP3    H233031   0.813   4.997   7.322 -1.5281 -1.0357  0.6696
 2946TIP3   OH233032   0.642   1.709   9.673  0.3682 -0.1429  0.9266
 2946TIP3    H133033   0.627   1.803   9.672  0.3327 -0.1365 -0.4866
 2946TIP3    H233034   0.558   1.672   9.644  0.6569 -0.5535  0.6130
 2947TIP3   OH233035   1.102   3.540   7.283 -0.4259 -0.2250  1.0234
 2947TIP3    H133036   1.152   3.497   7.213 -2.0937 -0.1555 -0.2706
 2947TIP3    H233037   1.073   3.468   7.339  0.9247 -0.2810  1.6985
 2948TIP3   OH233038   0.776   0.509   7.241 -0.5227  0.0374  0.0799
 2948TIP3    H133039   0.857   0.549   7.209 -1.0160  2.4247  1.5707
 2948TIP3    H233040   0.714   0.518   7.168 -0.1443  0.5437 -0.1866
 2949TIP3   OH233041   4.905   5.657   9.285 -0.9678 -0.6549  0.0375
 2949TIP3    H133042   4.880   5.613   9.367 -0.6504  0.2636  0.6483
 2949TIP3    H233043   4.826   5.655   9.231 -0.7604 -2.5978 -0.2527
 2950TIP3   OH233044   0.198   3.939   8.412  0.0232 -0.2755 -0.2689
 2950TIP3    H133045   0.207   3.876   8.341 -0.8768 -0.7520  0.0184
 2950TIP3    H233046   0.267   4.004   8.396  0.6193 -1.0329 -0.8741
 2951TIP3   OH233047   2.661   4.514   7.395 -0.0331  0.1878  0.6923
 2951TIP3    H133048   2.742   4.464   7.402 -0.7594 -1.0793  0.3971
 2951TIP3    H233049   2.593   4.454   7.424 -0.7207  1.7923  2.6950
 2952TIP3   OH233050   3.729   7.676   9.580 -0.4738 -0.1409 -0.8413
 2952TIP3    H133051   3.671   7.693   9.506  0.3847 -0.5513 -1.6326
 2952TIP3    H233052   3.796   7.617   9.545 -0.2550 -0.6404  0.3667
 2953TIP3   OH233053   1.000   0.875   8.580 -0.4464 -0.2935  0.3754
 2953TIP3    H133054   0.987   0.811   8.510  0.0085 -1.3431  1.2274
 2953TIP3    H233055   0.912   0.901   8.606 -0.6314 -0.4465 -0.0955
 2954TIP3   OH233056   4.860   7.223   8.571 -0.0122 -0.3171 -0.0832
 2954TIP3    H133057   4.808   7.287   8.620 -1.4958  0.0654 -2.0376
 2954TIP3    H233058   4.822   7.139   8.596 -0.5161 -0.1529 -0.2746
 2955TIP3   OH233059   2.265   5.152   7.516 -0.9117 -0.0603 -0.1462
 2955TIP3    H133060   2.327   5.172   7.445 -0.2471  0.4324  0.5612
 2955TIP3    H233061   2.219   5.234   7.531 -1.8134 -0.4412 -0.7135
 2956TIP3   OH233062   7.265   3.462   9.118 -0.2190  0.5610 -0.3257
 2956TIP3    H133063   7.297   3.454   9.208 -1.7746  1.9514  0.3976
 2956TIP3    H233064   7.234   3.552   9.111 -0.8541  0.2587 -2.0236
 2957TIP3   OH233065   6.828   1.549   9.572 -0.2507  0.2298  0.5689
 2957TIP3    H133066   6.913   1.528   9.611  0.7131 -0.3573 -1.7047
 2957TIP3    H233067   6.810   1.475   9.514 -1.3734  1.2670 -0.4535
 2958TIP3   OH233068   2.996   6.499   7.648  0.3713  0.3121  0.5195
 2958TIP3    H133069   2.950   6.443   7.585 -1.0748  1.2069  0.7351
 2958TIP3    H233070   3.084   6.461   7.654  1.4319  1.4743 -3.8028
 2959TIP3   OH233071   0.891   2.541   8.215 -0.3428  0.6780 -0.2772
 2959TIP3    H133072   0.804   2.578   8.232 -0.7420 -0.0009 -0.7601
 2959TIP3    H233073   0.901   2.473   8.282 -0.6488  0.0287 -0.8783
 2960TIP3   OH233074   6.745   2.684   7.844 -0.0628  0.3568  0.3237
 2960TIP3    H133075   6.722   2.663   7.935 -1.3430 -0.9475 -0.2476
 2960TIP3    H233076   6.661   2.683   7.798  0.7784 -1.4245 -1.3067
 2961TIP3   OH233077   6.929   7.053   8.702  0.0631 -0.0731  0.1562
 2961TIP3    H133078   6.885   7.137   8.687 -0.0470  0.0969  1.3537
 2961TIP3    H233079   6.970   7.032   8.618  0.4333  1.3796 -0.0538
 2962TIP3   OH233080   7.063   0.748   8.902  0.1825 -0.5313 -0.2359
 2962TIP3    H133081   7.151   0.744   8.864  1.5703  2.2953  2.2439
 2962TIP3    H233082   7.054   0.665   8.950  1.5188 -0.8428 -0.4858
 2963TIP3   OH233083   6.362   4.146   8.665  0.0453  0.3181 -0.0476
 2963TIP3    H133084   6.377   4.175   8.575  0.9181  0.4655  0.1447
 2963TIP3    H233085   6.324   4.222   8.709  1.4888  0.9113  0.2213
 2964TIP3   OH233086   5.410   4.934   7.620  0.1513  0.6803  0.0664
 2964TIP3    H133087   5.338   4.885   7.658  1.2022 -0.5516  0.5576
 2964TIP3    H233088   5.428   5.003   7.683 -0.0248  0.4396  0.3875
 2965TIP3   OH233089   6.600   3.533   8.278 -0.0058  0.2158 -0.1367
 2965TIP3    H133090   6.584   3.622   8.248  1.1691  0.8512  1.0119
 2965TIP3    H233091   6.514   3.498   8.298 -0.4708  1.1120 -0.5272
 2966TIP3   OH233092   1.038   6.046   7.390 -0.0121 -0.0823  0.5861
 2966TIP3    H133093   1.125   6.006   7.395  0.0192 -0.2849 -1.1496
 2966TIP3    H233094   1.035   6.087   7.303 -1.4151  0.4881  0.8795
 2967TIP3   OH233095   2.107   1.814   8.471 -0.3547  0.1791  0.3323
 2967TIP3    H133096   2.022   1.854   8.491 -2.2514 -3.2720 -0.0705
 2967TIP3    H233097   2.105   1.801   8.376  1.6318  1.9307 -0.0237
 2968TIP3   OH233098   6.916   5.144   7.315  0.3752  0.1178  0.0913
 2968TIP3    H133099   6.875   5.207   7.256 -0.1975 -0.7361 -0.4404
 2968TIP3    H233100   6.938   5.196   7.393  0.1127  1.0159 -0.4164
 2969TIP3   OH233101   4.877   1.165   8.420  0.2675 -0.1104 -0.1732
 2969TIP3    H133102   4.897   1.101   8.352 -1.3366 -1.9555  0.9573
 2969TIP3    H233103   4.916   1.129   8.500 -1.0069  0.0415  0.5657
 2970TIP3   OH233104   6.765   0.388   7.065 -0.3949 -0.0931  0.5459
 2970TIP3    H133105   6.809   0.327   7.006  0.5046  0.0568  1.0525
 2970TIP3    H233106   6.833   0.415   7.127 -0.6271  1.8134  0.0254
 2971TIP3   OH233107   5.221   3.146   7.681 -0.3756 -0.4754 -0.1446
 2971TIP3    H133108   5.309   3.110   7.692  0.5931  1.2081 -1.7148
 2971TIP3    H233109   5.236   3.237   7.652 -2.5772 -0.6335 -2.0872
 2972TIP3   OH233110   0.858   1.819   7.610 -0.1566  0.2778 -0.1767
 2972TIP3    H133111   0.862   1.786   7.700  1.7755  0.0883 -0.2857
 2972TIP3    H233112   0.801   1.896   7.615  0.1022  0.4060  1.2653
 2973TIP3   OH233113   1.100   5.885   7.966  0.2206 -0.1162 -0.1301
 2973TIP3    H133114   1.124   5.864   7.876 -0.4650 -0.5793 -0.2174
 2973TIP3    H233115   1.060   5.972   7.960  0.3992 -0.0403 -0.2323
 2974TIP3   OH233116   3.421   3.189   7.857  0.5445  0.1075  0.0577
 2974TIP3    H133117   3.408   3.252   7.928 -2.7852 -0.0308 -0.2887
 2974TIP3    H233118   3.367   3.223   7.785 -1.9447 -3.3284  0.0684
 2975TIP3   OH233119   6.408   6.670   8.044 -0.4275  0.0849 -0.7562
 2975TIP3    H133120   6.340   6.719   8.089 -1.4051 -1.8432  0.0025
 2975TIP3    H233121   6.400   6.581   8.079  0.0476 -1.0545 -3.3164
 2976TIP3   OH233122   1.562   1.492   8.159 -0.1690  0.0039 -0.0640
 2976TIP3    H133123   1.597   1.441   8.233  1.6014 -0.7872 -1.3776
 2976TIP3    H233124   1.481   1.447   8.135 -0.2072 -0.3692  0.7306
 2977TIP3   OH233125   2.708   2.936   7.207  0.0735  0.3091 -0.2986
 2977TIP3    H133126   2.775   2.961   7.271 -1.4814 -1.3252  2.1308
 2977TIP3    H233127   2.660   3.017   7.189 -0.9717  0.4138  2.5645
 2978TIP3   OH233128   5.098   2.208   9.580  0.4464  0.0753 -0.0857
 2978TIP3    H133129   5.164   2.159   9.531 -0.0070 -0.3665 -0.2654
 2978TIP3    H233130   5.108   2.180   9.670  0.5285  0.0369 -0.1067
 2979TIP3   OH233131   4.661   2.834   7.422  0.0693  0.0581 -0.3083
 2979TIP3    H133132   4.748   2.848   7.384  0.4284 -1.3740 -0.0957
 2979TIP3    H233133   4.620   2.768   7.366 -0.3120 -0.3306  0.4027
 2980TIP3   OH233134   2.731   6.900   7.935  0.1118  0.0866 -1.2482
 2980TIP3    H133135   2.768   6.919   7.849  2.0961 -1.1662 -0.7451
 2980TIP3    H233136   2.759   6.972   7.991 -0.5817  0.5387 -1.4686
 2981TIP3   OH233137   1.306   1.107   8.006  0.1646 -0.2966  0.4835
 2981TIP3    H133138   1.249   1.034   7.983 -1.1439  0.7325  0.3744
 2981TIP3    H233139   1.294   1.118   8.100 -1.9898  1.6472  0.0583
 2982TIP3   OH233140   3.473   0.600   8.517  0.8730  0.3763  0.2645
 2982TIP3    H133141   3.405   0.667   8.522 -0.2684 -0.7682  0.5792
 2982TIP3    H233142   3.555   0.648   8.529  0.0708  1.6748  0.7549
 2983TIP3   OH233143   1.521   4.643   6.648 -0.5658 -0.1391 -0.2954
 2983TIP3    H133144   1.499   4.724   6.692  1.3311 -0.0855  0.6494
 2983TIP3    H233145   1.446   4.585   6.664 -1.2196  0.8732  0.3923
 2984TIP3   OH233146   3.949   5.392   8.563 -0.2849  0.0181  0.0154
 2984TIP3    H133147   4.043   5.400   8.576 -0.4112  0.3574  0.7810
 2984TIP3    H233148   3.940   5.337   8.485  0.5384 -0.5926  0.3341
 2985TIP3   OH233149   2.197   1.789   7.176  0.2187  0.5336  0.0454
 2985TIP3    H133150   2.211   1.884   7.180 -1.2732  0.7867 -0.0967
 2985TIP3    H233151   2.102   1.779   7.179  0.2680 -0.8905 -1.6260
 2986TIP3   OH233152   5.793   3.200   7.788 -0.4979  0.0645 -0.6726
 2986TIP3    H133153   5.828   3.112   7.771  0.6679  0.4452 -0.3405
 2986TIP3    H233154   5.793   3.207   7.883  1.5125  1.2110 -0.7142
 2987TIP3   OH233155   3.622   3.820   8.262 -0.0784 -0.5000 -0.0197
 2987TIP3    H133156   3.656   3.847   8.177 -0.8677 -0.4246 -0.3152
 2987TIP3    H233157   3.540   3.869   8.272  0.2567 -0.1353  1.0037
 2988TIP3   OH233158   7.511   3.645   6.673 -0.3425  0.0916  0.1144
 2988TIP3    H133159   7.596   3.618   6.638  0.6406 -3.1300  4.1520
 2988TIP3    H233160   7.521   3.739   6.687  1.9885  0.0891 -0.9381
 2989TIP3   OH233161   6.067   2.922   8.225 -0.0595 -0.1093  0.3617
 2989TIP3    H133162   6.060   3.002   8.174  0.4630 -0.7975 -0.8290
 2989TIP3    H233163   6.160   2.917   8.249  0.1229 -0.8814 -0.4639
 2990TIP3   OH233164   5.760   2.112   8.423 -0.0016  0.2305 -0.6154
 2990TIP3    H133165   5.686   2.117   8.483  0.7244  0.7922  0.2483
 2990TIP3    H233166   5.837   2.106   8.479  0.6089 -0.5024 -1.5054
 2991TIP3   OH233167   2.008   1.551   6.887  0.6679  0.4448  0.5851
 2991TIP3    H133168   2.041   1.635   6.854 -0.0805  0.1119 -1.1208
 2991TIP3    H233169   1.952   1.518   6.817 -0.2052 -0.8148  1.8216
 2992TIP3   OH233170   4.067   6.148   7.486  0.2416 -0.5179 -0.4574
 2992TIP3    H133171   4.092   6.067   7.531  2.8098  0.5465  0.1740
 2992TIP3    H233172   4.127   6.153   7.411 -0.6205  0.2976 -1.1194
 2993TIP3   OH233173   4.646   3.075   9.874  0.2783  0.2160  0.3792
 2993TIP3    H133174   4.574   3.012   9.865  0.6337 -0.2471  0.6634
 2993TIP3    H233175   4.688   3.049   9.956  1.3910 -0.1729 -0.3006
 2994TIP3   OH233176   6.338   3.485   8.945 -0.0545 -0.0756  0.7106
 2994TIP3    H133177   6.253   3.472   8.988 -0.3300  0.9003  0.4937
 2994TIP3    H233178   6.318   3.541   8.870  0.4104 -1.7212 -0.7282
 2995TIP3   OH233179   4.919   6.967   8.919 -0.3909  0.1302  0.3590
 2995TIP3    H133180   4.895   6.922   9.000 -0.3535 -0.5712 -0.0093
 2995TIP3    H233181   4.878   7.053   8.926 -1.2389 -0.2865  0.6820
 2996TIP3   OH233182   3.934   3.402   8.162 -0.7439  0.0754  0.0989
 2996TIP3    H133183   3.955   3.355   8.081 -0.1773 -0.7637  0.7205
 2996TIP3    H233184   3.864   3.462   8.137  1.9409  2.6897 -1.9859
 2997TIP3   OH233185   6.831   5.954   7.895 -0.3651  0.1850 -0.4640
 2997TIP3    H133186   6.883   5.904   7.832 -1.0767  1.1806 -1.8983
 2997TIP3    H233187   6.824   5.897   7.971  2.6126 -0.0994 -0.2715
 2998TIP3   OH233188   4.294   0.021   7.591 -0.0951  0.0766 -0.0532
 2998TIP3    H133189   4.306   0.101   7.540 -2.1895 -0.1131 -0.9542
 2998TIP3    H233190   4.331   0.042   7.677  1.5115  1.1667 -0.9502
 2999TIP3   OH233191   0.711   3.654   8.498 -0.0341 -0.0897 -0.2667
 2999TIP3    H133192   0.635   3.697   8.537 -0.2501 -0.0741 -0.6921
 2999TIP3    H233193   0.713   3.687   8.407 -0.2587 -1.0463 -0.6258
 3000TIP3   OH233194   4.336   1.303   8.450  0.1850 -0.6653 -0.0383
 3000TIP3    H133195   4.427   1.305   8.420 -0.1453 -1.2037 -1.1329
 3000TIP3    H233196   4.287   1.346   8.381 -0.1355  1.9516  1.7070
 3001TIP3   OH233197   0.626   7.305   8.642 -0.5184 -0.3904 -0.0439
 3001TIP3    H133198   0.538   7.325   8.611 -1.0988 -1.9850  0.4531
 3001TIP3    H233199   0.629   7.339   8.732 -0.1118  0.9225 -0.5319
 3002TIP3   OH233200   1.965   3.202   9.286 -0.5079  0.2887 -0.2351
 3002TIP3    H133201   2.005   3.273   9.335 -0.1780  0.9723 -1.4476
 3002TIP3    H233202   1.985   3.123   9.337 -2.1855  1.1819  1.9190
 3003TIP3   OH233203   3.999   4.157   9.381 -0.0428 -0.2138 -0.2379
 3003TIP3    H133204   3.925   4.208   9.414 -1.4037 -0.9983 -1.9106
 3003TIP3    H233205   3.995   4.075   9.430 -0.0477 -0.0941 -0.0403
 3004TIP3   OH233206   1.968   4.354   8.432  0.3307 -0.1766 -0.3083
 3004TIP3    H133207   2.004   4.267   8.445  0.4677 -0.4533 -2.3076
 3004TIP3    H233208   1.874   4.344   8.447  0.2125 -0.8980 -1.4548
 3005TIP3   OH233209   4.315   1.032   6.912 -0.3050  0.6116 -0.1305
 3005TIP3    H133210   4.350   1.079   6.988 -1.8986 -0.7006  1.4937
 3005TIP3    H233211   4.286   1.101   6.852 -0.2062  1.6912  1.0249
 3006TIP3   OH233212   7.131   0.986   9.111 -0.0991 -0.2811 -0.1223
 3006TIP3    H133213   7.046   0.951   9.136  0.5351 -2.1120 -0.3937
 3006TIP3    H233214   7.169   0.920   9.053  1.3319  0.6935 -0.3607
 3007TIP3   OH233215   5.097   7.393   8.256 -0.1633 -0.4398  0.5231
 3007TIP3    H133216   5.072   7.398   8.164 -0.2842  0.2667  0.5884
 3007TIP3    H233217   5.187   7.424   8.259 -0.6457  0.9760  0.8348
 3008TIP3   OH233218   0.732   1.119   7.801  0.3854  0.6154 -0.2923
 3008TIP3    H133219   0.824   1.091   7.795  0.4509  0.4372  1.2187
 3008TIP3    H233220   0.685   1.057   7.745  1.0788  0.1191 -0.3421
 3009TIP3   OH233221   2.472   4.536   6.621 -0.3768  0.0689 -0.5660
 3009TIP3    H133222   2.401   4.599   6.618 -1.4353 -1.1338 -1.5112
 3009TIP3    H233223   2.429   4.451   6.630  0.9536 -0.6683 -0.8703
 3010TIP3   OH233224   5.600   3.935   9.467  0.5219 -0.2430 -0.6669
 3010TIP3    H133225   5.574   3.932   9.375 -0.4982 -2.4035 -0.3770
 3010TIP3    H233226   5.519   3.950   9.515  1.0427  0.8502 -0.0929
 3011TIP3   OH233227   3.995   6.529   6.893 -0.6057  0.5941 -0.3685
 3011TIP3    H133228   4.005   6.624   6.885  1.1030  0.4094 -0.6831
 3011TIP3    H233229   3.959   6.516   6.981  2.0479  1.4140  0.9308
 3012TIP3   OH233230   6.951   1.689   7.940 -0.5626 -0.4235 -1.0226
 3012TIP3    H133231   6.901   1.631   7.998 -2.2083 -0.1093 -2.0699
 3012TIP3    H233232   6.965   1.768   7.993  0.0324 -1.0151 -0.2580
 3013TIP3   OH233233   6.832   3.137   9.252 -0.1972  0.5668 -0.0618
 3013TIP3    H133234   6.914   3.147   9.205  0.0134  0.1823  0.2269
 3013TIP3    H233235   6.808   3.045   9.242  0.6550  0.0841  1.8931
 3014TIP3   OH233236   3.055   6.197   8.471 -0.2627  0.1906 -0.3110
 3014TIP3    H133237   3.070   6.146   8.551  2.3494 -1.3231 -1.6361
 3014TIP3    H233238   3.112   6.273   8.481 -0.8542  0.6307 -0.2403
 3015TIP3   OH233239   4.957   2.801   9.705  0.0336  0.0783  0.5606
 3015TIP3    H133240   4.909   2.748   9.641  1.6503  2.3433 -2.8146
 3015TIP3    H233241   5.030   2.745   9.732  0.2532 -0.4091 -0.9238
 3016TIP3   OH233242   6.589   0.222   7.256 -0.1624 -0.1198  0.0780
 3016TIP3    H133243   6.624   0.264   7.178  1.8161 -3.4063 -0.9924
 3016TIP3    H233244   6.624   0.274   7.329  0.4961  1.2046 -1.1335
 3017TIP3   OH233245   6.819   2.959   8.868 -0.4658  0.4718 -0.7146
 3017TIP3    H133246   6.766   2.936   8.792  1.0765  1.7612 -2.2654
 3017TIP3    H233247   6.794   2.896   8.935 -2.1430 -0.4821 -2.1531
 3018TIP3   OH233248   4.929   2.376   8.118 -0.0280 -0.2768 -1.1118
 3018TIP3    H133249   4.994   2.429   8.071  0.0960 -0.0985 -0.7384
 3018TIP3    H233250   4.965   2.366   8.206 -0.6380  0.0546 -0.8223
 3019TIP3   OH233251   2.107   3.020   7.119 -0.9437  0.0813 -0.3004
 3019TIP3    H133252   2.189   3.058   7.150 -1.0058 -0.0960  0.0858
 3019TIP3    H233253   2.129   2.929   7.097 -1.1113 -0.0642  0.1283
 3020TIP3   OH233254   4.204   2.681   8.100 -0.6137 -0.3995  0.1495
 3020TIP3    H133255   4.141   2.738   8.144 -0.8727  0.3863 -1.1804
 3020TIP3    H233256   4.290   2.716   8.124 -0.7566  0.0254  0.0485
 3021TIP3   OH233257   5.741   7.125   6.789  0.1117 -0.2627 -0.0071
 3021TIP3    H133258   5.818   7.095   6.740  0.9992  1.0641  0.5090
 3021TIP3    H233259   5.736   7.066   6.864  1.5475  0.5044  0.7401
 3022TIP3   OH233260   3.835   6.577   9.105  0.7987  0.5206 -0.1068
 3022TIP3    H133261   3.752   6.561   9.060  0.5324  1.1975  0.1374
 3022TIP3    H233262   3.858   6.491   9.141  1.0091 -0.0364 -1.4879
 3023TIP3   OH233263   7.102   3.854   7.409  0.2505 -0.2495 -0.4468
 3023TIP3    H133264   7.041   3.920   7.376  0.6446 -0.0653 -0.8220
 3023TIP3    H233265   7.054   3.772   7.403 -0.0477 -0.0732 -0.5056
 3024TIP3   OH233266   2.177   3.839   8.032  0.1441  0.0518 -0.4087
 3024TIP3    H133267   2.100   3.786   8.014  0.1749  0.1925 -0.9482
 3024TIP3    H233268   2.230   3.784   8.090 -0.4370  0.0276  0.1074
 3025TIP3   OH233269   7.651   6.510   7.779 -0.1831  0.2119  0.0996
 3025TIP3    H133270   7.598   6.536   7.855  0.9760  0.4995  0.8254
 3025TIP3    H233271   7.710   6.442   7.813 -0.2733 -0.3105 -0.7684
 3026TIP3   OH233272   2.869   6.380   8.337  0.4190  0.6990  0.3682
 3026TIP3    H133273   2.877   6.475   8.339 -1.5381  0.8997  1.6741
 3026TIP3    H233274   2.951   6.348   8.374  1.8366  1.7535 -1.6599
 3027TIP3   OH233275   5.879   1.464   8.798 -0.3764  0.1587 -1.2228
 3027TIP3    H133276   5.809   1.469   8.863  0.7049 -0.6385  0.0385
 3027TIP3    H233277   5.895   1.555   8.773 -1.1853  0.4275 -0.7930
 3028TIP3   OH233278   6.545   3.970   8.780 -1.0457 -0.7139  0.3922
 3028TIP3    H133279   6.583   4.033   8.841  0.4657 -1.5567  0.3554
 3028TIP3    H233280   6.483   4.022   8.728  0.1547  0.7491  0.3525
 3029TIP3   OH233281   2.532   1.451   7.321  0.1200  0.0440  0.0122
 3029TIP3    H133282   2.490   1.454   7.235 -0.0501 -2.1218 -0.0323
 3029TIP3    H233283   2.557   1.542   7.338 -0.4191  0.6380 -2.0208
 3030TIP3   OH233284   5.511   3.178   7.440  0.8341 -0.2112  0.4557
 3030TIP3    H133285   5.439   3.185   7.376  0.5642  0.8395  0.8565
 3030TIP3    H233286   5.488   3.240   7.509  1.8776 -0.2384  0.8451
 3031TIP3   OH233287   0.257   2.782   7.729 -0.4848 -0.1303  0.7520
 3031TIP3    H133288   0.300   2.856   7.773  0.6506 -0.9367  1.0488
 3031TIP3    H233289   0.330   2.732   7.692 -1.2243 -1.2360  0.7757
 3032TIP3   OH233290   5.729   5.773   8.052  0.0847  0.6806  0.0270
 3032TIP3    H133291   5.651   5.828   8.059 -1.0093 -0.8239 -0.0669
 3032TIP3    H233292   5.754   5.756   8.143 -0.5806 -0.0516  0.0768
 3033TIP3   OH233293   7.376   5.952   7.397  0.0671  0.6706  0.0713
 3033TIP3    H133294   7.384   5.868   7.441 -2.4527 -0.0521 -0.6782
 3033TIP3    H233295   7.353   6.014   7.467 -2.4186 -0.1818  0.1267
 3034TIP3   OH233296   5.702   3.040   8.987  0.4486 -0.3002 -0.6594
 3034TIP3    H133297   5.729   3.022   9.077  0.0975  1.7002 -0.1122
 3034TIP3    H233298   5.629   2.980   8.972  0.1159 -0.2539  0.6181
 3035TIP3   OH233299   4.196   1.246   9.275  0.0280  0.0867 -0.2138
 3035TIP3    H133300   4.203   1.327   9.225 -0.0729  0.5282  0.4667
 3035TIP3    H233301   4.193   1.177   9.209 -3.6090  0.8191 -0.9964
 3036TIP3   OH233302   1.369   1.033   8.362 -0.0782 -0.8358 -1.1401
 3036TIP3    H133303   1.449   0.988   8.335  0.2229 -1.5409  0.7430
 3036TIP3    H233304   1.323   0.969   8.416 -1.1629  0.0980 -0.9257
 3037TIP3   OH233305   4.545   2.498   7.697  0.1627 -0.0080  0.2060
 3037TIP3    H133306   4.459   2.510   7.655  0.7026  1.1781 -0.6311
 3037TIP3    H233307   4.582   2.422   7.654 -0.5084 -0.6064  0.6607
 3038TIP3   OH233308   3.209   3.724   8.484  0.1562  0.9795 -0.0503
 3038TIP3    H133309   3.169   3.702   8.401  1.7000  1.8421 -1.0720
 3038TIP3    H233310   3.138   3.717   8.548 -1.5154  2.0332 -1.6956
 3039TIP3   OH233311   4.049   1.977   9.188  0.0640  0.1763 -0.7286
 3039TIP3    H133312   3.966   1.953   9.148  0.1499 -0.0009 -0.8005
 3039TIP3    H233313   4.044   2.072   9.199 -1.8468 -0.1796  2.9650
 3040TIP3   OH233314   6.977   0.086   7.419 -0.2560 -0.1576  0.5657
 3040TIP3    H133315   6.999   0.179   7.429 -0.9627  0.1180 -0.2356
 3040TIP3    H233316   6.950   0.059   7.506  1.7273 -0.1217  1.2288
 3041TIP3   OH233317   0.167   6.682   6.735  0.0673 -0.2531 -0.6505
 3041TIP3    H133318   0.179   6.747   6.666 -1.3714 -0.3281 -1.0113
 3041TIP3    H233319   0.074   6.659   6.731 -0.4239  0.7512  2.1981
 3042TIP3   OH233320   4.844   0.198   8.792  0.1289 -0.2006 -0.5825
 3042TIP3    H133321   4.917   0.259   8.793  0.7620 -0.8994 -2.0164
 3042TIP3    H233322   4.769   0.251   8.764 -0.2659  0.7990  2.0112
 3043TIP3   OH233323   5.981   0.559   8.964  0.0968 -0.1088  0.0505
 3043TIP3    H133324   5.925   0.484   8.987 -0.5913  0.9240  1.9281
 3043TIP3    H233325   6.034   0.574   9.041  0.4369  1.1685 -0.4140
 3044TIP3   OH233326   2.596   3.284   8.314  0.0102  0.0707  0.3567
 3044TIP3    H133327   2.682   3.309   8.348 -0.3042 -1.2181  2.2803
 3044TIP3    H233328   2.542   3.362   8.328  0.2235  0.0025  1.7384
 3045TIP3   OH233329   2.273   6.122   7.992  0.5804 -0.6830 -0.0124
 3045TIP3    H133330   2.226   6.183   8.049  1.3823 -1.7217  1.8399
 3045TIP3    H233331   2.354   6.169   7.969  0.4169 -0.3929 -0.0013
 3046TIP3   OH233332   2.042   1.114   7.078 -0.1392 -0.1418 -0.0034
 3046TIP3    H133333   2.116   1.074   7.032 -1.6218 -0.6799 -2.0106
 3046TIP3    H233334   2.041   1.070   7.163  0.6259 -1.5882 -0.7020
 3047TIP3   OH233335   1.064   3.138   8.439 -0.0302  0.0603 -0.9206
 3047TIP3    H133336   1.093   3.183   8.519 -0.4853  2.4963 -2.0565
 3047TIP3    H233337   0.991   3.083   8.468  2.2537 -2.2054  1.0119
 3048TIP3   OH233338   0.220   4.178   9.551  0.4459  0.2760 -0.0944
 3048TIP3    H133339   0.124   4.172   9.554  0.3045  1.9005 -0.4634
 3048TIP3    H233340   0.247   4.177   9.643  0.3564 -3.1616 -0.0010
 3049TIP3   OH233341   0.902   4.020   7.726 -0.1073 -0.6899  0.0025
 3049TIP3    H133342   0.952   4.028   7.644  1.0636  1.2138  0.8142
 3049TIP3    H233343   0.816   4.057   7.705  0.3568  0.2787 -0.2664
 3050TIP3   OH233344   4.130   2.031   8.739  0.2001 -0.3058 -0.3426
 3050TIP3    H133345   4.128   1.963   8.806  0.3467 -0.8999 -0.9315
 3050TIP3    H233346   4.038   2.046   8.717 -0.0025  1.1571  1.2173
 3051TIP3   OH233347   5.544   1.495   7.215 -0.0396 -0.3651 -0.0859
 3051TIP3    H133348   5.553   1.590   7.204  1.5437 -0.5343 -0.3591
 3051TIP3    H233349   5.452   1.478   7.192 -0.4883  1.1574  0.4494
 3052TIP3   OH233350   6.966   0.398   7.268  0.1445 -0.1221  0.0122
 3052TIP3    H133351   6.919   0.391   7.351 -0.6531 -1.6413 -0.5363
 3052TIP3    H233352   6.981   0.492   7.257 -0.4423  0.1732  1.4690
 3053TIP3   OH233353   7.377   5.308   9.226 -0.3681 -0.1181 -0.3943
 3053TIP3    H133354   7.398   5.222   9.190  1.2676  0.5217 -1.0856
 3053TIP3    H233355   7.440   5.321   9.296 -0.1200  0.7874 -0.7611
 3054TIP3   OH233356   0.735   5.140   8.559 -0.0587  0.0935 -0.6358
 3054TIP3    H133357   0.684   5.058   8.563 -1.4815  0.9336  3.4378
 3054TIP3    H233358   0.826   5.111   8.564 -0.5160 -1.2929  0.4604
 3055TIP3   OH233359   5.248   0.719   9.357  0.3220  0.1440 -0.3389
 3055TIP3    H133360   5.200   0.797   9.384  0.3507  0.7468 -1.9344
 3055TIP3    H233361   5.193   0.646   9.386 -0.7012  0.7917 -0.5857
 3056TIP3   OH233362   5.469   4.159   8.649 -0.6087 -0.1023  0.0434
 3056TIP3    H133363   5.400   4.223   8.666  0.0057  0.8801 -1.0457
 3056TIP3    H233364   5.528   4.167   8.724 -0.0800  1.2625 -0.4759
 3057TIP3   OH233365   7.599   6.940   8.844  0.1812  0.2641  0.1613
 3057TIP3    H133366   7.649   6.896   8.913 -0.0367 -1.4401 -0.7227
 3057TIP3    H233367   7.517   6.965   8.887  0.3633 -0.0542  0.7071
 3058TIP3   OH233368   7.517   3.842   8.235 -0.1529 -0.7251  0.3080
 3058TIP3    H133369   7.544   3.806   8.320  1.0163 -0.4954  0.0536
 3058TIP3    H233370   7.423   3.825   8.231 -0.1931 -0.9272  1.5596
 3059TIP3   OH233371   2.055   1.400   8.077  0.7021  0.0387 -0.6631
 3059TIP3    H133372   2.077   1.414   7.985  1.0897 -0.3816 -0.6377
 3059TIP3    H233373   1.972   1.446   8.089 -1.0975 -2.5587 -2.0604
 3060TIP3   OH233374   6.150   0.639   8.340  0.2712 -0.4480  0.1909
 3060TIP3    H133375   6.194   0.561   8.375  1.0976  0.1831  0.5987
 3060TIP3    H233376   6.166   0.707   8.405 -1.3580 -0.1849  0.3592
 3061TIP3   OH233377   1.779   3.862   8.397 -0.5075  0.4068  0.1586
 3061TIP3    H133378   1.814   3.943   8.361  0.5623 -0.1533 -0.1293
 3061TIP3    H233379   1.775   3.877   8.492 -0.3023  0.7891  0.1088
 3062TIP3   OH233380   7.667   6.359   7.038 -0.0196 -0.3921 -0.0899
 3062TIP3    H133381   7.755   6.384   7.066 -0.1196  0.7637 -0.7663
 3062TIP3    H233382   7.621   6.442   7.026 -1.5098 -0.9948  1.1832
 3063TIP3   OH233383   4.841   1.898   8.633  0.0053  0.0109 -0.4107
 3063TIP3    H133384   4.929   1.894   8.671 -0.0994 -0.1275 -0.1789
 3063TIP3    H233385   4.829   1.990   8.609 -0.6459  0.5073  1.6325
 3064TIP3   OH233386   3.517   5.185   9.552  0.3233  0.0371 -0.5356
 3064TIP3    H133387   3.504   5.181   9.647 -0.5568 -1.7004 -0.6829
 3064TIP3    H233388   3.474   5.266   9.525  0.1201  0.2849  0.4879
 3065TIP3   OH233389   3.360   2.372   7.692 -0.1437  0.0184  0.4034
 3065TIP3    H133390   3.337   2.452   7.739  1.3633  0.1337  1.0195
 3065TIP3    H233391   3.325   2.384   7.604 -0.1842  1.2421  0.5698
 3066TIP3   OH233392   1.993   6.709   7.484  0.4120  0.7807 -0.2965
 3066TIP3    H133393   1.921   6.764   7.452  0.3767  0.8118 -0.1669
 3066TIP3    H233394   1.957   6.666   7.562 -0.5220 -1.5758 -1.9021
 3067TIP3   OH233395   7.184   0.290   6.562 -0.3353 -0.2493 -0.5014
 3067TIP3    H133396   7.108   0.329   6.606  0.8184 -0.0062  1.4111
 3067TIP3    H233397   7.151   0.210   6.523 -1.8198  0.4358 -0.7036
 3068TIP3   OH233398   5.257   3.175   9.616  0.3270 -0.4296  0.0561
 3068TIP3    H133399   5.294   3.118   9.683 -0.4473 -0.9484  0.0537
 3068TIP3    H233400   5.166   3.146   9.607 -0.1169  0.8438  0.1092
 3069TIP3   OH233401   1.593   5.599   7.115 -0.0789  0.0025 -0.0765
 3069TIP3    H133402   1.655   5.626   7.182  0.7910 -0.7473 -0.5585
 3069TIP3    H233403   1.559   5.682   7.080  0.8111  0.4317  0.0487
 3070TIP3   OH233404   0.867   1.718   7.862 -0.4943  0.4181  0.3361
 3070TIP3    H133405   0.934   1.765   7.910 -0.5975  1.1683 -0.2409
 3070TIP3    H233406   0.903   1.629   7.852  0.4797  0.8446 -0.0888
 3071TIP3   OH233407   4.124   1.741   7.562  0.5163  0.2643 -0.1684
 3071TIP3    H133408   4.205   1.731   7.512 -0.0444  0.6748 -1.1956
 3071TIP3    H233409   4.142   1.813   7.623  0.9263  0.3600 -0.3979
 3072TIP3   OH233410   1.219   0.806   7.739 -0.3432 -0.4052  0.3362
 3072TIP3    H133411   1.270   0.862   7.682  0.0574 -0.6265  0.4694
 3072TIP3    H233412   1.147   0.774   7.684  0.4529 -1.2120 -0.2757
 3073TIP3   OH233413   2.792   5.849   9.240  0.0558 -0.2486  0.0270
 3073TIP3    H133414   2.705   5.832   9.204  0.9742  0.9684 -3.1062
 3073TIP3    H233415   2.836   5.765   9.236  0.1035 -0.1758 -1.8235
 3074TIP3   OH233416   4.467   0.782   9.368  0.3708  0.2835 -0.2030
 3074TIP3    H133417   4.436   0.844   9.302 -0.5708 -2.3403 -2.3885
 3074TIP3    H233418   4.388   0.755   9.415  0.6025 -0.0573 -0.0013
 3075TIP3   OH233419   2.674   5.388   7.804  0.1440 -0.3067 -0.3268
 3075TIP3    H133420   2.603   5.347   7.755  0.2047 -2.3051  1.1646
 3075TIP3    H233421   2.633   5.466   7.843 -1.2914 -1.4616  0.5787
 3076TIP3   OH233422   5.344   2.569   8.705  0.1274 -0.3286 -0.1585
 3076TIP3    H133423   5.335   2.615   8.788 -0.1511 -1.0532  0.2123
 3076TIP3    H233424   5.274   2.505   8.704 -0.3455  0.1662 -1.2897
 3077TIP3   OH233425   3.091   3.411   8.465  0.1449  0.2770  0.0190
 3077TIP3    H133426   3.090   3.440   8.373  0.7095  1.1705  0.2771
 3077TIP3    H233427   3.002   3.382   8.482 -0.1591  0.8072 -0.6035
 3078TIP3   OH233428   0.963   5.802   8.666 -0.1634  0.0853 -0.1120
 3078TIP3    H133429   0.961   5.879   8.609  1.0668 -0.8979 -1.5625
 3078TIP3    H233430   0.937   5.729   8.609 -0.6833 -0.6789  1.0653
 3079TIP3   OH233431   4.560   0.515   7.626  0.2710  0.0886 -0.0726
 3079TIP3    H133432   4.519   0.578   7.568 -0.4890  1.1376  1.5412
 3079TIP3    H233433   4.621   0.567   7.679  3.1851 -1.2761 -1.8063
 3080TIP3   OH233434   0.025   0.557   7.561  0.8097  0.4611 -0.1608
 3080TIP3    H133435   0.078   0.594   7.491  0.1310  0.4903 -0.6667
 3080TIP3    H233436  -0.024   0.486   7.520  0.1691  0.6819  0.2048
 3081TIP3   OH233437   3.846   5.589   6.904 -0.5209 -0.6317  0.1340
 3081TIP3    H133438   3.827   5.647   6.829  0.5015 -0.9657 -0.4021
 3081TIP3    H233439   3.760   5.563   6.936 -1.0000  0.7147  0.0147
 3082TIP3   OH233440   6.348   1.146   7.244  0.0242  0.2691 -0.0337
 3082TIP3    H133441   6.313   1.218   7.192 -2.5272 -0.3340  0.6936
 3082TIP3    H233442   6.443   1.156   7.239 -0.2332  3.7290  0.1498
 3083TIP3   OH233443   3.258   4.471   7.761 -0.2493 -0.1176 -0.0452
 3083TIP3    H133444   3.226   4.499   7.675 -2.5764 -1.9867  0.1346
 3083TIP3    H233445   3.293   4.383   7.746  0.8560  0.1852  0.6383
 3084TIP3   OH233446   1.434   5.434   8.055  0.4447 -0.3860 -0.0682
 3084TIP3    H133447   1.482   5.440   8.138  1.4637 -2.2176 -0.4664
 3084TIP3    H233448   1.453   5.346   8.023 -1.6461 -0.4754 -1.2285
 3085TIP3   OH233449   7.138   4.134   9.056 -0.2980 -0.0734  0.0218
 3085TIP3    H133450   7.084   4.185   9.117  2.5921  1.3746  1.5505
 3085TIP3    H233451   7.188   4.074   9.111  0.6162 -0.4704 -1.1834
 3086TIP3   OH233452   3.263   6.379   7.661 -0.4739 -0.3191  0.2395
 3086TIP3    H133453   3.317   6.344   7.590  0.6349 -0.3308  1.0571
 3086TIP3    H233454   3.323   6.435   7.711 -1.1106 -0.6419  1.3943
 3087TIP3   OH233455   2.265   6.546   7.524  0.0315  0.0620 -0.6611
 3087TIP3    H133456   2.180   6.503   7.525 -1.1664  2.1987  1.6470
 3087TIP3    H233457   2.328   6.477   7.546 -1.2926 -1.2462 -0.8567
 3088TIP3   OH233458   3.865   1.258   7.106  0.2861  0.3288  0.5876
 3088TIP3    H133459   3.922   1.201   7.159  0.9156 -1.1874 -1.5688
 3088TIP3    H233460   3.776   1.232   7.130  0.5311  0.4983  1.7280
 3089TIP3   OH233461   0.997   5.994   8.466 -0.2888  0.5718 -0.4587
 3089TIP3    H133462   1.071   5.963   8.415 -1.3874 -1.6502 -0.8475
 3089TIP3    H233463   1.025   6.078   8.502  2.5443 -0.3676 -0.2506
 3090TIP3   OH233464   3.821   1.655   7.703 -1.0119 -0.0640  0.0426
 3090TIP3    H133465   3.726   1.650   7.691 -0.9601 -0.4390 -0.2570
 3090TIP3    H233466   3.837   1.605   7.783 -1.0481 -0.1546 -0.0060
 3091TIP3   OH233467   1.959   6.422   9.047 -0.9314  0.5854 -0.4592
 3091TIP3    H133468   1.903   6.495   9.074 -0.0443  1.0296  0.2293
 3091TIP3    H233469   1.973   6.437   8.953  0.6720  2.3617 -0.0134
 3092TIP3   OH233470   5.651   6.162   7.510 -0.3477  0.2107 -0.1710
 3092TIP3    H133471   5.734   6.177   7.464  0.0115  1.1028  0.7250
 3092TIP3    H233472   5.620   6.078   7.477 -0.1903  0.8834 -2.1557
 3093TIP3   OH233473   7.070   5.488   7.728 -0.1909  0.3081 -0.0538
 3093TIP3    H133474   7.119   5.556   7.681 -0.7420 -0.4108 -1.7186
 3093TIP3    H233475   7.104   5.405   7.694 -1.6917 -0.2152 -0.3446
 3094TIP3   OH233476   1.656   2.898   8.573  0.1469 -0.0428 -0.1334
 3094TIP3    H133477   1.563   2.875   8.570  0.0931  0.2419 -1.4889
 3094TIP3    H233478   1.688   2.859   8.653 -0.8985 -1.1048 -0.2039
 3095TIP3   OH233479   5.559   5.916   7.409  0.1065 -0.1772  0.1099
 3095TIP3    H133480   5.486   5.883   7.357  0.8811  0.0133 -1.1353
 3095TIP3    H233481   5.630   5.853   7.396  0.9658  0.9110 -0.7198
 3096TIP3   OH233482   4.490   1.817   8.006  0.4628  0.4591  0.0835
 3096TIP3    H133483   4.476   1.772   7.923 -0.9131  0.7756  0.1114
 3096TIP3    H233484   4.584   1.836   8.008  0.7243 -0.6375 -0.8195
 3097TIP3   OH233485   5.189   2.822   7.603  0.1713  0.2334  0.2472
 3097TIP3    H133486   5.138   2.765   7.546  0.8511 -0.2910  0.1524
 3097TIP3    H233487   5.127   2.852   7.670 -0.7074  1.0557 -0.8903
 3098TIP3   OH233488   6.708   2.763   8.406 -0.3387  0.6349  0.1932
 3098TIP3    H133489   6.658   2.734   8.331 -0.1109  0.9759 -0.0968
 3098TIP3    H233490   6.782   2.703   8.411  0.5219  1.5600 -0.8378
 3099TIP3   OH233491   7.507   5.995   8.441  0.2401 -0.2500 -0.4261
 3099TIP3    H133492   7.485   6.027   8.529 -0.9474 -0.8098 -0.5051
 3099TIP3    H233493   7.592   5.952   8.452  0.4337  0.2841  0.2945
 3100TIP3   OH233494   4.235   7.403   9.073 -0.4180 -0.2286  0.4299
 3100TIP3    H133495   4.251   7.453   8.993 -1.1525 -1.0229 -0.2325
 3100TIP3    H233496   4.322   7.385   9.109  0.0068 -1.0271 -0.9323
 3101TIP3   OH233497   0.516   4.280   8.537 -0.3244 -0.4146  0.0708
 3101TIP3    H133498   0.449   4.302   8.602 -0.6006  0.0328 -0.3655
 3101TIP3    H233499   0.595   4.267   8.589 -0.7422 -0.9442  0.5905
 3102TIP3   OH233500   1.918   0.716   6.924 -0.7256 -0.3168  0.3665
 3102TIP3    H133501   1.933   0.657   6.850  2.7122  1.6430 -0.7170
 3102TIP3    H233502   1.981   0.689   6.991  0.2081  1.4041  0.2437
 3103TIP3   OH233503   1.176   5.517   8.091  0.3027 -0.1796 -0.1869
 3103TIP3    H133504   1.267   5.495   8.068  0.5563  0.4459  0.2055
 3103TIP3    H233505   1.157   5.462   8.167  0.6378  0.2844  0.2428
 3104TIP3   OH233506   2.469   2.099   9.180 -0.5954  0.0154 -0.1094
 3104TIP3    H133507   2.379   2.131   9.179 -0.8311 -0.4428  2.0759
 3104TIP3    H233508   2.498   2.109   9.270  1.1525 -0.9441 -0.5059
 3105TIP3   OH233509   7.339   2.487   8.454 -0.3898  0.0043  0.7123
 3105TIP3    H133510   7.361   2.428   8.382 -0.6087 -2.1599  2.3394
 3105TIP3    H233511   7.313   2.569   8.411 -0.4606 -1.1822 -1.6363
 3106TIP3   OH233512   6.448   0.900   8.678 -0.0763  0.7789  0.4452
 3106TIP3    H133513   6.408   0.987   8.679 -1.7824  0.0626  2.5811
 3106TIP3    H233514   6.432   0.865   8.766  1.7232 -1.1993  0.0722
 3107TIP3   OH233515   7.639   0.261   6.838  0.7570  0.3266  0.1119
 3107TIP3    H133516   7.555   0.235   6.799  0.1467  0.8680  1.0223
 3107TIP3    H233517   7.699   0.191   6.815 -0.5096 -1.2653  1.3821
 3108TIP3   OH233518   6.665   2.079   7.980  0.0163 -0.1776 -0.0678
 3108TIP3    H133519   6.753   2.115   7.971  0.5500 -1.2118  0.7345
 3108TIP3    H233520   6.629   2.123   8.057  0.1946 -0.4450  0.1694
 3109TIP3   OH233521   0.175   2.714   8.089 -0.5949  0.1078  0.3625
 3109TIP3    H133522   0.140   2.627   8.106 -0.7080  0.3414  1.4338
 3109TIP3    H233523   0.114   2.774   8.132 -0.4895  0.7183 -0.3102
 3110TIP3   OH233524   0.318   6.009   9.139  0.6236  0.6775 -0.2502
 3110TIP3    H133525   0.396   6.055   9.169  0.4672  1.0320 -0.3787
 3110TIP3    H233526   0.333   5.996   9.045  0.1801  1.4510 -0.4313
 3111TIP3   OH233527   6.857   3.777   8.077  0.8270  0.0757  0.6785
 3111TIP3    H133528   6.842   3.822   8.160 -1.7414 -0.9305  0.8675
 3111TIP3    H233529   6.847   3.684   8.098 -1.3435 -0.1327 -0.9633
 3112TIP3   OH233530   0.993   6.980   7.493  0.3397  0.9803 -0.1317
 3112TIP3    H133531   0.897   6.975   7.500  0.2430  3.1479  0.9961
 3112TIP3    H233532   1.021   7.018   7.576  2.1595  0.7603 -0.6028
 3113TIP3   OH233533   6.247   1.877   8.208  0.4967 -0.3222 -0.0901
 3113TIP3    H133534   6.275   1.956   8.162  1.7334  0.3638  1.7367
 3113TIP3    H233535   6.309   1.810   8.179  0.1507 -0.3564 -0.7760
 3114TIP3   OH233536   0.279   6.369   8.901 -0.1862  0.3311  0.1306
 3114TIP3    H133537   0.262   6.411   8.817 -3.0699 -1.2822 -0.2450
 3114TIP3    H233538   0.335   6.294   8.880 -0.6994  0.0737 -0.3439
 3115TIP3   OH233539   0.837   7.578   8.677 -0.3212 -0.3085 -0.1510
 3115TIP3    H133540   0.829   7.483   8.667 -2.4692 -0.3212  0.9888
 3115TIP3    H233541   0.837   7.592   8.772 -0.7029  0.8605 -0.3084
 3116TIP3   OH233542   0.595   4.861   7.573 -0.1668 -0.1724 -0.2005
 3116TIP3    H133543   0.634   4.790   7.522  0.8420 -0.4268  0.8894
 3116TIP3    H233544   0.668   4.897   7.623 -0.8959  0.8959  0.1209
 3117TIP3   OH233545   5.529   5.444   7.514 -0.1437 -0.3586  0.5239
 3117TIP3    H133546   5.543   5.443   7.419 -0.8025  0.0882  0.4145
 3117TIP3    H233547   5.617   5.452   7.551  0.2221 -1.6301 -0.0134
 3118TIP3   OH233548   0.130   5.440   7.829  0.4038  0.1972 -0.0587
 3118TIP3    H133549   0.093   5.401   7.750 -0.1290  0.6610 -0.0417
 3118TIP3    H233550   0.214   5.475   7.801  2.0790 -3.0306  0.4335
 3119TIP3   OH233551   0.683   0.546   8.185  0.2967 -0.0662 -0.1119
 3119TIP3    H133552   0.719   0.633   8.170  0.5124 -0.0625  0.3822
 3119TIP3    H233553   0.728   0.489   8.123  2.0615 -0.2778  1.2574
 3120TIP3   OH233554   2.710   3.466   7.395  0.0570 -0.4250 -0.2192
 3120TIP3    H133555   2.639   3.404   7.376 -0.5656  0.3324 -0.4489
 3120TIP3    H233556   2.672   3.525   7.460  1.3104 -1.4555  1.5296
 3121TIP3   OH233557   6.035   4.486   7.290 -0.0453  0.1917  0.0213
 3121TIP3    H133558   6.058   4.440   7.209  0.7888  0.7925 -0.0900
 3121TIP3    H233559   6.084   4.568   7.286  0.1202  0.1675  1.2088
 3122TIP3   OH233560   1.467   4.659   7.469 -0.0577  0.8013 -0.1296
 3122TIP3    H133561   1.398   4.725   7.462  1.3715  2.2063 -1.9734
 3122TIP3    H233562   1.547   4.710   7.482  1.0398 -0.5842 -1.2253
 3123TIP3   OH233563   3.127   2.856   8.195  0.2275 -0.0012  0.2264
 3123TIP3    H133564   3.176   2.802   8.256  0.0544  1.2093  1.4747
 3123TIP3    H233565   3.142   2.815   8.109  0.4226 -1.7533  1.0633
 3124TIP3   OH233566   5.030   5.602   8.119  0.1333  0.6779 -0.0509
 3124TIP3    H133567   4.965   5.663   8.083 -0.9838 -0.3119  0.2324
 3124TIP3    H233568   5.043   5.630   8.209  0.0944  0.8774 -0.1076
 3125TIP3   OH233569   6.785   7.527   7.832 -0.0875 -0.6649 -0.3022
 3125TIP3    H133570   6.709   7.484   7.793  0.5936 -1.9673 -0.2518
 3125TIP3    H233571   6.750   7.572   7.908 -0.7453 -1.6877  0.0261
 3126TIP3   OH233572   1.025   5.439   9.489 -0.8772 -0.5699  0.5445
 3126TIP3    H133573   1.055   5.357   9.527 -0.4431 -1.4132 -1.4975
 3126TIP3    H233574   1.104   5.492   9.479 -0.9468 -0.4544  0.6107
 3127TIP3   OH233575   2.458   6.686   7.123  0.1462  0.0726  0.4290
 3127TIP3    H133576   2.533   6.682   7.064  1.7547  1.9948  2.1717
 3127TIP3    H233577   2.467   6.607   7.177 -0.6149 -1.0372 -1.0108
 3128TIP3   OH233578   7.237   4.519   7.750 -0.1110 -0.2467  0.2195
 3128TIP3    H133579   7.146   4.503   7.722 -0.1238  2.0088 -1.2370
 3128TIP3    H233580   7.235   4.606   7.790  1.3264 -0.4106  0.6913
 3129TIP3   OH233581   5.106   6.931   8.057 -0.1812  0.7433  0.8309
 3129TIP3    H133582   5.042   6.878   8.104 -0.1385  1.5337  1.8240
 3129TIP3    H233583   5.169   6.958   8.124  1.3633 -0.2192 -0.1619
 3130TIP3   OH233584   0.929   3.808   7.455  0.0225 -0.1846  0.4760
 3130TIP3    H133585   0.948   3.771   7.369 -2.5851  0.2279 -0.3767
 3130TIP3    H233586   0.990   3.881   7.464 -0.1954  0.2751 -1.4051
 3131TIP3   OH233587   2.244   1.930   8.733  0.2972 -0.5579  0.0769
 3131TIP3    H133588   2.210   1.983   8.661 -0.4639 -0.0579  0.7876
 3131TIP3    H233589   2.170   1.877   8.762  0.2437  0.1242  1.2712
 3132TIP3   OH233590   0.561   0.220   8.847 -0.5627  0.4705  0.2112
 3132TIP3    H133591   0.488   0.279   8.827 -0.5672 -0.0404 -1.4547
 3132TIP3    H233592   0.553   0.149   8.783 -0.3393 -1.1746  1.9141
 3133TIP3   OH233593   4.149   1.192   6.776 -0.0317  0.2274 -0.0650
 3133TIP3    H133594   4.081   1.142   6.731 -1.1780  0.0881  1.7084
 3133TIP3    H233595   4.121   1.283   6.769  0.4990  0.3386 -0.7750
 3134TIP3   OH233596   0.286   4.387   7.903  0.1570  0.2805 -0.5759
 3134TIP3    H133597   0.217   4.450   7.882 -0.1480 -0.0784 -0.6781
 3134TIP3    H233598   0.274   4.368   7.996  0.8241  1.0514 -0.3176
 3135TIP3   OH233599   1.062   5.753   9.215  0.3449 -0.0945  0.2302
 3135TIP3    H133600   1.074   5.811   9.291 -0.1722 -1.6053  1.5227
 3135TIP3    H233601   0.979   5.783   9.176  1.3979  1.7202 -0.7460
 3136TIP3   OH233602   0.438   0.121   9.522  0.2408  0.7139 -0.4041
 3136TIP3    H133603   0.419   0.124   9.616 -1.0061  0.0227 -0.6111
 3136TIP3    H233604   0.431   0.028   9.499 -0.2214  0.9590 -1.3149
 3137TIP3   OH233605   3.430   3.851   7.897 -0.0952  0.1361  0.1809
 3137TIP3    H133606   3.433   3.836   7.802 -0.4520  0.1545  0.1624
 3137TIP3    H233607   3.514   3.891   7.918 -0.1642  0.4887 -0.1943
 3138TIP3   OH233608   7.560   0.431   8.033  0.0045 -0.0735  0.1811
 3138TIP3    H133609   7.590   0.374   7.962 -1.3845  0.9751 -1.3105
 3138TIP3    H233610   7.616   0.508   8.028 -0.7189  0.4265 -0.4419
 3139TIP3   OH233611   7.134   7.666   6.673  0.0412  0.2937 -0.3436
 3139TIP3    H133612   7.041   7.684   6.688 -0.2000 -1.6862  0.9152
 3139TIP3    H233613   7.134   7.593   6.610  0.7677  0.5869 -0.6906
 3140TIP3   OH233614   6.269   7.199   8.798 -0.3305 -0.3783  0.4963
 3140TIP3    H133615   6.177   7.211   8.822 -0.3322  0.4842  0.0870
 3140TIP3    H233616   6.282   7.258   8.724  0.8164  0.2741  1.1953
 3141TIP3   OH233617   3.338   4.690   9.204  0.1713  0.4925 -0.0551
 3141TIP3    H133618   3.420   4.738   9.216  0.3787 -0.1578  1.3239
 3141TIP3    H233619   3.357   4.627   9.134  1.0387 -0.0254  0.6226
 3142TIP3   OH233620   4.259   6.590   6.900 -0.3235  0.0639 -0.1187
 3142TIP3    H133621   4.251   6.664   6.839 -0.5453  0.0817 -0.0702
 3142TIP3    H233622   4.171   6.552   6.902 -0.7183  0.9715  1.3382
 3143TIP3   OH233623   3.899   0.187   7.980 -0.4765  0.2302  0.4047
 3143TIP3    H133624   3.981   0.219   7.942  0.7126 -0.2892  2.4159
 3143TIP3    H233625   3.832   0.243   7.941  1.1697  3.1154  1.3551
 3144TIP3   OH233626   1.128   4.125   8.182  0.3856  0.2688 -0.2567
 3144TIP3    H133627   1.133   4.218   8.204 -1.3447  0.3968 -0.2691
 3144TIP3    H233628   1.093   4.123   8.093 -0.2670 -0.3877 -0.0045
 3145TIP3   OH233629   4.766   7.239   8.031 -0.2839  0.0392  0.4483
 3145TIP3    H133630   4.858   7.240   8.058 -0.0069  1.7987 -0.3658
 3145TIP3    H233631   4.719   7.274   8.106 -0.0605  0.6848  0.3007
 3146TIP3   OH233632   0.278   6.605   7.970 -0.1805 -0.2363  0.0170
 3146TIP3    H133633   0.229   6.529   7.936  0.4716 -1.2975  1.3635
 3146TIP3    H233634   0.262   6.604   8.064  1.8966 -0.2411  0.4159
 3147TIP3   OH233635   0.049   2.629   7.565  0.1489 -0.4426  0.0366
 3147TIP3    H133636   0.125   2.680   7.593 -1.3673  1.4325  1.0876
 3147TIP3    H233637  -0.006   2.624   7.644 -1.3564 -0.6266 -0.9741
 3148TIP3   OH233638   7.629   6.264   6.792 -0.3644 -0.1100  0.2384
 3148TIP3    H133639   7.631   6.301   6.880 -0.7974 -1.1075  0.6827
 3148TIP3    H233640   7.720   6.265   6.763  0.1022 -1.6170  1.5051
 3149TIP3   OH233641   4.703   5.988   8.861  0.0062  0.3811 -0.0412
 3149TIP3    H133642   4.611   5.986   8.886 -0.6027  1.2243 -2.0185
 3149TIP3    H233643   4.722   5.899   8.831 -0.7718  0.7008 -1.5449
 3150TIP3   OH233644   5.941   5.288   6.705 -0.2208 -0.5271 -0.1788
 3150TIP3    H133645   5.883   5.323   6.637  0.9044 -1.6615 -1.8183
 3150TIP3    H233646   5.893   5.213   6.741  0.1473 -1.4203 -1.4780
 3151TIP3   OH233647   2.625   2.246   7.914  0.4276 -0.2565  0.0788
 3151TIP3    H133648   2.600   2.174   7.971  2.1374 -0.6720  0.3494
 3151TIP3    H233649   2.642   2.319   7.973  1.0309 -0.3405  0.0195
 3152TIP3   OH233650   7.200   3.878   9.415  0.5935  1.1481  0.0251
 3152TIP3    H133651   7.142   3.812   9.377 -1.2140  1.2068  2.4234
 3152TIP3    H233652   7.266   3.895   9.347  0.9860 -2.8586 -0.8384
 3153TIP3   OH233653   4.148   1.504   9.413 -0.4148  0.2099  0.4440
 3153TIP3    H133654   4.073   1.557   9.388  0.5618  2.3199  1.7392
 3153TIP3    H233655   4.114   1.414   9.416 -2.2353  0.7697 -1.3542
 3154TIP3   OH233656   5.332   3.909   8.123  0.2685 -1.1205 -0.3759
 3154TIP3    H133657   5.302   3.925   8.212  1.1306 -0.3108 -0.2217
 3154TIP3    H233658   5.280   3.968   8.069  0.7061 -0.6058 -0.2452
 3155TIP3   OH233659   5.346   5.968   7.042  0.0679 -0.4418  0.0413
 3155TIP3    H133660   5.251   5.979   7.032  0.0287  0.6962  1.3549
 3155TIP3    H233661   5.384   6.040   6.991  0.1359  0.3245  1.1408
 3156TIP3   OH233662   1.624   5.574   6.294 -0.3535  0.1529 -0.3471
 3156TIP3    H133663   1.608   5.634   6.367  1.2300 -0.4247  0.5201
 3156TIP3    H233664   1.575   5.495   6.316  1.7033 -0.8054  1.2222
 3157TIP3   OH233665   4.153   2.735   9.173 -0.1741 -0.3923 -0.1394
 3157TIP3    H133666   4.086   2.787   9.219  0.6095 -0.5787  1.2668
 3157TIP3    H233667   4.103   2.675   9.118 -1.1708 -0.2064  0.5267
 3158TIP3   OH233668   5.494   6.926   8.334 -0.1011 -0.5202 -0.0524
 3158TIP3    H133669   5.495   6.891   8.423  2.9678  2.2700  1.2103
 3158TIP3    H233670   5.540   6.859   8.282  0.2866 -1.0763  0.9783
 3159TIP3   OH233671   2.611   5.523   8.873  0.2490  0.5316 -0.2345
 3159TIP3    H133672   2.559   5.495   8.798  0.6957  2.1542 -1.1881
 3159TIP3    H233673   2.547   5.533   8.944 -0.0602 -1.8408 -0.0876
 3160TIP3   OH233674   3.628   2.728   9.425  0.0384  0.2841  0.3898
 3160TIP3    H133675   3.657   2.690   9.342  0.5913 -0.3908  0.8833
 3160TIP3    H233676   3.556   2.786   9.400  0.1848  0.0834 -0.5600
 3161TIP3   OH233677   6.775   4.387   9.525 -0.6264 -0.0137 -0.2806
 3161TIP3    H133678   6.692   4.379   9.479  0.3155  0.9322 -2.2760
 3161TIP3    H233679   6.815   4.466   9.488  1.4848 -0.8582  0.0793
 3162TIP3   OH233680   4.016   6.268   6.874 -0.0045  0.4740 -0.4387
 3162TIP3    H133681   4.084   6.249   6.809  0.2055  1.8264 -0.6315
 3162TIP3    H233682   4.009   6.363   6.875  0.2038  0.5183  1.7416
 3163TIP3   OH233683   3.965   3.321   7.393  0.6453 -0.6105  0.2359
 3163TIP3    H133684   4.015   3.299   7.315 -0.0508  1.5688 -0.9042
 3163TIP3    H233685   4.031   3.358   7.453  0.4272  4.0282 -1.9600
 3164TIP3   OH233686   3.850   3.143   7.129 -0.7929 -0.7591  0.3639
 3164TIP3    H133687   3.930   3.197   7.133 -1.2679  0.0657 -0.7557
 3164TIP3    H233688   3.881   3.053   7.133  0.1365 -0.4300  0.7815
 3165TIP3   OH233689   0.657   0.730   8.844 -0.5401  0.9460  0.3327
 3165TIP3    H133690   0.734   0.751   8.897 -0.0407  2.0316 -0.7855
 3165TIP3    H233691   0.683   0.750   8.754 -2.0740  1.1854 -0.0883
 3166TIP3   OH233692   1.464   5.907   9.165 -0.0188  0.1185 -0.4096
 3166TIP3    H133693   1.375   5.930   9.192 -0.2982 -1.6035  0.2494
 3166TIP3    H233694   1.505   5.991   9.142 -1.8133  0.9370 -0.7606
 3167TIP3   OH233695   0.562   5.114   7.983  0.6979 -0.4215 -0.4412
 3167TIP3    H133696   0.557   5.207   7.961  1.7473  0.1127  1.4218
 3167TIP3    H233697   0.476   5.079   7.958 -0.1223  1.2763 -0.1154
 3168TIP3   OH233698   3.432   3.620   8.062  0.0465  0.1944 -0.1280
 3168TIP3    H133699   3.386   3.658   8.136  2.0090 -1.0635  1.8346
 3168TIP3    H233700   3.411   3.679   7.989 -0.1260  2.8238  1.8732
 3169TIP3   OH233701   3.831   3.159   9.273 -0.0798 -0.4499 -0.2377
 3169TIP3    H133702   3.754   3.102   9.267  0.5448 -1.2992 -0.5460
 3169TIP3    H233703   3.796   3.247   9.286 -1.1407 -0.6419 -1.5848
 3170TIP3   OH233704   1.088   5.399   8.788 -0.2423  0.0986  0.3570
 3170TIP3    H133705   1.162   5.401   8.727 -0.5108  2.5687  0.0276
 3170TIP3    H233706   1.102   5.474   8.845 -1.2383 -0.8238  1.8793
 3171TIP3   OH233707   5.622   0.663   7.561 -0.6008  0.0554  0.5251
 3171TIP3    H133708   5.533   0.629   7.554 -0.6838  0.5448 -1.2079
 3171TIP3    H233709   5.624   0.737   7.501  0.1234  1.9868  2.7961
 3172TIP3   OH233710   0.234   0.750   9.397 -0.1574 -0.0971 -0.1688
 3172TIP3    H133711   0.323   0.716   9.388  0.0410  0.1543  0.6959
 3172TIP3    H233712   0.179   0.672   9.400 -0.0575 -0.2343 -1.4809
 3173TIP3   OH233713   5.744   1.857   7.555  0.4838 -0.4567 -0.4148
 3173TIP3    H133714   5.695   1.776   7.564 -0.0589 -0.0231  0.9427
 3173TIP3    H233715   5.827   1.840   7.600  0.4043 -0.3007 -0.2046
 3174TIP3   OH233716   1.114   1.393   8.748 -0.4013 -0.0122  0.2702
 3174TIP3    H133717   1.053   1.447   8.697  0.6016  0.9142  0.0256
 3174TIP3    H233718   1.062   1.363   8.822 -1.1380  0.8428  0.1194
 3175TIP3   OH233719   5.777   4.743   7.709 -1.1180  0.4569 -0.5217
 3175TIP3    H133720   5.821   4.678   7.655  2.2475  0.8685  1.4644
 3175TIP3    H233721   5.704   4.695   7.749 -1.7912 -0.6472 -2.8816
 3176TIP3   OH233722   2.111   2.301   8.815 -0.1059 -0.0765 -0.0637
 3176TIP3    H133723   2.051   2.238   8.775  0.1445 -0.5160  0.2468
 3176TIP3    H233724   2.078   2.387   8.788 -1.6678 -0.2467  1.1745
 3177TIP3   OH233725   3.081   3.072   7.462 -0.1877 -0.1840  0.3617
 3177TIP3    H133726   3.144   3.000   7.454 -0.7486 -0.7006  0.5361
 3177TIP3    H233727   3.119   3.143   7.410  1.0580 -0.1224  1.2890
 3178TIP3   OH233728   4.529   1.901   9.308  0.7315 -0.5261  0.1996
 3178TIP3    H133729   4.527   1.967   9.378 -1.3697  0.1222 -0.4081
 3178TIP3    H233730   4.477   1.828   9.342 -0.5433 -0.0905 -0.7600
 3179TIP3   OH233731   1.338   6.230   8.289  0.3197  0.1372 -0.4644
 3179TIP3    H133732   1.309   6.157   8.234 -0.9829  0.0770  0.2825
 3179TIP3    H233733   1.424   6.204   8.320  0.0945 -0.8431 -0.6405
 3180TIP3   OH233734   6.465   2.903   7.991  0.8036 -0.2661  0.3533
 3180TIP3    H133735   6.485   2.989   7.953  0.0973 -0.8186 -1.3568
 3180TIP3    H233736   6.440   2.849   7.916  1.7376 -2.1384  1.3257
 3181TIP3   OH233737   1.933   4.129   7.203 -0.0097  0.2148 -0.0654
 3181TIP3    H133738   2.027   4.144   7.215  0.0901  1.0479 -1.6063
 3181TIP3    H233739   1.908   4.190   7.133 -1.8870  0.6374  0.9023
 3182TIP3   OH233740   3.821   2.805   8.553 -0.3146 -0.3220 -0.6372
 3182TIP3    H133741   3.844   2.807   8.646  0.4144 -1.1208 -0.7919
 3182TIP3    H233742   3.788   2.893   8.535  0.2129  0.0636  0.2098
 3183TIP3   OH233743   4.967   0.780   7.849  0.1362 -0.0405  0.0307
 3183TIP3    H133744   5.013   0.814   7.772  0.5583 -0.8488 -0.0874
 3183TIP3    H233745   5.022   0.806   7.923 -0.7961  1.6450  0.1864
 3184TIP3   OH233746   5.544   5.975   8.036  0.4737 -0.0530 -0.8161
 3184TIP3    H133747   5.531   6.007   8.125 -0.7640 -0.9205 -0.6531
 3184TIP3    H233748   5.573   6.052   7.987  0.6609  0.5586  0.2100
 3185TIP3   OH233749   5.177   6.147   8.847  0.0013  0.0335 -0.1570
 3185TIP3    H133750   5.240   6.102   8.791  1.0862  1.3017 -0.0259
 3185TIP3    H233751   5.188   6.240   8.825  1.9437  0.8539  3.4476
 3186TIP3   OH233752   6.221   5.622   8.595  0.3653  0.1849  0.1534
 3186TIP3    H133753   6.242   5.639   8.503  1.4866 -0.5597  0.2593
 3186TIP3    H233754   6.187   5.532   8.595 -3.3937  1.4144 -0.0681
 3187TIP3   OH233755   6.956   0.665   9.250 -0.4693 -0.1312  0.4072
 3187TIP3    H133756   6.869   0.627   9.260 -0.8284  0.2317 -1.1105
 3187TIP3    H233757   6.940   0.756   9.226  0.2138 -0.6179 -2.2656
 3188TIP3   OH233758   5.836   6.258   8.439  0.3108  0.1385 -0.4150
 3188TIP3    H133759   5.833   6.189   8.372  0.7901  0.9729 -1.3312
 3188TIP3    H233760   5.899   6.321   8.404 -0.0082  0.9637  0.4797
 3189TIP3   OH233761   1.157   2.586   9.540 -0.5167 -0.0144 -0.3371
 3189TIP3    H133762   1.129   2.497   9.521  1.0067 -0.4342 -0.8177
 3189TIP3    H233763   1.131   2.602   9.631  1.6906 -2.0609  0.7789
 3190TIP3   OH233764   3.109   2.824   8.573  0.2529 -0.4659 -0.5499
 3190TIP3    H133765   3.062   2.879   8.636 -1.1432 -1.5491 -0.6086
 3190TIP3    H233766   3.198   2.859   8.574 -0.1990  0.7683  0.5934
 3191TIP3   OH233767   7.486   7.344   8.769 -0.1587 -0.0133  0.2003
 3191TIP3    H133768   7.505   7.435   8.792  2.4027 -0.1525 -0.9587
 3191TIP3    H233769   7.504   7.339   8.675  0.6148 -1.8894  0.4024
 3192TIP3   OH233770   3.415   0.426   7.986  0.1952 -0.0393  0.6222
 3192TIP3    H133771   3.435   0.458   7.898  1.8732 -1.5671  0.3998
 3192TIP3    H233772   3.322   0.406   7.983  0.1618  0.1939 -0.7208
 3193TIP3   OH233773   2.491   5.594   8.385  0.1580 -0.1818  0.0797
 3193TIP3    H133774   2.450   5.554   8.308 -0.4582 -0.7576  0.6867
 3193TIP3    H233775   2.582   5.567   8.381  0.5847  1.2875 -1.4135
 3194TIP3   OH233776   0.252   6.783   9.262  0.5140 -0.3950  0.3313
 3194TIP3    H133777   0.337   6.818   9.237 -0.4706  1.0631 -1.1837
 3194TIP3    H233778   0.271   6.694   9.292  2.6613  0.2049  0.9516
 3195TIP3   OH233779   3.384   0.712   9.076 -0.5726 -0.0714 -0.3545
 3195TIP3    H133780   3.290   0.726   9.079 -0.7151 -0.8660 -0.6534
 3195TIP3    H233781   3.405   0.708   8.983 -0.1991  0.3754 -0.2896
 3196TIP3   OH233782   3.472   1.770   7.926 -0.4314 -0.0249 -0.4270
 3196TIP3    H133783   3.448   1.682   7.954  0.0623  0.4429  1.6367
 3196TIP3    H233784   3.447   1.774   7.834 -1.5492 -1.9174 -0.2484
 3197TIP3   OH233785   3.501   6.918   8.252 -0.5007  0.0411  0.2417
 3197TIP3    H133786   3.494   6.840   8.307 -1.2625 -0.3388 -0.3782
 3197TIP3    H233787   3.437   6.904   8.182 -3.0536  2.6088  1.8107
 3198TIP3   OH233788   0.777   0.637   7.542  0.5713  0.6658 -0.0791
 3198TIP3    H133789   0.700   0.633   7.599  0.2751  4.3456  0.0177
 3198TIP3    H233790   0.751   0.590   7.463 -0.5549 -0.8546  1.1216
 3199TIP3   OH233791   6.147   5.138   8.397 -0.4836 -0.4757 -0.0688
 3199TIP3    H133792   6.164   5.091   8.479  0.6859 -1.6481 -0.9354
 3199TIP3    H233793   6.122   5.070   8.335  0.6773  0.1000 -1.2168
 3200TIP3   OH233794   3.333   3.274   8.503 -0.0085  0.0171  0.0510
 3200TIP3    H133795   3.246   3.314   8.500 -0.3036 -0.6102  0.1765
 3200TIP3    H233796   3.393   3.349   8.501 -0.5504  0.4659  0.1839
 3201TIP3   OH233797   7.558   3.011   7.727 -0.1374 -0.2930 -0.1476
 3201TIP3    H133798   7.562   3.103   7.753 -0.2559 -0.7092  1.4442
 3201TIP3    H233799   7.625   3.002   7.659 -1.2373  1.3132 -1.5090
 3202TIP3   OH233800   5.464   2.517   7.196  0.5394  0.3951 -0.4729
 3202TIP3    H133801   5.492   2.539   7.285 -1.7205 -1.1246  0.7161
 3202TIP3    H233802   5.417   2.594   7.165 -0.4779  0.1929  0.5092
 3203TIP3   OH233803   1.112   7.143   7.701 -0.2387  0.2051 -0.1565
 3203TIP3    H133804   1.188   7.193   7.670  0.7763 -0.8092  0.6469
 3203TIP3    H233805   1.084   7.190   7.779 -0.0347  0.2104 -0.0851
 3204TIP3   OH233806   1.166   3.695   8.399 -0.5028  0.1365  0.0166
 3204TIP3    H133807   1.094   3.749   8.434  0.0744  0.2039  1.1507
 3204TIP3    H233808   1.209   3.752   8.336 -0.1780  0.8651  0.8732
 3205TIP3   OH233809   3.738   7.444   7.343  0.2202 -0.4546 -0.1257
 3205TIP3    H133810   3.684   7.479   7.272  2.2537  4.7728  0.4798
 3205TIP3    H233811   3.708   7.490   7.421  2.7848 -0.5227  0.9938
 3206TIP3   OH233812   0.507   4.491   8.974  0.3072 -0.2177  0.1244
 3206TIP3    H133813   0.570   4.530   9.035  0.3762 -0.6129  0.3083
 3206TIP3    H233814   0.548   4.499   8.888  0.1002  0.5734  0.0944
 3207TIP3   OH233815   5.287   7.557   8.166 -0.0122 -0.3792 -0.1848
 3207TIP3    H133816   5.208   7.606   8.188  0.6748  1.1162 -0.9651
 3207TIP3    H233817   5.358   7.621   8.170  0.9088 -1.2810 -1.2873
 3208TIP3   OH233818   3.929   5.487   7.872  0.0712 -0.0629  0.5831
 3208TIP3    H133819   3.990   5.558   7.892  0.1076  0.5185 -1.3799
 3208TIP3    H233820   3.981   5.407   7.881  1.2974  0.4383 -1.3691
 3209TIP3   OH233821   0.696   0.625   9.237 -0.6601  0.2162 -0.9477
 3209TIP3    H133822   0.713   0.539   9.200  0.6474 -1.0526  2.2329
 3209TIP3    H233823   0.783   0.664   9.248 -0.8933  0.2909  1.1033
 3210TIP3   OH233824   2.351   3.162   7.895  0.6346 -0.1183 -0.0371
 3210TIP3    H133825   2.310   3.076   7.888  3.1951 -1.4249  0.0633
 3210TIP3    H233826   2.309   3.201   7.972  0.6000 -1.9773  0.9541
 3211TIP3   OH233827   3.957   2.258   8.972  0.3639  0.2261 -0.2793
 3211TIP3    H133828   3.949   2.352   8.987  0.2104  0.0327  0.9310
 3211TIP3    H233829   4.051   2.242   8.969  0.4093  0.2410  0.7786
 3212TIP3   OH233830   3.036   6.903   8.335  0.1472 -0.0087  0.1254
 3212TIP3    H133831   3.037   6.919   8.430 -1.9981  0.8610  0.0535
 3212TIP3    H233832   3.110   6.845   8.320  1.9783  1.6537  1.9878
 3213TIP3   OH233833   4.155   5.844   7.374 -0.1860 -0.0766  0.1870
 3213TIP3    H133834   4.148   5.801   7.288  1.8096 -0.6937  0.2807
 3213TIP3    H233835   4.195   5.929   7.355 -2.2221  0.9423  0.2436
 3214TIP3   OH233836   3.869   6.454   8.635  0.2006  0.0310  0.3383
 3214TIP3    H133837   3.881   6.418   8.722  1.6470 -0.6702 -0.1150
 3214TIP3    H233838   3.955   6.489   8.611 -0.2974  0.6622 -0.6167
 3215TIP3   OH233839   4.866   2.524   7.224  0.3460 -0.4225  0.2749
 3215TIP3    H133840   4.880   2.556   7.135 -0.4237 -1.5322 -0.2713
 3215TIP3    H233841   4.779   2.555   7.248  0.1004 -1.0643  0.2153
 3216TIP3   OH233842   1.071   2.062   8.125 -0.3549  1.0321 -0.0260
 3216TIP3    H133843   1.097   2.154   8.124  0.3929  0.8341  0.4976
 3216TIP3    H233844   1.054   2.041   8.033 -0.1355  1.5797 -0.1954
 3217TIP3   OH233845   6.091   7.512   6.716 -0.2919 -0.1447 -0.1127
 3217TIP3    H133846   6.024   7.576   6.740  0.2416  0.3501  0.0754
 3217TIP3    H233847   6.166   7.534   6.771 -0.7778 -2.2359  1.5351
 3218TIP3   OH233848   6.807   6.365   7.850  0.2599 -0.2373  0.3240
 3218TIP3    H133849   6.789   6.420   7.774  0.7432  0.3166  0.6111
 3218TIP3    H233850   6.880   6.309   7.823  2.1328  1.6674  1.1925
 3219TIP3   OH233851   6.882   5.773   8.661 -0.0380 -0.8851  0.2345
 3219TIP3    H133852   6.825   5.756   8.586  0.0314 -0.5155  0.0949
 3219TIP3    H233853   6.833   5.739   8.736 -0.6139 -0.2514  0.1593
 3220TIP3   OH233854   1.263   2.982   7.293 -0.7536  0.2956 -0.8323
 3220TIP3    H133855   1.241   2.889   7.291 -1.6014  0.3336  2.3815
 3220TIP3    H233856   1.345   2.986   7.342 -0.8976  1.2574 -0.6489
 3221TIP3   OH233857   5.834   4.941   7.880  0.0715  0.0975  0.3013
 3221TIP3    H133858   5.819   4.866   7.823  1.4200  1.4716 -2.0264
 3221TIP3    H233859   5.759   4.999   7.862  0.9141  0.8923 -0.7684
 3222TIP3   OH233860   4.167   7.054   9.171 -0.3390  0.2354 -0.0084
 3222TIP3    H133861   4.207   7.053   9.258 -2.2121 -0.3140  0.8996
 3222TIP3    H233862   4.073   7.045   9.188 -0.7708  0.4178 -2.0851
 3223TIP3   OH233863   3.630   5.470   7.425  0.2614  0.1272  0.8191
 3223TIP3    H133864   3.647   5.456   7.518  1.3204  0.3561  0.6734
 3223TIP3    H233865   3.611   5.383   7.391  1.5084 -0.2142  0.9452
 3224TIP3   OH233866   0.786   6.147   9.345 -0.2999  0.6335  0.0234
 3224TIP3    H133867   0.730   6.115   9.415  0.9064 -0.6499  0.4387
 3224TIP3    H233868   0.809   6.236   9.371  1.1649 -0.2374  1.9588
 3225TIP3   OH233869   3.554   6.026   7.608 -0.4008 -0.8538  0.5020
 3225TIP3    H133870   3.468   6.067   7.609  0.2012  0.5207 -0.7837
 3225TIP3    H233871   3.538   5.939   7.571 -1.2165 -0.5504  0.1014
 3226TIP3   OH233872   0.814   4.419   8.035  0.2012 -0.4753  0.4217
 3226TIP3    H133873   0.822   4.514   8.025 -2.5072 -0.2803 -0.6053
 3226TIP3    H233874   0.893   4.384   7.993  1.1666  1.2706  0.6669
 3227TIP3   OH233875   4.201   1.293   7.059  0.8626 -0.3287 -0.5941
 3227TIP3    H133876   4.169   1.236   6.989  0.6491 -0.6751 -0.2165
 3227TIP3    H233877   4.281   1.250   7.090  0.3178 -0.8117  0.1730
 3228TIP3   OH233878   7.573   4.651   9.280  0.1040 -0.5006 -0.3787
 3228TIP3    H133879   7.521   4.667   9.358  0.9154 -0.6101  0.2031
 3228TIP3    H233880   7.521   4.591   9.227 -1.4241  1.2269 -0.9453
 3229TIP3   OH233881   4.345   7.225   7.359  0.1131 -0.3166  0.0003
 3229TIP3    H133882   4.308   7.296   7.411  1.0270 -0.2447  0.5724
 3229TIP3    H233883   4.357   7.263   7.272  0.1690  0.0895  0.1848
 3230TIP3   OH233884   6.394   1.835   8.687  0.1553 -0.3894  0.1509
 3230TIP3    H133885   6.401   1.876   8.773 -0.0275 -1.0814  0.5063
 3230TIP3    H233886   6.381   1.908   8.626  0.3078  0.1077  0.7034
 3231TIP3   OH233887   6.873   4.598   7.266 -0.0930 -0.2081  0.2061
 3231TIP3    H133888   6.812   4.668   7.290 -0.5815  0.8650 -3.5985
 3231TIP3    H233889   6.949   4.611   7.323 -1.1154  1.9645  1.1667
 3232TIP3   OH233890   5.045   1.860   9.485  0.0848  0.2205 -0.5026
 3232TIP3    H133891   4.954   1.886   9.469 -0.1808  1.2236  2.1247
 3232TIP3    H233892   5.097   1.928   9.443 -0.4979  1.5091  0.7770
 3233TIP3   OH233893   7.514   1.761   7.558 -0.1244 -0.0835 -0.1323
 3233TIP3    H133894   7.490   1.703   7.485 -1.3752 -2.9741  2.3813
 3233TIP3    H233895   7.449   1.832   7.554  0.4214  0.3658 -2.3131
 3234TIP3   OH233896   3.351   4.482   8.985  0.3060 -0.1536  0.3962
 3234TIP3    H133897   3.404   4.498   8.907 -0.0516  1.0861  0.3979
 3234TIP3    H233898   3.297   4.407   8.962  1.2552 -0.7350 -0.0073
 3235TIP3   OH233899   6.162   6.788   8.102  0.0013  0.2995 -0.4415
 3235TIP3    H133900   6.137   6.876   8.074 -1.2541  0.0787 -0.1006
 3235TIP3    H233901   6.094   6.731   8.067 -0.1168 -0.3162  0.7270
 3236TIP3   OH233902   6.326   3.467   8.384 -0.0562 -0.1603 -0.5765
 3236TIP3    H133903   6.252   3.489   8.441 -0.3191  0.2081 -1.0489
 3236TIP3    H233904   6.350   3.378   8.410 -0.2342 -0.0380  0.0380
 3237TIP3   OH233905   5.040   2.492   9.195 -0.0087 -0.2305  0.3582
 3237TIP3    H133906   4.986   2.429   9.241  0.4959 -1.7568 -1.0394
 3237TIP3    H233907   5.090   2.440   9.133  4.3069  0.8079  2.5895
 3238TIP3   OH233908   6.490   5.684   6.892 -0.5835  0.3916 -0.8385
 3238TIP3    H133909   6.481   5.682   6.988 -2.1098 -2.5975 -0.9163
 3238TIP3    H233910   6.413   5.732   6.862 -0.1531  1.2477 -0.6278
 3239TIP3   OH233911   0.304   2.504   8.613  0.3968 -0.3200 -0.1014
 3239TIP3    H133912   0.308   2.535   8.703  1.2338  1.0623 -0.5829
 3239TIP3    H233913   0.396   2.503   8.585  0.1095 -0.3315 -1.0570
 3240TIP3   OH233914   3.385   7.165   7.237 -0.9749  0.7336  0.5450
 3240TIP3    H133915   3.336   7.110   7.175 -1.0256  1.5017 -0.1040
 3240TIP3    H233916   3.363   7.129   7.323 -0.9123 -0.3433  0.1256
 3241TIP3   OH233917   4.806   3.522   9.015 -0.8599  0.4502 -0.4770
 3241TIP3    H133918   4.855   3.462   8.959 -1.8351  0.0866 -0.9512
 3241TIP3    H233919   4.784   3.596   8.958  1.4052  1.9325  0.3947
 3242TIP3   OH233920   7.229   2.617   7.849  0.1592 -0.2933 -0.0026
 3242TIP3    H133921   7.306   2.585   7.895  0.0894 -1.3001 -0.5557
 3242TIP3    H233922   7.263   2.664   7.773  0.2428 -1.1941 -0.5404
 3243TIP3   OH233923   4.198   1.096   9.035 -0.0367 -0.1257 -0.2377
 3243TIP3    H133924   4.190   1.023   8.974  0.5112  1.6570 -2.6108
 3243TIP3    H233925   4.208   1.173   8.979  3.0098  1.4095  2.0703
 3244TIP3   OH233926   5.466   5.932   7.702 -0.1102  0.3075  0.5687
 3244TIP3    H133927   5.541   5.880   7.729  0.7718  1.1828 -0.1493
 3244TIP3    H233928   5.478   5.946   7.608 -0.1439  2.0468  0.7905
 3245TIP3   OH233929   4.061   0.172   6.716 -0.2039  0.4614 -0.1453
 3245TIP3    H133930   3.986   0.183   6.657 -0.0366  1.2893 -0.2120
 3245TIP3    H233931   4.024   0.184   6.803 -0.4213 -0.6046 -0.0733
 3246TIP3   OH233932   7.282   2.959   7.681  0.0439 -0.4314  0.2930
 3246TIP3    H133933   7.374   2.954   7.709 -0.3460 -1.1719  1.5005
 3246TIP3    H233934   7.250   3.041   7.717  0.3396  0.0576 -0.5233
 3247TIP3   OH233935   1.356   0.421   8.016  0.2069 -0.7984  0.3453
 3247TIP3    H133936   1.429   0.422   8.077  0.7596  0.3619 -0.3109
 3247TIP3    H233937   1.352   0.509   7.980 -1.3088 -0.9247  0.1025
 3248TIP3   OH233938   4.691   1.017   9.027 -0.3844 -0.4094 -0.7275
 3248TIP3    H133939   4.717   0.950   8.964 -1.4953  0.2475 -1.9265
 3248TIP3    H233940   4.596   1.028   9.014 -0.8175 -0.7580  1.5547
 3249TIP3   OH233941   5.722   1.230   9.631 -0.7037 -0.2927  0.1577
 3249TIP3    H133942   5.771   1.182   9.565 -0.8059 -1.6889  1.0378
 3249TIP3    H233943   5.786   1.252   9.698 -0.9571 -0.6722  0.5339
 3250TIP3   OH233944   5.870   6.797   9.114 -0.8450  0.4588  0.1191
 3250TIP3    H133945   5.858   6.833   9.027 -2.4521 -1.3193 -0.4618
 3250TIP3    H233946   5.788   6.815   9.159 -1.0838 -0.9848  0.3278
 3251TIP3   OH233947   1.376   0.852   6.929  0.4646 -0.1141 -0.0492
 3251TIP3    H133948   1.383   0.892   7.016 -1.6798 -0.2726  0.2513
 3251TIP3    H233949   1.292   0.805   6.931  1.2149 -1.6403 -1.6057
 3252TIP3   OH233950   0.932   3.567   8.789 -0.1824 -0.1842  0.1518
 3252TIP3    H133951   0.919   3.655   8.753  0.9330 -0.5845 -1.3023
 3252TIP3    H233952   0.864   3.515   8.747 -0.3559 -0.1750  0.4217
 3253TIP3   OH233953   3.492   0.728   8.053 -0.0569 -0.5023  0.1162
 3253TIP3    H133954   3.562   0.763   8.108 -1.1451  0.1320  1.1494
 3253TIP3    H233955   3.494   0.633   8.070  0.3447 -0.4453  0.3932
 3254TIP3   OH233956   4.569   5.466   7.965 -0.3221  0.2274  0.4265
 3254TIP3    H133957   4.581   5.386   7.913  0.0795 -0.5160  1.6098
 3254TIP3    H233958   4.650   5.515   7.954  1.0286 -1.3163  2.5910
 3255TIP3   OH233959   4.679   3.742   9.407  0.2409  0.1075 -0.3807
 3255TIP3    H133960   4.693   3.829   9.371  1.1623 -0.2288 -0.8656
 3255TIP3    H233961   4.765   3.701   9.405 -0.5197 -1.5282 -2.0684
 3256TIP3   OH233962   5.729   4.000   7.886 -0.7717  0.3927 -0.2099
 3256TIP3    H133963   5.670   3.938   7.844 -0.7230  1.4428 -1.9175
 3256TIP3    H233964   5.672   4.063   7.930 -0.8525  0.1996 -0.0346
 3257TIP3   OH233965   5.892   2.774   7.607 -0.4121  0.1114 -0.1316
 3257TIP3    H133966   5.948   2.714   7.558  0.2281  1.3639 -0.9814
 3257TIP3    H233967   5.803   2.754   7.578 -0.1213  0.1827 -1.0904
 3258TIP3   OH233968   0.672   4.668   7.835  0.1251 -0.0826 -0.5036
 3258TIP3    H133969   0.616   4.738   7.803  1.2568  0.5646 -1.1426
 3258TIP3    H233970   0.629   4.588   7.807 -1.8427  0.2561  1.3068
 3259TIP3   OH233971   3.751   4.530   8.992 -0.0701  0.1002 -0.0740
 3259TIP3    H133972   3.721   4.542   8.902  0.2588 -1.7128 -0.4800
 3259TIP3    H233973   3.788   4.441   8.993  1.7975  0.8275  1.3436
 3260TIP3   OH233974   2.122   4.914   8.218 -0.0113  0.3457 -0.0623
 3260TIP3    H133975   2.102   4.845   8.281  0.6965 -0.1562 -0.3715
 3260TIP3    H233976   2.168   4.869   8.147 -0.8671  0.8782 -0.9904
 3261TIP3   OH233977   4.851   3.616   7.382  0.1960  0.0004  0.1430
 3261TIP3    H133978   4.847   3.659   7.297 -2.1439  0.2002  0.2847
 3261TIP3    H233979   4.941   3.582   7.388  0.0678 -1.2262 -2.9657
 3262TIP3   OH233980   6.363   6.990   8.949 -0.0317  0.6595  0.3883
 3262TIP3    H133981   6.370   7.081   8.918 -0.5172  0.8309  0.7683
 3262TIP3    H233982   6.341   6.998   9.042 -2.2034  0.1738 -0.0377
 3263TIP3   OH233983   7.558   7.333   7.235  0.8756 -0.2873  0.6158
 3263TIP3    H133984   7.631   7.390   7.260  0.1260  1.0908 -0.2071
 3263TIP3    H233985   7.515   7.311   7.317  0.6952  1.0509  0.9080
 3264TIP3   OH233986   7.045   4.328   8.005  0.3602  0.3052 -0.0384
 3264TIP3    H133987   7.047   4.400   8.068  2.7429  1.1462 -0.9508
 3264TIP3    H233988   6.962   4.283   8.022 -0.8142  2.7342  1.1284
 3265TIP3   OH233989   1.984   1.271   8.829 -0.0766  0.4196  0.4337
 3265TIP3    H133990   1.998   1.322   8.750  0.6113  0.8302  0.8124
 3265TIP3    H233991   2.071   1.261   8.868 -0.4810  0.8290  1.4936
 3266TIP3   OH233992   0.234   3.005   9.187  0.1960 -0.4793 -0.0491
 3266TIP3    H133993   0.165   3.052   9.140  0.8091  1.0191  0.4807
 3266TIP3    H233994   0.190   2.928   9.224 -0.6354 -0.8342 -1.7010
 3267TIP3   OH233995   6.611   1.244   9.286  0.3416 -0.4648  0.0126
 3267TIP3    H133996   6.632   1.153   9.306  1.0166 -0.2353  0.3516
 3267TIP3    H233997   6.552   1.239   9.210  2.5204 -1.0966 -1.7639
 3268TIP3   OH233998   5.219   7.295   7.972  0.3586 -0.0953  0.1363
 3268TIP3    H133999   5.149   7.352   7.940 -0.3471 -0.6728  0.6240
 3268TIP3    H234000   5.276   7.354   8.022  0.6484  0.5188 -0.8985
 3269TIP3   OH234001   5.630   3.798   8.202  0.1778 -0.2603  0.1396
 3269TIP3    H134002   5.614   3.759   8.288  1.2521 -1.2931 -0.0966
 3269TIP3    H234003   5.547   3.837   8.177 -0.7637 -1.8296  0.7054
 3270TIP3   OH234004   4.773   3.019  10.105  0.3598 -0.6924  0.5003
 3270TIP3    H134005   4.768   3.037  10.199  0.8949  2.3147  0.0619
 3270TIP3    H234006   4.857   3.056  10.078  0.4200 -1.8908 -1.1250
 3271TIP3   OH234007   6.378   3.188   8.797  0.5854  0.3568  0.0600
 3271TIP3    H134008   6.283   3.191   8.785  0.4895 -1.6533 -0.0233
 3271TIP3    H234009   6.408   3.274   8.767 -1.1698  0.9335 -0.1855
 3272TIP3   OH234010   5.314   0.088   9.443 -0.1815  0.0026  0.2085
 3272TIP3    H134011   5.401   0.125   9.433  0.1175 -1.3256 -3.4130
 3272TIP3    H234012   5.315   0.008   9.391 -4.1202  0.9797 -1.7580
 3273TIP3   OH234013   3.709   1.982   9.461 -0.0998  0.2162 -0.0209
 3273TIP3    H134014   3.659   2.011   9.538 -1.2886  0.8136 -0.9797
 3273TIP3    H234015   3.681   1.892   9.448 -1.7220  0.8157 -1.0920
 3274TIP3   OH234016   3.705   7.026   7.687 -0.4691 -0.0717 -0.1282
 3274TIP3    H134017   3.621   7.063   7.661 -0.5376  0.2836  0.5820
 3274TIP3    H234018   3.738   6.983   7.607 -0.9142  0.5305 -0.6474
 3275TIP3   OH234019   2.557   4.519   8.632 -0.2133  0.1449 -0.1246
 3275TIP3    H134020   2.571   4.490   8.542 -1.4084  0.1637 -0.3388
 3275TIP3    H234021   2.617   4.592   8.644 -0.9134  0.9323 -1.3200
 3276TIP3   OH234022   6.536   3.702   9.451  0.1617 -0.0431  0.1957
 3276TIP3    H134023   6.584   3.778   9.417  0.6333 -1.4196 -2.5370
 3276TIP3    H234024   6.597   3.660   9.511 -0.1715  1.7418  1.8960
 3277TIP3   OH234025   5.957   6.401   9.404  0.5355 -0.4709  0.2287
 3277TIP3    H134026   5.987   6.342   9.474 -1.2652 -1.2859  0.3601
 3277TIP3    H234027   5.953   6.487   9.446  0.0849 -0.8360  0.9590
 3278TIP3   OH234028   1.477   6.007   7.603  0.2054  0.3688  0.2281
 3278TIP3    H134029   1.396   6.054   7.582  0.6581  0.6956 -0.8245
 3278TIP3    H234030   1.534   6.073   7.642  0.1846  0.2688  0.4314
 3279TIP3   OH234031   1.610   3.938   7.743 -0.6792 -0.1602  0.3752
 3279TIP3    H134032   1.700   3.908   7.754 -0.8255 -0.2668  1.4181
 3279TIP3    H234033   1.593   3.930   7.649 -0.0946 -1.5923  0.3669
 3280TIP3   OH234034   0.017   4.142   8.551  0.2941  0.0630  1.0033
 3280TIP3    H134035   0.075   4.094   8.493 -0.7039 -1.1919  1.0089
 3280TIP3    H234036   0.011   4.089   8.630 -2.0449 -0.6804  0.4256
 3281TIP3   OH234037   2.912   5.340   8.857  0.5678 -0.0704  0.1529
 3281TIP3    H134038   2.846   5.406   8.878  1.3186  0.2404  1.7213
 3281TIP3    H234039   2.948   5.314   8.943  0.9245 -1.8515 -0.4917
 3282TIP3   OH234040   2.896   0.822   7.437 -0.2696  0.1182 -0.1087
 3282TIP3    H134041   2.821   0.767   7.415 -0.9523  0.9718  0.0195
 3282TIP3    H234042   2.903   0.884   7.364 -0.0189  0.3882  0.1392
 3283TIP3   OH234043   3.930   5.175   8.375  0.2200 -0.2237 -0.2542
 3283TIP3    H134044   3.853   5.120   8.364  0.5906 -0.9858  0.7441
 3283TIP3    H234045   4.003   5.117   8.352  0.4974  0.5718 -1.4611
 3284TIP3   OH234046   5.183   7.534   9.118  0.7844 -0.3759  0.2155
 3284TIP3    H134047   5.251   7.601   9.126  0.1598  0.9953 -3.7508
 3284TIP3    H234048   5.101   7.584   9.116  0.2089 -1.2948 -1.5991
 3285TIP3   OH234049   4.283   5.537   9.566  0.0726 -0.2951 -0.1330
 3285TIP3    H134050   4.232   5.456   9.568  0.8687 -0.7983  1.4902
 3285TIP3    H234051   4.218   5.606   9.580 -0.2737 -0.8988  1.5217
 3286TIP3   OH234052   4.219   5.357   8.531 -0.2609  0.6554 -0.2188
 3286TIP3    H134053   4.229   5.278   8.478 -0.7234  0.2414  0.2928
 3286TIP3    H234054   4.216   5.325   8.621  2.5481  1.4907  0.2610
 3287TIP3   OH234055   5.013   1.549   8.714 -0.4470 -0.1992 -0.5936
 3287TIP3    H134056   5.007   1.580   8.624 -4.4223 -0.2332 -0.5346
 3287TIP3    H234057   5.010   1.453   8.707 -0.5495 -0.2079 -0.4542
 3288TIP3   OH234058   2.964   7.303   7.902  0.0934  0.1593 -0.0167
 3288TIP3    H134059   2.969   7.207   7.904 -0.7221  0.0890 -0.5943
 3288TIP3    H234060   3.049   7.332   7.933  0.0759 -0.7458  0.9395
 3289TIP3   OH234061   3.660   4.591   7.221  0.7514  0.5706 -0.2799
 3289TIP3    H134062   3.596   4.616   7.288  1.2917  0.0421  0.4459
 3289TIP3    H234063   3.716   4.526   7.264  2.3370  1.6651 -0.6117
 3290TIP3   OH234064   4.701   0.366   7.902  0.3414  0.0536  0.1539
 3290TIP3    H134065   4.721   0.454   7.870  2.8253 -0.8244 -0.9391
 3290TIP3    H234066   4.624   0.378   7.958  0.3977  2.8430 -0.2256
 3291TIP3   OH234067   7.343   2.747   7.017 -0.2926  0.1537 -0.0069
 3291TIP3    H134068   7.426   2.702   7.030 -0.0194  1.3426  3.1481
 3291TIP3    H234069   7.360   2.811   6.948  1.3667  0.2974  0.5150
 3292TIP3   OH234070   0.692   1.381   7.324  0.4303  0.3824 -0.1653
 3292TIP3    H134071   0.721   1.421   7.406 -0.6220 -0.0661  0.4481
 3292TIP3    H234072   0.658   1.295   7.349 -0.7665  0.6067 -0.9251
 3293TIP3   OH234073   2.442   6.935   8.003 -0.2625 -0.0442 -0.5744
 3293TIP3    H134074   2.401   7.021   7.997 -0.5895 -0.0641  0.9443
 3293TIP3    H234075   2.530   6.947   7.969 -0.0433  1.0828  0.3557
 3294TIP3   OH234076   3.858   7.111   7.403  0.4806  0.3083  0.4707
 3294TIP3    H134077   3.783   7.086   7.350 -0.4943 -0.0049  1.9498
 3294TIP3    H234078   3.894   7.189   7.359 -2.7555  2.5834  1.5018
 3295TIP3   OH234079   2.318   7.114   7.620  0.5450 -0.2855  0.0271
 3295TIP3    H134080   2.383   7.121   7.551 -0.5227 -0.3341 -1.0111
 3295TIP3    H234081   2.241   7.076   7.578 -0.2146 -0.1045  1.1809
 3296TIP3   OH234082   1.587   0.285   8.988 -0.0689 -0.1617 -1.0244
 3296TIP3    H134083   1.634   0.367   8.975  0.6064 -0.3885 -0.1474
 3296TIP3    H234084   1.640   0.219   8.943  3.0647 -1.1983  3.4581
 3297TIP3   OH234085   5.525   5.802   9.141 -0.4482  0.1966 -0.2226
 3297TIP3    H134086   5.434   5.791   9.113 -0.6351 -0.2545  0.5319
 3297TIP3    H234087   5.541   5.896   9.134 -0.6409  0.1614 -1.3449
 3298TIP3   OH234088   2.981   1.059   8.084  0.3615 -0.4454 -0.5116
 3298TIP3    H134089   3.060   1.104   8.054  0.0114  1.3297  1.0415
 3298TIP3    H234090   2.909   1.112   8.051 -0.2616 -2.1836 -2.1175
 3299TIP3   OH234091   1.216   3.381   9.860  0.2970  0.5051  0.1990
 3299TIP3    H134092   1.152   3.397   9.930  0.4561 -0.2912  0.5351
 3299TIP3    H234093   1.248   3.468   9.836  0.6498  0.7483  1.5012
 3300TIP3   OH234094   3.916   0.227   7.285 -0.0536  0.7027  0.2324
 3300TIP3    H134095   3.983   0.170   7.322 -1.2047  0.4368  1.9990
 3300TIP3    H234096   3.928   0.310   7.331 -0.6278  0.7922  0.2244
 3301TIP3   OH234097   0.520   4.025   8.738  0.9176  0.3105  0.2037
 3301TIP3    H134098   0.465   4.073   8.800 -0.9534  0.2524 -1.3113
 3301TIP3    H234099   0.600   4.077   8.732  0.5068  1.1480  1.4739
 3302TIP3   OH234100   2.706   3.661   7.177  0.0217  0.1103 -0.5349
 3302TIP3    H134101   2.760   3.653   7.098  1.0311  0.0080  0.1511
 3302TIP3    H234102   2.734   3.588   7.233  0.4567  1.0915  0.5757
 3303TIP3   OH234103   4.178   0.790   7.362  0.3031 -0.2505  0.1469
 3303TIP3    H134104   4.232   0.857   7.320 -1.0776 -0.1204 -1.5618
 3303TIP3    H234105   4.092   0.800   7.320 -0.3018 -2.1929  0.8413
 3304TIP3   OH234106   0.468   0.836   7.878 -0.6570 -0.0392  0.5235
 3304TIP3    H134107   0.510   0.897   7.938 -0.4713  1.1564 -0.7784
 3304TIP3    H234108   0.381   0.873   7.864 -0.7190 -0.3339  0.1178
 3305TIP3   OH234109   5.609   6.347   8.043  0.0561 -0.1911  0.7365
 3305TIP3    H134110   5.558   6.385   7.972  1.3689  0.4085  0.0725
 3305TIP3    H234111   5.580   6.395   8.121 -0.1498  0.3865  0.3144
 3306TIP3   OH234112   5.041   5.247   7.510  0.1576 -0.1014 -0.2321
 3306TIP3    H134113   5.108   5.200   7.559 -0.2457 -0.6386 -0.1928
 3306TIP3    H234114   5.000   5.181   7.455  0.4809  0.4560 -1.1795
 3307TIP3   OH234115   3.796   1.312   9.154 -0.5418 -0.9797 -0.7797
 3307TIP3    H134116   3.704   1.324   9.178  0.1764 -0.0431  1.8903
 3307TIP3    H234117   3.817   1.224   9.184 -0.0393 -0.3698  0.7653
 3308TIP3   OH234118   0.314   5.475   9.281 -0.3051  0.1409 -0.2585
 3308TIP3    H134119   0.323   5.571   9.277 -1.2240  0.3370  1.3245
 3308TIP3    H234120   0.276   5.451   9.197  1.1396  0.9833 -1.2150
 3309TIP3   OH234121   1.505   3.202   7.523 -0.3438  0.2308 -0.1909
 3309TIP3    H134122   1.531   3.253   7.446  1.4572  0.3875  0.4897
 3309TIP3    H234123   1.493   3.113   7.489  2.5907 -0.1979 -0.3472
 3310TIP3   OH234124   3.700   7.464   8.212  0.3032  0.4040 -0.0037
 3310TIP3    H134125   3.749   7.542   8.183  0.5444  0.9890  1.8633
 3310TIP3    H234126   3.686   7.478   8.305 -1.5437 -0.8045 -0.0599
 3311TIP3   OH234127   1.751   4.802   7.094  0.3350  0.4820 -0.0943
 3311TIP3    H134128   1.824   4.767   7.145  0.3657 -2.2653 -1.8689
 3311TIP3    H234129   1.781   4.799   7.004 -1.3063  1.1455 -0.6968
 3312TIP3   OH234130   0.618   6.203   7.535 -0.1923 -0.3222  0.0328
 3312TIP3    H134131   0.712   6.207   7.552 -0.1991 -0.3964  0.0881
 3312TIP3    H234132   0.600   6.281   7.483 -0.1462 -0.1731  0.2382
 3313TIP3   OH234133   6.742   4.415   7.867 -0.1981 -0.7040  0.8840
 3313TIP3    H134134   6.728   4.322   7.853 -0.2622 -0.5381 -0.2138
 3313TIP3    H234135   6.705   4.432   7.954 -0.2260 -1.6838  1.0688
 3314TIP3   OH234136   2.391   6.381   8.299 -0.4269  0.3874  0.0411
 3314TIP3    H134137   2.380   6.286   8.302 -1.1081  0.4870  1.9217
 3314TIP3    H234138   2.458   6.398   8.366 -0.1764  1.2220 -0.4201
 3315TIP3   OH234139   1.693   4.264   8.436  0.5839  0.1571 -0.2225
 3315TIP3    H134140   1.735   4.198   8.381  1.1082 -0.3469  0.7643
 3315TIP3    H234141   1.603   4.268   8.403  0.9618  0.0932 -1.3119
 3316TIP3   OH234142   2.045   2.836   9.726  0.0103 -0.3098 -0.7419
 3316TIP3    H134143   1.967   2.811   9.678 -0.3173 -1.4180  0.3092
 3316TIP3    H234144   2.098   2.756   9.730  0.2390 -0.1206  0.3215
 3317TIP3   OH234145   1.789   4.502   6.743  0.0134  0.0428 -0.0687
 3317TIP3    H134146   1.720   4.438   6.760  0.3554 -0.8945 -1.9651
 3317TIP3    H234147   1.759   4.550   6.665  0.8359  0.6256 -0.0444
 3318TIP3   OH234148   4.794   6.256   8.066 -0.5413  0.0038 -0.3642
 3318TIP3    H134149   4.737   6.211   8.004 -0.1025 -0.0069 -0.7622
 3318TIP3    H234150   4.766   6.347   8.063  0.2557  0.2310 -1.4755
 3319TIP3   OH234151   7.275   6.195   8.120  0.2229 -0.1394  0.3496
 3319TIP3    H134152   7.275   6.123   8.184  0.1305 -0.4056  0.0538
 3319TIP3    H234153   7.183   6.213   8.104  0.2386  0.7646  1.2145
 3320TIP3   OH234154   4.552   4.783   8.645  0.0198 -0.1332  0.2006
 3320TIP3    H134155   4.639   4.770   8.684 -0.1249  1.7502  1.2867
 3320TIP3    H234156   4.491   4.764   8.715 -0.5149 -1.8941 -0.6932
 3321TIP3   OH234157   4.772   4.593   8.835  0.4251  0.2877 -0.0694
 3321TIP3    H134158   4.685   4.558   8.815  0.5554 -0.1228  0.0784
 3321TIP3    H234159   4.766   4.625   8.925  1.2195 -2.3833  1.0326
 3322TIP3   OH234160   6.893   3.885   8.381  0.0369  0.3853  0.1404
 3322TIP3    H134161   6.917   3.792   8.382  1.2830  0.6705 -1.0482
 3322TIP3    H234162   6.829   3.894   8.452 -0.7612 -1.5483 -0.2729
 3323TIP3   OH234163   3.646   0.086   7.311 -0.4333  0.5982  0.1424
 3323TIP3    H134164   3.732   0.129   7.312 -0.6238  1.0345 -0.6874
 3323TIP3    H234165   3.647   0.031   7.233 -1.2731  1.4191 -0.4802
 3324TIP3   OH234166   1.096   0.075   7.949  0.0791 -0.4571  0.1243
 3324TIP3    H134167   1.057   0.069   8.036 -0.3063  1.6197  0.1636
 3324TIP3    H234168   1.188   0.057   7.963 -0.0325 -0.4678  0.9235
 3325TIP3   OH234169   5.070   7.229   7.570  0.0623 -0.3394 -0.1828
 3325TIP3    H134170   5.021   7.180   7.636  0.2252 -0.1560  0.0776
 3325TIP3    H234171   5.016   7.225   7.492 -1.6610  2.0057  0.7672
 3326TIP3   OH234172   2.960   5.439   8.369  0.6839 -0.0431  0.0978
 3326TIP3    H134173   2.889   5.376   8.374  0.8672 -0.2272  0.3767
 3326TIP3    H234174   3.006   5.431   8.453  0.0837  1.1981  0.5835
 3327TIP3   OH234175   7.403   2.528   6.685  0.3664 -0.0791  0.2522
 3327TIP3    H134176   7.454   2.452   6.715  0.7985  0.6463  1.4098
 3327TIP3    H234177   7.333   2.536   6.749  0.1691  0.3587 -0.0167
 3328TIP3   OH234178   2.022   2.367   8.171 -0.0839 -0.7728 -0.1465
 3328TIP3    H134179   2.054   2.349   8.260 -0.3729  0.5726  0.2374
 3328TIP3    H234180   2.090   2.422   8.132  0.6986 -2.4156 -1.2631
 3329TIP3   OH234181   1.858   4.589   7.782  0.0771 -0.1380 -0.6404
 3329TIP3    H134182   1.825   4.527   7.717  1.9183 -1.2503 -0.6119
 3329TIP3    H234183   1.891   4.663   7.730 -3.1343  1.4486 -0.6188
 3330TIP3   OH234184   3.324   5.292   7.558  0.1828 -0.5588  0.1988
 3330TIP3    H134185   3.243   5.265   7.603 -0.1369  0.8919  0.5430
 3330TIP3    H234186   3.363   5.210   7.529 -1.2137 -1.3252  0.3700
 3331TIP3   OH234187   4.517   0.779   7.045  0.0599 -0.5101 -0.4664
 3331TIP3    H134188   4.494   0.696   7.088 -1.4317 -0.3575 -0.9111
 3331TIP3    H234189   4.492   0.846   7.108 -1.5035 -0.3128 -1.2381
 3332TIP3   OH234190   5.165   5.042   8.608 -0.0271 -0.0614 -0.2591
 3332TIP3    H134191   5.238   5.055   8.668  0.6183  0.0954 -1.0576
 3332TIP3    H234192   5.154   4.948   8.601 -0.1311 -0.0784  0.1278
 3333TIP3   OH234193   0.305   5.804   7.464  0.4290 -0.9104 -0.0005
 3333TIP3    H134194   0.302   5.790   7.369 -0.7034 -1.4055  0.0929
 3333TIP3    H234195   0.216   5.786   7.494  1.0236 -1.8889  1.3145
 3334TIP3   OH234196   0.269   0.878   9.058 -0.0563  0.3643  0.2722
 3334TIP3    H134197   0.341   0.863   9.120  0.0209  0.1998  0.1458
 3334TIP3    H234198   0.199   0.915   9.111  0.1899  0.7143  0.3630
 3335TIP3   OH234199   5.246   4.773   8.629 -0.1749 -0.3058  0.4868
 3335TIP3    H134200   5.223   4.718   8.704 -0.9838 -0.2989  0.2552
 3335TIP3    H234201   5.332   4.809   8.650 -0.6263  0.1235  1.6468
 3336TIP3   OH234202   5.484   4.451   8.376  0.0014  0.2907 -0.0704
 3336TIP3    H134203   5.546   4.388   8.339  0.3161  1.1126 -1.0160
 3336TIP3    H234204   5.399   4.425   8.341  0.0241 -0.0194  0.1050
 3337TIP3   OH234205   0.943   4.620   8.891 -0.1007 -0.0847  0.6088
 3337TIP3    H134206   1.031   4.602   8.926 -0.2651 -1.8317  0.2128
 3337TIP3    H234207   0.946   4.713   8.865  1.9389 -0.3369 -0.2762
 3338TIP3   OH234208   5.851   0.041   7.700 -0.5984 -0.1361 -0.2489
 3338TIP3    H134209   5.866  -0.040   7.748 -0.3001 -0.5942 -1.0925
 3338TIP3    H234210   5.831   0.013   7.610  1.0318  0.7558 -0.9329
 3339TIP3   OH234211   6.758   7.597   7.393  0.0753  0.3518  0.0904
 3339TIP3    H134212   6.763   7.653   7.471 -0.3783 -0.2937  0.5994
 3339TIP3    H234213   6.816   7.639   7.329  0.4063  0.9262  0.7538
 3340TIP3   OH234214   5.659   2.495   8.733  0.0263  0.5078 -0.3583
 3340TIP3    H134215   5.631   2.518   8.821 -2.1310  1.5528 -1.2328
 3340TIP3    H234216   5.684   2.579   8.693  0.4691  0.1266 -0.9043
 3341TIP3   OH234217   2.051   2.356   9.398 -0.2185 -0.0856 -0.1494
 3341TIP3    H134218   1.970   2.306   9.405 -0.7526  0.9602  3.2456
 3341TIP3    H234219   2.119   2.297   9.431 -0.5862  0.7115  2.2550
 3342TIP3   OH234220   0.632   1.446   8.049 -0.1624 -0.1546  0.4975
 3342TIP3    H134221   0.680   1.429   7.968 -0.6580  0.4105  0.0798
 3342TIP3    H234222   0.625   1.541   8.053 -1.8505 -0.2331  0.1938
 3343TIP3   OH234223   2.145   6.098   9.302  0.2032 -0.4227 -0.3986
 3343TIP3    H134224   2.194   6.019   9.324  0.9489  0.1114 -0.1031
 3343TIP3    H234225   2.120   6.135   9.386 -1.7008 -1.2618 -0.5338
 3344TIP3   OH234226   6.859   2.924   7.872  0.5612 -0.3006 -0.2481
 3344TIP3    H134227   6.814   2.840   7.870  1.5315 -0.8766  0.8326
 3344TIP3    H234228   6.816   2.976   7.805 -1.9596 -0.6943  0.9654
 3345TIP3   OH234229   0.131   6.398   6.512  0.1491  0.1726  0.0525
 3345TIP3    H134230   0.055   6.354   6.475  0.0316 -1.0291  1.6394
 3345TIP3    H234231   0.137   6.480   6.463 -0.7718 -0.7255 -1.6762
 3346TIP3   OH234232   1.278   0.242   6.766 -0.2220  0.4343  0.2381
 3346TIP3    H134233   1.368   0.269   6.779 -1.0416  2.1738  3.4415
 3346TIP3    H234234   1.233   0.320   6.734 -0.6920 -0.3347 -1.0686
 3347TIP3   OH234235   2.328   1.320   9.144  0.0938 -0.5464  0.2505
 3347TIP3    H134236   2.385   1.292   9.215  0.8695  0.4979  0.0747
 3347TIP3    H234237   2.350   1.413   9.132  0.5248 -0.8660 -1.8125
 3348TIP3   OH234238   0.421   5.581   8.450  0.3682  0.5213 -0.3203
 3348TIP3    H134239   0.365   5.511   8.482  0.8548 -0.9155 -2.4028
 3348TIP3    H234240   0.459   5.546   8.369  1.6681  2.7006 -0.7278
 3349TIP3   OH234241   6.561   6.725   7.714  0.3522  0.0001 -0.1631
 3349TIP3    H134242   6.510   6.794   7.672 -1.7910 -0.7603  1.0800
 3349TIP3    H234243   6.578   6.758   7.802 -0.4005 -0.8797  0.3318
 3350TIP3   OH234244   2.891   2.336   8.712 -0.6821  0.2268  0.5635
 3350TIP3    H134245   2.892   2.332   8.616  1.8534  0.6303  0.5092
 3350TIP3    H234246   2.942   2.261   8.740 -2.5745 -0.7035  1.7176
 3351TIP3   OH234247   2.256   2.795   8.899 -0.4029 -0.3556 -0.3097
 3351TIP3    H134248   2.213   2.822   8.981 -0.7233 -1.7810  0.0117
 3351TIP3    H234249   2.296   2.711   8.920 -0.1922 -0.5731 -1.5400
 3352TIP3   OH234250   2.717   2.488   8.398 -0.0047  0.2145  0.3021
 3352TIP3    H134251   2.782   2.419   8.383  0.7484  1.2227 -1.3646
 3352TIP3    H234252   2.768   2.569   8.398 -0.8868  0.8318  2.1194
 3353TIP3   OH234253   2.509   6.666   9.099 -1.2183 -0.0491 -0.2991
 3353TIP3    H134254   2.508   6.571   9.103 -0.4326 -0.3967 -4.4248
 3353TIP3    H234255   2.600   6.690   9.115 -1.6096  0.2208  1.8882
 3354TIP3   OH234256   0.124   1.448   8.444 -0.4742  0.1573 -0.6535
 3354TIP3    H134257   0.039   1.468   8.482 -0.5253 -0.6589 -0.3201
 3354TIP3    H234258   0.182   1.517   8.477 -0.3239 -0.9506  1.6314
 3355TIP3   OH234259   2.104   1.716   7.486  0.0647  0.2455  0.2394
 3355TIP3    H134260   2.076   1.624   7.489  1.4122 -0.1874  0.1898
 3355TIP3    H234261   2.054   1.753   7.413 -0.4527 -0.4606  0.2180
 3356TIP3   OH234262   1.990   5.888   8.152  0.2960 -0.1060 -0.3862
 3356TIP3    H134263   2.078   5.870   8.183 -0.4811 -1.2877  1.2463
 3356TIP3    H234264   2.003   5.948   8.078  2.4263 -0.0646 -0.0451
 3357TIP3   OH234265   2.544   0.220   9.274 -0.1898  0.2626 -0.4396
 3357TIP3    H134266   2.621   0.186   9.320  0.4297  2.2347  0.0782
 3357TIP3    H234267   2.572   0.227   9.183  0.5274  1.6330 -0.1396
 3358TIP3   OH234268   0.732   4.119   8.047  0.0844 -0.3505  0.2452
 3358TIP3    H134269   0.711   4.187   8.111 -1.1159 -1.1662  0.7545
 3358TIP3    H234270   0.823   4.137   8.023  0.1432  0.7684  1.1901
 3359TIP3   OH234271   2.920   3.166   8.042 -0.2197 -0.1694  0.1326
 3359TIP3    H134272   2.935   3.106   7.969  1.3306 -1.1074  1.1667
 3359TIP3    H234273   2.855   3.121   8.097  0.4696 -0.6558  0.5783
 3360TIP3   OH234274   7.393   0.166   7.823  0.4926 -0.1868  0.0737
 3360TIP3    H134275   7.455   0.207   7.763  0.1592 -0.9339 -0.8177
 3360TIP3    H234276   7.327   0.126   7.765  1.0844 -2.4326  0.8590
 3361TIP3   OH234277   0.937   4.905   8.305 -0.3638 -0.0332 -0.0072
 3361TIP3    H134278   0.919   4.975   8.242 -1.3106 -0.1822  0.0820
 3361TIP3    H234279   1.025   4.874   8.282 -0.5388  0.1726 -1.0005
 3362TIP3   OH234280   4.481   1.630   9.163 -0.2685 -0.3727 -0.2994
 3362TIP3    H134281   4.423   1.672   9.227  0.9598 -1.1736  1.4138
 3362TIP3    H234282   4.501   1.700   9.100  0.3981  1.1638  1.5341
 3363TIP3   OH234283   5.727   4.072   6.850  0.6712 -0.1865  0.1358
 3363TIP3    H134284   5.764   4.137   6.910  0.1121  0.1953  0.0788
 3363TIP3    H234285   5.665   4.122   6.797  1.6190 -0.3828 -1.2032
 3364TIP3   OH234286   3.836   0.033   9.210  0.2341  0.6352 -0.4532
 3364TIP3    H134287   3.838   0.068   9.121 -3.1299 -0.2921 -1.0325
 3364TIP3    H234288   3.885  -0.049   9.205 -0.2483  0.3980 -1.5867
 3365TIP3   OH234289   4.824   6.107   7.211 -0.3000 -0.5105  0.4634
 3365TIP3    H134290   4.905   6.135   7.254  0.4801 -1.1388 -0.5396
 3365TIP3    H234291   4.852   6.037   7.152 -1.4268 -0.1149 -0.5801
 3366TIP3   OH234292   6.389   1.809   9.225  0.1226  0.0836 -0.1845
 3366TIP3    H134293   6.436   1.726   9.220 -1.1493 -0.5931 -1.3271
 3366TIP3    H234294   6.451   1.873   9.190  1.8928  0.0475  2.5424
 3367TIP3   OH234295   0.093   4.069   6.826  0.2877  0.1957  0.1922
 3367TIP3    H134296   0.184   4.041   6.818  0.1269 -0.0327 -1.2002
 3367TIP3    H234297   0.082   4.133   6.755 -0.6343  0.2274  0.3575
 3368TIP3   OH234298   6.363   5.273   7.944  0.1131 -0.1824 -0.0910
 3368TIP3    H134299   6.432   5.319   7.897 -0.2641  1.5647  0.9808
 3368TIP3    H234300   6.291   5.268   7.881  0.4379 -0.0165 -0.4804
 3369TIP3   OH234301   0.661   2.752   8.116  0.0134  0.0211  0.1844
 3369TIP3    H134302   0.575   2.793   8.106  1.0169  2.5541  0.9546
 3369TIP3    H234303   0.645   2.675   8.169 -1.9519 -0.3479 -0.8606
 3370TIP3   OH234304   3.742   0.571   9.376 -0.4778  0.4018  0.4274
 3370TIP3    H134305   3.685   0.611   9.441  0.5027  1.4127  0.6936
 3370TIP3    H234306   3.689   0.571   9.295 -1.8286 -1.1849  1.2466
 3371TIP3   OH234307   3.745   6.641   7.876  0.3044 -0.2363 -0.1148
 3371TIP3    H134308   3.805   6.566   7.867  0.7981  0.2678 -1.1674
 3371TIP3    H234309   3.737   6.654   7.971  1.6237 -0.5132  0.0516
 3372TIP3   OH234310   5.144   0.744   8.745  0.3759  0.4525  0.0472
 3372TIP3    H134311   5.070   0.708   8.794  0.9794  0.3891  0.9313
 3372TIP3    H234312   5.217   0.742   8.806  0.4152  3.4546  0.2444
 3373TIP3   OH234313   2.453   3.975   8.983  0.0640 -0.1360 -0.1243
 3373TIP3    H134314   2.391   3.972   9.056  0.3787  2.4598  0.3646
 3373TIP3    H234315   2.526   4.028   9.016  1.0683 -0.4637 -1.7164
 3374TIP3   OH234316   4.666   2.506   7.441 -0.5474 -0.5383 -0.0757
 3374TIP3    H134317   4.723   2.497   7.518  2.6564 -1.2668 -2.3511
 3374TIP3    H234318   4.617   2.424   7.439 -1.8365  0.0969  1.9349
 3375TIP3   OH234319   5.476   4.566   8.714  0.2489 -0.3356 -0.4588
 3375TIP3    H134320   5.399   4.511   8.731  0.6499 -0.7135  0.1641
 3375TIP3    H234321   5.457   4.648   8.760  0.0571 -0.2830 -0.6258
 3376TIP3   OH234322   5.550   6.401   7.751  0.4433 -0.2206 -0.0411
 3376TIP3    H134323   5.551   6.418   7.657  0.6894  1.3759  0.2323
 3376TIP3    H234324   5.471   6.348   7.765 -0.0115  0.1774 -1.0305
 3377TIP3   OH234325   6.228   4.253   9.196 -0.3084 -0.1982  0.2090
 3377TIP3    H134326   6.146   4.204   9.199 -0.2211 -0.3093  0.8294
 3377TIP3    H234327   6.202   4.345   9.202 -0.3825 -0.2402  0.5434
 3378TIP3   OH234328   6.228   3.336   6.995 -0.0211 -0.1966  0.1004
 3378TIP3    H134329   6.289   3.410   6.994  1.4474 -1.3448  0.7515
 3378TIP3    H234330   6.274   3.266   6.948 -2.6267  0.1394 -3.3882
 3379TIP3   OH234331   2.613   4.988   7.967 -0.4409 -0.0072 -0.4649
 3379TIP3    H134332   2.530   5.019   7.932  0.0894  0.8513 -0.9895
 3379TIP3    H234333   2.657   4.945   7.893 -0.7803 -1.2390  0.0283
 3380TIP3   OH234334   3.909   7.594   7.846 -0.2877 -0.0360 -0.1192
 3380TIP3    H134335   3.925   7.503   7.869 -0.6871 -0.0403  0.1484
 3380TIP3    H234336   3.953   7.644   7.915 -0.6115 -0.0377  0.0934
 3381TIP3   OH234337   4.736   5.710   8.766 -0.3055 -0.3125  0.3903
 3381TIP3    H134338   4.691   5.711   8.681  1.5304  1.3247 -0.6373
 3381TIP3    H234339   4.827   5.691   8.745  0.2355  0.3269  1.9713
 3382TIP3   OH234340   1.204   5.169   8.468  0.2400  0.0752  0.0520
 3382TIP3    H134341   1.188   5.253   8.423  0.5856 -0.0421 -0.2963
 3382TIP3    H234342   1.260   5.192   8.542  0.7404  0.0831 -0.3258
 3383TIP3   OH234343   6.070   2.472   7.307 -0.1548 -0.2281  0.1966
 3383TIP3    H134344   6.016   2.452   7.231  0.1019 -1.5960  0.3546
 3383TIP3    H234345   6.160   2.452   7.279  0.0619  0.2648  0.5258
 3384TIP3   OH234346   2.643   0.976   7.948  0.4103  0.5968  0.2335
 3384TIP3    H134347   2.690   0.901   7.983  2.7401  1.4279 -0.8925
 3384TIP3    H234348   2.699   1.051   7.967 -0.9719  1.8119 -0.2767
 3385TIP3   OH234349   3.561   4.723   8.795 -0.3643 -0.0454  0.1299
 3385TIP3    H134350   3.497   4.701   8.726 -1.4510 -0.5255  1.2480
 3385TIP3    H234351   3.646   4.717   8.751 -0.9890 -0.8495 -1.0485
 3386TIP3   OH234352   3.821   0.214   6.893  0.1801 -0.1220  0.1286
 3386TIP3    H134353   3.762   0.161   6.946  0.8932 -0.6418  0.4144
 3386TIP3    H234354   3.774   0.225   6.810 -0.3276 -0.5030  0.3564
 3387TIP3   OH234355   0.679   0.115   9.339 -0.1675 -0.2062  0.3002
 3387TIP3    H134356   0.663   0.022   9.356 -1.3030 -0.2511 -0.8769
 3387TIP3    H234357   0.622   0.161   9.401 -1.5484 -0.3386 -0.8313
 3388TIP3   OH234358   0.879   0.841   9.002 -0.3870  0.2254  0.2081
 3388TIP3    H134359   0.949   0.905   8.992 -0.0136 -0.3057 -0.6890
 3388TIP3    H234360   0.904   0.789   9.079  2.0982 -2.2433 -2.0847
 3389TIP3   OH234361   1.309   3.983   8.594  0.6157  0.1719  0.2045
 3389TIP3    H134362   1.346   3.952   8.511 -0.2963 -1.6569  0.4298
 3389TIP3    H234363   1.267   4.066   8.572 -1.9856 -1.5114 -1.8751
 3390TIP3   OH234364   6.827   3.002   7.433  0.4547  0.1511 -0.1814
 3390TIP3    H134365   6.916   2.967   7.425  0.2818 -0.2566 -0.3384
 3390TIP3    H234366   6.802   3.025   7.343  1.7860  3.7857  0.1983
 3391TIP3   OH234367   5.274   1.882   8.704 -0.9226  0.4522  0.3009
 3391TIP3    H134368   5.246   1.963   8.747 -2.2983  0.4843 -0.5696
 3391TIP3    H234369   5.299   1.910   8.616 -0.2789  0.0832  0.3625
 3392TIP3   OH234370   2.794   4.922   8.785 -0.3404  0.2854  0.2098
 3392TIP3    H134371   2.739   4.962   8.852 -0.6681  0.6750 -0.2804
 3392TIP3    H234372   2.880   4.914   8.826 -1.0436 -1.5167  1.4177
 3393TIP3   OH234373   3.714   5.207   8.973 -0.6562  0.1033  0.1315
 3393TIP3    H134374   3.680   5.234   9.058  1.4001  2.5193  0.2985
 3393TIP3    H234375   3.777   5.275   8.949  0.3097 -1.5249 -2.4249
 3394TIP3   OH234376   4.505   0.250   8.374 -0.2946 -0.3981 -0.5289
 3394TIP3    H134377   4.487   0.186   8.305  0.5499 -1.8342  0.5265
 3394TIP3    H234378   4.593   0.281   8.356 -0.5364  0.1553 -0.7835
 3395TIP3   OH234379   3.771   4.111   9.215 -0.2332 -0.3773  0.9518
 3395TIP3    H134380   3.863   4.117   9.241 -0.6036  1.0801  2.0552
 3395TIP3    H234381   3.759   4.019   9.191  1.2958 -0.7831  1.6008
 3396TIP3   OH234382   2.137   1.757   9.285  0.3286 -0.1608 -0.0026
 3396TIP3    H134383   2.142   1.818   9.211  1.0074  1.1823  1.1141
 3396TIP3    H234384   2.051   1.716   9.276 -0.9744  2.3173  0.2093
 3397TIP3   OH234385   6.722   0.260   7.609  0.4826 -0.0401  0.2128
 3397TIP3    H134386   6.734   0.355   7.599 -0.1242 -0.1817 -2.4646
 3397TIP3    H234387   6.785   0.236   7.677  0.0746  2.3843  1.5851
 3398TIP3   OH234388   0.776   1.493   9.148  0.3003 -0.3137  0.0287
 3398TIP3    H134389   0.862   1.535   9.156  0.9458 -1.8551  2.1269
 3398TIP3    H234390   0.777   1.424   9.214 -1.8109 -1.7147 -1.2851
 3399TIP3   OH234391   1.547   3.255   8.110  0.0771  0.0493 -0.4948
 3399TIP3    H134392   1.520   3.243   8.019  2.1878 -0.5920 -1.0891
 3399TIP3    H234393   1.584   3.170   8.136  1.3131  0.8052  0.3003
 3400TIP3   OH234394   6.392   2.597   8.090 -0.1014  0.6609  0.2094
 3400TIP3    H134395   6.329   2.609   8.019 -0.2682 -0.9275  0.0377
 3400TIP3    H234396   6.339   2.584   8.168  0.0743  1.8340  0.5376
 3401TIP3   OH234397   4.412   1.620   8.779  0.0049 -0.3548 -0.0188
 3401TIP3    H134398   4.351   1.614   8.705  0.0417 -1.0209 -0.0089
 3401TIP3    H234399   4.496   1.593   8.743 -0.0357 -0.9656  0.3252
 3402TIP3   OH234400   0.571   7.035   8.197 -0.0003  0.2847  0.2435
 3402TIP3    H134401   0.612   6.954   8.227 -1.3379  0.2578  2.2251
 3402TIP3    H234402   0.644   7.094   8.179  0.9641 -0.6150  1.0482
 3403TIP3   OH234403   1.415   1.331   9.373  0.2515  0.0075 -0.6883
 3403TIP3    H134404   1.384   1.418   9.345 -0.3940  0.1583  0.4037
 3403TIP3    H234405   1.487   1.310   9.313 -0.5082  0.6617 -1.8798
 3404TIP3   OH234406   6.059   6.735   8.509  0.2635  0.2181 -0.0965
 3404TIP3    H134407   6.066   6.677   8.434  0.8852  1.1445 -0.7837
 3404TIP3    H234408   5.971   6.773   8.503 -0.2325 -0.8076  0.4908
 3405TIP3   OH234409   0.617   7.374   8.902 -0.2498  0.2953 -0.4586
 3405TIP3    H134410   0.536   7.339   8.938 -0.5342  1.8946  0.5798
 3405TIP3    H234411   0.687   7.328   8.948 -0.5901  0.0908 -0.1433
 3406TIP3   OH234412   5.641   2.399   7.749  0.1910  0.2771 -0.1999
 3406TIP3    H134413   5.692   2.480   7.757  0.6631  0.3565 -2.9282
 3406TIP3    H234414   5.696   2.333   7.791  0.3825  1.1307  0.9536
 3407TIP3   OH234415   1.899   4.911   8.604  0.1328 -0.2459 -0.0308
 3407TIP3    H134416   1.838   4.910   8.677  0.8216 -1.0430  0.5472
 3407TIP3    H234417   1.867   4.843   8.545  0.8549 -1.1793  0.6227
 3408TIP3   OH234418   6.359   0.399   8.057  0.3741 -0.0219  0.4913
 3408TIP3    H134419   6.444   0.431   8.087  0.6778 -1.2483  1.0225
 3408TIP3    H234420   6.380   0.317   8.011 -0.3471  0.5722 -0.9639
 3409TIP3   OH234421   0.658   1.370   6.892  0.3734 -0.3221  0.1121
 3409TIP3    H134422   0.691   1.281   6.881 -0.7265 -0.8483  0.8901
 3409TIP3    H234423   0.614   1.390   6.810  0.4665 -0.5589  0.0027
 3410TIP3   OH234424   2.851   4.286   7.304  0.3361  0.0395 -0.0211
 3410TIP3    H134425   2.920   4.276   7.369  0.4780 -0.3346 -0.2236
 3410TIP3    H234426   2.861   4.210   7.246 -0.0265  0.1641 -0.2551
 3411TIP3   OH234427   6.672   0.850   7.740 -0.0048  0.0876  0.2441
 3411TIP3    H134428   6.760   0.879   7.766  1.1304 -1.8710 -1.1766
 3411TIP3    H234429   6.665   0.875   7.648 -1.3135  0.9710  0.5524
 3412TIP3   OH234430   6.634   1.662   9.177 -0.5887  0.5167 -0.2989
 3412TIP3    H134431   6.715   1.707   9.199 -2.1637  3.6724 -0.4274
 3412TIP3    H234432   6.603   1.625   9.260  0.6595 -0.2302 -0.1514
 3413TIP3   OH234433   2.596   0.641   8.941 -0.1397 -0.0023  0.0241
 3413TIP3    H134434   2.690   0.653   8.960 -0.1102  0.3774 -0.3361
 3413TIP3    H234435   2.553   0.655   9.026  0.2215 -1.5327  0.4885
 3414TIP3   OH234436   6.411   7.519   8.422  0.0910  0.0477  0.1202
 3414TIP3    H134437   6.500   7.516   8.387 -0.5559 -1.4943 -1.5058
 3414TIP3    H234438   6.413   7.591   8.485  2.6366 -0.3112  0.5659
 3415TIP3   OH234439   4.987   2.072   9.079  0.0016  0.3247 -0.2925
 3415TIP3    H134440   4.950   2.101   8.996  0.8912 -0.8687 -1.1360
 3415TIP3    H234441   4.911   2.048   9.132 -0.5200 -0.2181 -1.2615
 3416TIP3   OH234442   6.046   2.392   8.371  0.3292 -0.2066 -0.4736
 3416TIP3    H134443   6.080   2.386   8.282 -1.8929 -2.8887 -1.2708
 3416TIP3    H234444   5.990   2.470   8.370 -0.8724 -1.0375 -1.9397
 3417TIP3   OH234445   0.888   5.432   8.604  0.3243  0.6188 -0.1201
 3417TIP3    H134446   0.975   5.414   8.640  0.1476 -1.6805 -0.6474
 3417TIP3    H234447   0.832   5.445   8.681  0.9246  1.0167  0.2560
 3418TIP3   OH234448   2.537   5.200   8.765 -0.0279  0.3510 -0.5287
 3418TIP3    H134449   2.537   5.175   8.672 -1.2895 -0.0934 -0.4290
 3418TIP3    H234450   2.474   5.272   8.770  0.8201  1.0878 -0.1757
 3419TIP3   OH234451   3.631   4.329   8.160  0.1106 -0.0558  0.4491
 3419TIP3    H134452   3.719   4.312   8.129 -0.5183  0.0592 -1.5127
 3419TIP3    H234453   3.643   4.394   8.230  1.4854  0.9475 -0.6601
 3420TIP3   OH234454   3.715   5.876   7.821 -0.0702  0.2101  0.4256
 3420TIP3    H134455   3.688   5.940   7.755 -1.6222 -0.4228  0.3950
 3420TIP3    H234456   3.759   5.807   7.771 -0.7724 -0.0106  0.0880
 3421TIP3   OH234457   1.605   5.148   7.785 -0.3685 -0.2965 -0.3003
 3421TIP3    H134458   1.557   5.227   7.762  0.1614  0.2636  0.4724
 3421TIP3    H234459   1.637   5.164   7.874 -1.3212 -1.8809  0.3795
 3422TIP3   OH234460   3.169   2.796   9.546  0.3148  0.3429 -0.3329
 3422TIP3    H134461   3.104   2.840   9.601  0.5889  1.2887 -0.7314
 3422TIP3    H234462   3.144   2.820   9.456 -0.7027 -1.9715 -0.7307
 3423TIP3   OH234463   4.777   6.872   7.179  0.6153 -0.1157  0.0447
 3423TIP3    H134464   4.840   6.814   7.137 -0.0084 -0.8840  0.1374
 3423TIP3    H234465   4.800   6.870   7.272  0.6973 -0.0830  0.0250
 3424TIP3   OH234466   5.290   0.654   7.692  0.0453  0.0601  0.3999
 3424TIP3    H134467   5.352   0.667   7.764  0.5219  0.4600 -0.0707
 3424TIP3    H234468   5.235   0.732   7.694  0.5009  0.4000 -0.0912
 3425TIP3   OH234469   0.327   5.655   7.821 -0.4840 -0.3313 -0.1822
 3425TIP3    H134470   0.357   5.656   7.912  1.5791 -0.2488 -0.8202
 3425TIP3    H234471   0.404   5.680   7.770 -1.5039 -0.7258 -1.9969
 3426TIP3   OH234472   5.843   7.041   7.293 -0.6741  0.2809 -0.4178
 3426TIP3    H134473   5.872   6.969   7.350 -0.3314 -0.4063 -1.4333
 3426TIP3    H234474   5.757   7.065   7.327 -1.0151 -0.9492 -0.3657
 3427TIP3   OH234475   3.661   6.670   7.582 -0.5677  0.2572 -0.2412
 3427TIP3    H134476   3.644   6.765   7.578 -2.1367  0.0380  0.3693
 3427TIP3    H234477   3.682   6.654   7.674 -0.3310  0.0143 -0.3392
 3428TIP3   OH234478   2.642   5.903   8.295 -0.3171 -0.4524  0.2041
 3428TIP3    H134479   2.644   5.808   8.298  1.2367 -0.4245  1.8130
 3428TIP3    H234480   2.727   5.930   8.331 -1.3170  1.5527  1.2136
 3429TIP3   OH234481   4.130   2.359   8.558 -0.5841 -0.3685  0.1273
 3429TIP3    H134482   4.117   2.416   8.633 -0.9713  0.7804 -0.7929
 3429TIP3    H234483   4.043   2.323   8.540 -1.0017  1.2051 -1.1973
 3430TIP3   OH234484   2.204   3.653   9.083 -0.5377 -0.0768 -0.1126
 3430TIP3    H134485   2.224   3.596   9.157 -1.8582  0.4442  0.6752
 3430TIP3    H234486   2.192   3.594   9.009  3.5376 -0.4922 -0.6839
 3431TIP3   OH234487   7.218   3.697   8.725  0.0183 -0.3586  0.4380
 3431TIP3    H134488   7.237   3.703   8.632 -1.4949 -0.2285  0.1061
 3431TIP3    H234489   7.254   3.778   8.763 -3.0809  1.7898 -0.7846
 3432TIP3   OH234490   6.054   1.494   7.149  0.2385 -0.1501 -0.0092
 3432TIP3    H134491   5.977   1.514   7.201 -0.0492  0.3728 -0.6241
 3432TIP3    H234492   6.026   1.504   7.058  1.0613  0.1727 -0.2425
 3433TIP3   OH234493   3.011   5.833   9.027  0.4853  0.5236  0.0553
 3433TIP3    H134494   2.932   5.802   8.982  0.3377 -0.1818  0.7858
 3433TIP3    H234495   2.986   5.920   9.061  0.1496  0.4731 -0.0556
 3434TIP3   OH234496   2.778   6.937   8.641  0.5062 -0.4438  0.3567
 3434TIP3    H134497   2.723   6.890   8.704  0.4986 -0.3707  0.4052
 3434TIP3    H234498   2.729   6.932   8.559 -1.4681  2.8183  1.1404
 3435TIP3   OH234499   6.151   2.882   8.739  0.0677  0.4939 -0.6839
 3435TIP3    H134500   6.165   2.973   8.714  1.5808  1.1441  2.1011
 3435TIP3    H234501   6.063   2.880   8.776  0.2605  0.9565 -0.2021
 3436TIP3   OH234502   0.288   4.984   8.019 -0.2974 -0.3674  0.0944
 3436TIP3    H134503   0.215   5.045   8.018  0.5758  0.7423  0.8996
 3436TIP3    H234504   0.287   4.947   8.108 -0.0876 -0.6088 -0.0027
 3437TIP3   OH234505   4.073   2.297   8.289 -0.6143  0.2049 -0.0115
 3437TIP3    H134506   4.075   2.305   8.384 -0.3245 -0.4868  0.0408
 3437TIP3    H234507   4.058   2.204   8.273 -2.0133  0.5093 -0.6297
 3438TIP3   OH234508   3.209   6.226   9.110 -0.3750 -0.3158 -0.4267
 3438TIP3    H134509   3.292   6.272   9.100 -0.1925 -0.9081 -1.9184
 3438TIP3    H234510   3.176   6.253   9.196  1.3655 -0.1042  0.1992
 3439TIP3   OH234511   3.755   5.718   9.610  0.3304  0.2208  0.5279
 3439TIP3    H134512   3.661   5.704   9.599  0.6244 -1.1467 -0.4797
 3439TIP3    H234513   3.765   5.813   9.601 -0.7724  0.2500 -1.0839
 3440TIP3   OH234514   4.997   3.937   9.274  0.2700  0.0038 -0.4271
 3440TIP3    H134515   5.071   3.966   9.221  1.4423 -0.7167  0.7500
 3440TIP3    H234516   4.999   3.841   9.268  1.4753 -0.2251  2.1464
 3441TIP3   OH234517   1.380   0.807   8.515  0.6825  0.3038  0.5144
 3441TIP3    H134518   1.468   0.791   8.482  0.5605 -0.6185  0.6079
 3441TIP3    H234519   1.392   0.830   8.607  0.9424  1.8259  0.1154
 3442TIP3   OH234520   3.104   4.401   8.812 -0.2085 -0.4132  0.0449
 3442TIP3    H134521   3.098   4.495   8.831  1.3453 -0.1993 -0.3789
 3442TIP3    H234522   3.123   4.361   8.896 -1.4286 -0.4484  0.3336
 3443TIP3   OH234523   3.923   2.842   8.847  0.5085  0.0032  0.9250
 3443TIP3    H134524   3.870   2.910   8.889 -0.8400  0.0103 -0.6998
 3443TIP3    H234525   3.906   2.763   8.900  1.8023  0.7694  2.5965
 3444TIP3   OH234526   3.566   0.529   9.194  0.6307 -0.0518  0.0895
 3444TIP3    H134527   3.510   0.599   9.161  0.0430 -0.7508 -0.4388
 3444TIP3    H234528   3.586   0.476   9.116  2.0613  0.1969  0.2555
 3445TIP3   OH234529   0.205   3.779   8.161 -0.3796 -0.0435 -0.0347
 3445TIP3    H134530   0.228   3.690   8.132 -2.4092 -0.5055 -0.3963
 3445TIP3    H234531   0.126   3.800   8.112  0.4908  2.3260 -0.5514
 3446TIP3   OH234532   6.826   4.860   8.378 -0.4997  0.4890 -0.5025
 3446TIP3    H134533   6.778   4.943   8.370 -0.7595  0.4648  0.6138
 3446TIP3    H234534   6.758   4.795   8.396 -0.2207  0.1576 -0.6411
 3447TIP3   OH234535   6.343   0.290   8.330 -0.0009  0.2002 -0.0365
 3447TIP3    H134536   6.404   0.354   8.368 -0.7701 -0.0185  1.6342
 3447TIP3    H234537   6.307   0.335   8.253  1.0754  0.9407 -0.1250
 3448TIP3   OH234538   0.345   2.539   7.386 -0.3084 -0.5976  0.0311
 3448TIP3    H134539   0.328   2.629   7.359  0.9589 -0.3112  0.1441
 3448TIP3    H234540   0.305   2.485   7.318 -0.4039  0.0586 -0.4349
 3449TIP3   OH234541   4.425   0.023   8.143  0.3331 -0.3160 -0.2616
 3449TIP3    H134542   4.499  -0.036   8.156  0.9426  0.5414  0.3207
 3449TIP3    H234543   4.361  -0.028   8.093  1.0564 -1.2758 -0.2302
 3450TIP3   OH234544   2.098   6.334   9.459  0.3260 -0.4254 -0.5995
 3450TIP3    H134545   2.141   6.387   9.526  0.4996 -0.6770 -0.5102
 3450TIP3    H234546   2.112   6.383   9.378 -0.9793  0.5208 -0.2743
 3451TIP3   OH234547   0.176   0.579   6.740 -0.4118 -0.4866  0.3575
 3451TIP3    H134548   0.152   0.670   6.759  2.3442  0.3988  0.1790
 3451TIP3    H234549   0.113   0.549   6.675 -1.6182  1.1592  0.7140
 3452TIP3   OH234550   1.337   2.747   8.139 -0.0765  0.2176  0.0957
 3452TIP3    H134551   1.329   2.664   8.092 -1.5434 -0.0370  0.7268
 3452TIP3    H234552   1.252   2.758   8.182  0.7952  1.0150  1.7207
 3453TIP3   OH234553   5.218   6.199   8.208  0.3431  0.1884 -0.1012
 3453TIP3    H134554   5.191   6.195   8.300  1.3808 -0.2389  0.2010
 3453TIP3    H234555   5.150   6.151   8.161 -0.4254  0.7695  0.3771
 3454TIP3   OH234556   0.327   0.070   7.826  0.0650 -0.4516  0.2831
 3454TIP3    H134557   0.344   0.153   7.869 -2.7913  0.4407 -0.0808
 3454TIP3    H234558   0.381   0.072   7.747 -0.2135  1.2397  0.1061
 3455TIP3   OH234559   5.617   3.571   7.014  0.0341 -0.6411 -0.0887
 3455TIP3    H134560   5.695   3.555   7.067 -0.3954 -1.3781  0.3222
 3455TIP3    H234561   5.546   3.528   7.060 -0.5927 -0.1567 -0.5720
 3456TIP3   OH234562   3.001   2.610   7.788 -0.6137  0.1140  1.0129
 3456TIP3    H134563   2.974   2.560   7.865  0.5310 -0.1893  1.2334
 3456TIP3    H234564   2.923   2.661   7.765 -1.1933 -0.3085  1.9482
 3457TIP3   OH234565   4.748   2.438   8.610 -0.1926  0.0782  0.8932
 3457TIP3    H134566   4.754   2.429   8.705 -1.4747  2.9939  1.3604
 3457TIP3    H234567   4.802   2.515   8.589 -0.3152 -0.2228 -0.6904
 3458TIP3   OH234568   3.928   5.866   8.720  0.2285 -0.1607 -0.7425
 3458TIP3    H134569   3.900   5.785   8.678  0.9358 -1.0084  0.3502
 3458TIP3    H234570   3.888   5.863   8.807  0.6550  0.4214 -0.5205
 3459TIP3   OH234571   7.410   2.114   7.348  0.6426  0.0438 -0.5917
 3459TIP3    H134572   7.348   2.162   7.403  1.2455  0.3199 -0.1427
 3459TIP3    H234573   7.355   2.054   7.297 -0.1151  1.1121 -1.0742
 3460TIP3   OH234574   0.561   4.440   7.246 -0.1397 -0.2390  0.4743
 3460TIP3    H134575   0.495   4.462   7.180 -1.0756 -1.1505  1.0751
 3460TIP3    H234576   0.639   4.419   7.196 -0.9076 -1.1827 -0.3627
 3461TIP3   OH234577   6.666   1.752   8.618  0.5040 -0.8030 -0.5214
 3461TIP3    H134578   6.700   1.737   8.707  0.1922 -2.3512 -0.6426
 3461TIP3    H234579   6.574   1.775   8.632  0.4980 -0.8766 -0.4363
 3462TIP3   OH234580   5.447   3.886   8.605  0.1626 -0.0168 -0.5718
 3462TIP3    H134581   5.450   3.974   8.643  0.1049 -0.6061  0.8815
 3462TIP3    H234582   5.356   3.858   8.618  0.5088 -0.8119  0.2734
 3463TIP3   OH234583   5.718   5.699   7.293 -0.2145 -0.8054  0.1747
 3463TIP3    H134584   5.634   5.694   7.248 -0.5414  0.0497  0.6674
 3463TIP3    H234585   5.783   5.692   7.224 -0.6995 -0.9470 -0.2710
 3464TIP3   OH234586   1.141   1.917   8.337  0.8762  0.6655 -0.2627
 3464TIP3    H134587   1.191   1.958   8.408 -0.1036  1.1722  0.1671
 3464TIP3    H234588   1.127   1.988   8.274  3.2443 -0.1997 -1.8638
 3465TIP3   OH234589   5.394   7.095   7.946 -0.2585  0.1127 -0.0255
 3465TIP3    H134590   5.336   7.171   7.949 -0.9673 -0.4360  0.7782
 3465TIP3    H234591   5.350   7.035   7.885 -1.2658 -0.8380  1.5494
 3466TIP3   OH234592   1.075   6.884   8.459 -0.2045  0.0026  0.1434
 3466TIP3    H134593   1.091   6.961   8.513 -0.2895  0.9101 -1.0860
 3466TIP3    H234594   1.024   6.825   8.516  1.9089 -0.2294  1.9396
 3467TIP3   OH234595   1.326   7.109   8.723 -0.1728 -0.2552 -0.2591
 3467TIP3    H134596   1.335   7.074   8.634 -0.5289 -1.8160  0.2816
 3467TIP3    H234597   1.243   7.157   8.722 -0.5370 -0.8847 -0.5837
 3468TIP3   OH234598   6.789   2.523   7.516 -0.1840 -0.0950 -0.1808
 3468TIP3    H134599   6.762   2.564   7.434  0.7080 -0.9454 -0.9188
 3468TIP3    H234600   6.843   2.590   7.559 -1.4347  0.7137  0.1938
 3469TIP3   OH234601   3.829   5.871   9.288  0.0978  0.3577 -0.2940
 3469TIP3    H134602   3.856   5.779   9.292  0.5545  0.3797 -1.9892
 3469TIP3    H234603   3.739   5.871   9.319  0.3609 -0.5310  0.5083
 3470TIP3   OH234604   7.068   4.737   8.470  0.9919 -0.3306 -0.4261
 3470TIP3    H134605   7.116   4.775   8.396  1.8270  1.9763  1.1749
 3470TIP3    H234606   6.976   4.758   8.453  1.2614  0.9117 -0.4625
 3471TIP3   OH234607   4.691   3.548   7.005  0.2403  0.4344  0.2566
 3471TIP3    H134608   4.650   3.615   6.950 -0.6757  0.5816  1.0810
 3471TIP3    H234609   4.756   3.596   7.057 -0.5347  0.7394  0.9690
 3472TIP3   OH234610   5.202   3.764   7.316 -0.3611 -0.3322 -0.1478
 3472TIP3    H134611   5.294   3.766   7.288 -0.6683 -0.1885 -1.1947
 3472TIP3    H234612   5.152   3.774   7.235 -1.2915  1.0501  0.5633
 3473TIP3   OH234613   1.863   3.846   7.794  0.2173  0.4498 -0.3372
 3473TIP3    H134614   1.900   3.790   7.726 -0.0586 -1.2478  0.8466
 3473TIP3    H234615   1.921   3.922   7.797  2.1055 -0.9370 -0.2966
 3474TIP3   OH234616   3.590   1.740   8.454 -0.0232 -0.1306 -0.4314
 3474TIP3    H134617   3.601   1.658   8.501 -0.5784  0.2285  0.3425
 3474TIP3    H234618   3.644   1.730   8.376  2.5488  0.0227  1.2106
 3475TIP3   OH234619   6.117   4.140   8.343  0.0784 -0.1157  0.0494
 3475TIP3    H134620   6.036   4.090   8.359 -0.5458  1.3547  1.8052
 3475TIP3    H234621   6.098   4.227   8.376  2.3405  0.3254  0.3093
 3476TIP3   OH234622   7.175   7.494   8.198 -0.1795  0.4239 -0.1852
 3476TIP3    H134623   7.195   7.419   8.142  0.7552  1.3048 -1.0461
 3476TIP3    H234624   7.226   7.566   8.162 -1.2920  1.5657  0.4511
 3477TIP3   OH234625   1.453   0.589   6.903 -0.3184  0.3936  0.1600
 3477TIP3    H134626   1.430   0.680   6.919  0.1031  0.4845  0.2742
 3477TIP3    H234627   1.374   0.549   6.866  0.0012  1.2265 -1.5193
 3478TIP3   OH234628   6.778   2.080   7.679  0.4886 -0.0570 -0.4527
 3478TIP3    H134629   6.696   2.085   7.728 -0.3557 -0.8653 -1.7067
 3478TIP3    H234630   6.816   2.167   7.687 -1.2373  0.8070 -1.0489
 3479TIP3   OH234631   2.071   6.848   6.955 -0.5668 -0.1558  0.2094
 3479TIP3    H134632   2.025   6.909   6.897 -0.9466 -0.7785 -0.1509
 3479TIP3    H234633   2.083   6.769   6.903 -0.0588 -0.3856  0.6660
 3480TIP3   OH234634   1.935   2.799   8.837  0.5716  0.2962 -0.2672
 3480TIP3    H134635   2.027   2.774   8.835  1.0679  2.0220 -0.2362
 3480TIP3    H234636   1.888   2.719   8.811  2.2352  0.1789 -3.4199
 3481TIP3   OH234637   0.513   3.400   8.450  0.4864  0.0302  0.0498
 3481TIP3    H134638   0.589   3.455   8.469  0.5412  0.1218 -0.4281
 3481TIP3    H234639   0.530   3.318   8.497  0.6656  0.2113  0.3064
 3482TIP3   OH234640   2.257   7.189   8.489  0.3968  1.0544  0.4008
 3482TIP3    H134641   2.298   7.185   8.403  1.0268 -0.5073  0.7511
 3482TIP3    H234642   2.209   7.107   8.498  0.5406  1.0783  1.6348
 3483TIP3   OH234643   2.722   5.339   8.201 -1.1411 -0.3472 -0.1662
 3483TIP3    H134644   2.720   5.435   8.204 -2.0895 -0.3941  1.1980
 3483TIP3    H234645   2.790   5.319   8.136  0.3271  1.2336  0.7828
 3484TIP3   OH234646   4.814   7.212   8.908 -0.4179 -0.3122  0.2527
 3484TIP3    H134647   4.886   7.273   8.924  0.9233 -1.5866 -0.7311
 3484TIP3    H234648   4.754   7.261   8.852  1.1969 -0.2327 -1.4870
 3485TIP3   OH234649   4.693   7.406   6.839  0.3280 -0.5746 -0.0441
 3485TIP3    H134650   4.779   7.370   6.861 -0.5014 -2.6162  0.0630
 3485TIP3    H234651   4.643   7.332   6.804 -1.2285  0.6744 -0.6475
 3486TIP3   OH234652   4.383   3.290   7.887 -0.0410 -0.0019  0.0905
 3486TIP3    H134653   4.366   3.365   7.945  1.4515  1.3890 -1.1489
 3486TIP3    H234654   4.472   3.263   7.908 -0.1504 -0.6828 -0.2850
 3487TIP3   OH234655   0.798   6.450   9.301 -0.2051  0.0697  0.1531
 3487TIP3    H134656   0.794   6.479   9.210  0.1161 -1.4033 -0.3626
 3487TIP3    H234657   0.715   6.403   9.315  0.5038 -1.2776  0.0215
 3488TIP3   OH234658   7.670   4.890   7.708 -0.0486  0.2605  0.0074
 3488TIP3    H134659   7.637   4.808   7.745 -0.3023  0.2859 -0.1619
 3488TIP3    H234660   7.594   4.949   7.708 -0.7085 -0.4321 -2.6509
 3489TIP3   OH234661   2.025   7.008   8.076 -0.0461  0.1856 -0.6525
 3489TIP3    H134662   1.940   6.988   8.038  0.4318 -1.1638 -1.0831
 3489TIP3    H234663   2.068   7.065   8.012 -0.9053  1.5534 -0.0558
 3490TIP3   OH234664   1.641   4.526   8.367 -0.0183  0.2609 -0.1869
 3490TIP3    H134665   1.698   4.453   8.388  0.7509  0.3849 -1.7135
 3490TIP3    H234666   1.552   4.489   8.371  0.2348 -0.2694  0.8510
 3491TIP3   OH234667   3.370   5.389   9.387 -0.1516 -0.4994  0.1574
 3491TIP3    H134668   3.375   5.344   9.303  1.1576  1.3467 -0.8061
 3491TIP3    H234669   3.382   5.481   9.367  0.9520 -0.0590  2.4190
 3492TIP3   OH234670   5.027   1.628   8.439 -0.1199 -0.0744 -0.0206
 3492TIP3    H134671   5.110   1.605   8.398  0.4762  2.3281 -0.3452
 3492TIP3    H234672   5.015   1.721   8.418 -1.7336  0.2502  2.0004
 3493TIP3   OH234673   3.285   3.097   8.194  0.1759  0.7535  0.1669
 3493TIP3    H134674   3.223   3.170   8.187  1.5514  1.9758  0.1509
 3493TIP3    H234675   3.247   3.028   8.140 -1.0087  1.5839 -0.1004
 3494TIP3   OH234676   5.369   3.511   7.136  0.1668 -0.1921 -0.0595
 3494TIP3    H134677   5.330   3.592   7.102 -0.3779 -0.2302  0.4558
 3494TIP3    H234678   5.330   3.442   7.082  0.0050 -0.1757  0.0347
 3495TIP3   OH234679   5.644   4.176   7.162  0.2164 -0.4954 -0.0717
 3495TIP3    H134680   5.696   4.095   7.163  1.3964  0.2488  0.5059
 3495TIP3    H234681   5.689   4.232   7.099  0.0421  0.1315  0.3582
 3496TIP3   OH234682   5.977   4.054   9.255 -0.3106 -0.3620  0.7196
 3496TIP3    H134683   5.957   4.047   9.348 -0.1358 -0.9564  0.7171
 3496TIP3    H234684   6.058   4.003   9.244  0.1726  0.4485  0.4016
 3497TIP3   OH234685   0.362   7.172   7.664  0.0168 -0.0874 -0.2061
 3497TIP3    H134686   0.409   7.098   7.702  0.2115  0.3473  0.4165
 3497TIP3    H234687   0.417   7.201   7.592  1.5933  1.4380  1.4912
 3498TIP3   OH234688   4.036   0.845   8.477  0.6939  0.1079 -0.2496
 3498TIP3    H134689   4.131   0.857   8.482  0.9205 -1.6658  0.3004
 3498TIP3    H234690   4.025   0.768   8.422 -0.5090  1.0521 -1.3895
 3499TIP3   OH234691   6.499   2.692   7.733  0.1870  0.6012 -0.1369
 3499TIP3    H134692   6.492   2.627   7.663 -1.8680  1.3840 -0.7201
 3499TIP3    H234693   6.415   2.687   7.779  0.1677  2.4793  0.1011
 3500TIP3   OH234694   2.906   4.183   8.569  0.5963 -0.0381 -0.5675
 3500TIP3    H134695   3.000   4.173   8.555  0.8118  0.9789  0.0011
 3500TIP3    H234696   2.887   4.273   8.540 -0.4459 -0.6375 -1.8658
 3501TIP3   OH234697   3.020   3.916   9.294  0.0929  0.0324 -0.0128
 3501TIP3    H134698   2.941   3.871   9.323  0.7367 -4.1790 -3.6058
 3501TIP3    H234699   3.092   3.859   9.322  1.4424  1.2465 -0.8705
 3502TIP3   OH234700   2.795   4.897   7.576  0.2430 -0.2834 -0.7821
 3502TIP3    H134701   2.880   4.877   7.535 -0.1106 -1.2196 -1.0639
 3502TIP3    H234702   2.784   4.829   7.642 -1.0293 -1.1592 -1.8446
 3503TIP3   OH234703   6.178   3.465   9.302  0.2309 -0.5003  0.1514
 3503TIP3    H134704   6.126   3.502   9.373  0.2000  1.8826 -1.0340
 3503TIP3    H234705   6.255   3.521   9.295  0.2898 -0.7436 -1.6185
 3504TIP3   OH234706   6.293   7.492   7.256  0.7713  0.2511 -0.4448
 3504TIP3    H134707   6.288   7.414   7.200  1.7349 -1.6044  1.8490
 3504TIP3    H234708   6.203   7.505   7.286  0.4949  0.4262 -1.3196
 3505TIP3   OH234709   7.341   7.469   8.480 -0.3263 -0.4696 -0.0786
 3505TIP3    H134710   7.304   7.458   8.392 -1.0590 -1.0942  0.2962
 3505TIP3    H234711   7.415   7.407   8.482 -0.5525 -0.7462 -0.1265
 3506TIP3   OH234712   5.846   2.026   8.949 -0.1784 -0.8247  0.1529
 3506TIP3    H134713   5.897   2.095   8.906 -0.3966 -0.7928 -0.0618
 3506TIP3    H234714   5.755   2.051   8.933 -0.2600 -0.9725  0.3835
 3507TIP3   OH234715   4.965   0.058   7.100  0.4768 -0.0455 -0.0034
 3507TIP3    H134716   4.925   0.136   7.137  0.5227 -0.4377  0.8934
 3507TIP3    H234717   5.009   0.089   7.021 -1.3682  0.4418 -0.8937
 3508TIP3   OH234718   0.970   0.857   6.858  0.1454  0.2425  0.0049
 3508TIP3    H134719   0.880   0.828   6.877 -0.1805  1.0720 -0.2195
 3508TIP3    H234720   1.025   0.793   6.903 -0.5709  0.3417  1.0724
 3509TIP3   OH234721   1.185   4.619   8.559  0.1377  0.3194  0.1840
 3509TIP3    H134722   1.259   4.645   8.505 -0.3342 -0.7941 -1.0654
 3509TIP3    H234723   1.223   4.600   8.645  0.9328  1.9608  0.2258
 3510TIP3   OH234724   3.014   5.890   6.753 -0.7137  0.0115  0.1344
 3510TIP3    H134725   2.922   5.867   6.740 -0.0098 -3.2387 -0.0009
 3510TIP3    H234726   3.057   5.861   6.673  0.4492  1.7934  0.0524
 3511TIP3   OH234727   6.917   1.130   8.277 -0.4884  0.1268 -0.4912
 3511TIP3    H134728   6.822   1.131   8.287 -0.3346  1.0729  1.2617
 3511TIP3    H234729   6.950   1.188   8.346  1.4720 -2.0211  0.5364
 3512TIP3   OH234730   5.820   6.431   7.800 -0.5428 -0.6433  0.1226
 3512TIP3    H134731   5.730   6.410   7.776 -0.6986 -0.6248  0.6946
 3512TIP3    H234732   5.823   6.526   7.801 -0.6391 -0.6432  0.5561
 3513TIP3   OH234733   5.159   1.758   8.103  0.3311 -0.6702 -0.0638
 3513TIP3    H134734   5.209   1.715   8.173 -0.2263 -0.4872  0.4562
 3513TIP3    H234735   5.222   1.768   8.031  1.2795  0.3064  0.8682
 3514TIP3   OH234736   0.636   1.888   9.368 -0.3011  0.4075 -0.5459
 3514TIP3    H134737   0.603   1.895   9.458  0.5624 -1.0738 -0.0733
 3514TIP3    H234738   0.694   1.963   9.357 -1.0547  1.0634 -0.1720
 3515TIP3   OH234739   0.519   0.264   7.933  0.8133 -0.7025 -0.2194
 3515TIP3    H134740   0.473   0.347   7.924 -0.4872 -1.5052 -1.4318
 3515TIP3    H234741   0.591   0.269   7.870  1.5544 -0.0014  0.6596
 3516TIP3   OH234742   4.697   7.371   7.197 -0.0091  0.2709 -0.3052
 3516TIP3    H134743   4.641   7.304   7.237  0.5859  0.6390  1.2281
 3516TIP3    H234744   4.777   7.324   7.173  0.6129  0.4873  1.2384
 3517TIP3   OH234745   1.582   4.339   6.905  0.4886  0.1348  0.0762
 3517TIP3    H134746   1.635   4.363   6.982 -0.1152 -1.3672  1.0062
 3517TIP3    H234747   1.630   4.266   6.866 -0.0374 -0.1583 -0.0266
 3518TIP3   OH234748   6.756   5.352   9.430 -0.1697  0.0972 -0.3792
 3518TIP3    H134749   6.723   5.262   9.435 -0.3712  0.0968 -1.5299
 3518TIP3    H234750   6.851   5.342   9.431 -0.1907 -0.1259 -0.4759
 3519TIP3   OH234751   0.090   6.100   8.887 -0.8470 -0.1104 -0.2766
 3519TIP3    H134752   0.127   6.061   8.966 -1.8847  1.5301  1.0851
 3519TIP3    H234753   0.016   6.043   8.864 -1.6685  0.3951  1.0350
 3520TIP3   OH234754   2.416   1.043   8.087 -0.2436  0.1738  0.2572
 3520TIP3    H134755   2.447   1.103   8.019  0.4077 -0.1508  0.2616
 3520TIP3    H234756   2.470   0.964   8.075 -0.7902 -0.2427  0.5342
 3521TIP3   OH234757   1.183   6.158   8.743  0.1832  0.5762  0.0842
 3521TIP3    H134758   1.272   6.164   8.708 -0.0923 -0.5872 -0.9282
 3521TIP3    H234759   1.134   6.224   8.694 -0.1286 -0.8290 -1.5967
 3522TIP3   OH234760   5.081   0.878   7.592 -0.6187 -0.1197 -0.3709
 3522TIP3    H134761   5.166   0.912   7.620 -0.3742  0.0372 -1.2908
 3522TIP3    H234762   5.066   0.917   7.506 -1.0360 -1.1287 -0.7720
 3523TIP3   OH234763   1.158   3.291   8.667  0.1967  0.3923  0.4320
 3523TIP3    H134764   1.098   3.309   8.739  1.0269 -0.2465  1.3197
 3523TIP3    H234765   1.240   3.266   8.710  0.5313 -0.6322 -0.7411
 3524TIP3   OH234766   0.105   2.929   7.534  0.5315 -0.7267 -0.6472
 3524TIP3    H134767   0.178   2.904   7.478  2.3987  1.1875  0.7620
 3524TIP3    H234768   0.120   2.880   7.615 -0.8599 -1.7324 -0.9531
 3525TIP3   OH234769   3.368   5.636   7.142  0.0191 -0.2352  0.1141
 3525TIP3    H134770   3.345   5.729   7.134  0.9004 -0.0445 -0.2979
 3525TIP3    H234771   3.325   5.607   7.222 -0.8477  0.3491 -0.1235
 3526TIP3   OH234772   4.358   3.062   9.328 -0.0024 -0.4260 -0.0951
 3526TIP3    H134773   4.264   3.072   9.312 -0.1611 -0.2805  0.8612
 3526TIP3    H234774   4.391   3.152   9.329  0.4772 -0.5227 -2.1359
 3527TIP3   OH234775   0.877   3.035   9.770 -0.8552  0.0295 -0.3490
 3527TIP3    H134776   0.955   3.034   9.715 -0.2441 -0.8758  0.4768
 3527TIP3    H234777   0.904   2.986   9.849 -2.7782 -1.8945 -0.7929
 3528TIP3   OH234778   2.138   5.901   8.546  0.5456  0.6050 -0.6105
 3528TIP3    H134779   2.076   5.974   8.553  0.4933  0.6750 -1.7144
 3528TIP3    H234780   2.224   5.941   8.559  0.3643  0.4183  1.5254
 3529TIP3   OH234781   1.224   0.772   8.829  0.6981  0.1644  0.3301
 3529TIP3    H134782   1.192   0.857   8.800 -2.7247 -0.6559  1.2347
 3529TIP3    H234783   1.205   0.713   8.756  1.7578 -0.0755  0.2400
 3530TIP3   OH234784   2.901   2.861   8.807 -0.3310 -0.8393  0.1210
 3530TIP3    H134785   2.823   2.917   8.804  0.4901  0.3275  0.2643
 3530TIP3    H234786   2.868   2.775   8.781 -1.3489  0.0097 -1.6258
 3531TIP3   OH234787   3.450   4.509   7.955  0.3232  0.0749 -0.5655
 3531TIP3    H134788   3.394   4.529   7.880 -0.1972 -1.3285 -0.5801
 3531TIP3    H234789   3.527   4.468   7.918  0.9591  1.1358 -0.4638
 3532TIP3   OH234790   5.597   1.798   8.643  0.3463 -0.2710 -0.1416
 3532TIP3    H134791   5.620   1.880   8.686 -0.3265  0.0169 -0.3311
 3532TIP3    H234792   5.526   1.761   8.695  1.3423 -1.2722  0.5673
 3533TIP3   OH234793   0.935   7.454   7.978  0.0529 -0.6278  0.0018
 3533TIP3    H134794   0.929   7.501   8.061 -0.3466 -2.1208  0.8577
 3533TIP3    H234795   1.023   7.473   7.945 -0.0232  0.5019  0.4345
 3534TIP3   OH234796   5.178   4.059   7.958 -0.2443 -0.0233  0.4468
 3534TIP3    H134797   5.087   4.067   7.986  0.0561  0.1960  1.4178
 3534TIP3    H234798   5.203   4.148   7.934 -0.7741 -0.3502 -1.5109
 3535TIP3   OH234799   7.616   4.114   9.323  0.5784 -0.0634 -0.5989
 3535TIP3    H134800   7.632   4.132   9.416  1.4098 -0.5789 -0.6422
 3535TIP3    H234801   7.702   4.113   9.283  0.2961 -0.7841 -1.2124
 3536TIP3   OH234802   0.875   2.731   9.348 -0.4932 -0.6587  0.1025
 3536TIP3    H134803   0.825   2.721   9.429 -0.1228 -2.0103  0.1952
 3536TIP3    H234804   0.881   2.642   9.313  0.6887 -0.3260 -0.5999
 3537TIP3   OH234805   4.764   6.565   9.254 -0.0709 -0.8453 -0.4405
 3537TIP3    H134806   4.758   6.539   9.162 -1.4409 -1.7661 -0.1143
 3537TIP3    H234807   4.774   6.483   9.302 -0.3857 -0.4606  0.3033
 3538TIP3   OH234808   1.991   2.701   8.025  0.0036  0.5485 -0.6074
 3538TIP3    H134809   2.044   2.775   8.053  0.1182  0.3923 -0.4095
 3538TIP3    H234810   1.941   2.734   7.951  0.3191  0.7230 -0.7478
 3539TIP3   OH234811   1.101   7.479   9.298 -0.4856 -0.0297  0.2590
 3539TIP3    H134812   1.057   7.553   9.340  1.2893  0.7676  0.8357
 3539TIP3    H234813   1.133   7.515   9.215  0.5416 -0.0705  0.6231
 3540TIP3   OH234814   3.638   1.136   8.037 -0.8037  0.2713 -0.4025
 3540TIP3    H134815   3.612   1.195   8.108  1.0519 -0.5193  1.0131
 3540TIP3    H234816   3.699   1.188   7.985  0.0562 -0.0579  0.2642
 3541TIP3   OH234817   1.075   1.032   9.016 -0.3521  0.4065  0.0823
 3541TIP3    H134818   1.029   1.113   8.994  0.9604  1.2521  0.3421
 3541TIP3    H234819   1.132   1.056   9.089  1.1315 -0.3684 -0.7927
 3542TIP3   OH234820   0.562   5.580   9.029 -0.2958  0.0986  0.0689
 3542TIP3    H134821   0.640   5.633   9.012 -0.3870  0.5922  1.0921
 3542TIP3    H234822   0.516   5.628   9.098 -1.9529  0.2639 -1.0902
 3543TIP3   OH234823   5.577   1.197   8.284 -0.1856  0.2601  0.2164
 3543TIP3    H134824   5.559   1.176   8.376  0.9660 -1.2807  0.1353
 3543TIP3    H234825   5.670   1.218   8.282  0.0564 -0.8123 -0.7465
 3544TIP3   OH234826   1.865   1.931   8.379 -0.3437  0.6439 -0.2412
 3544TIP3    H134827   1.883   1.964   8.291 -1.5999  0.6845 -0.5056
 3544TIP3    H234828   1.770   1.940   8.389 -0.3372 -0.2067  0.7779
 3545TIP3   OH234829   4.846   6.632   8.867 -0.2730 -0.3116  0.1777
 3545TIP3    H134830   4.867   6.709   8.921  3.0536 -1.1041  0.2438
 3545TIP3    H234831   4.771   6.593   8.911 -1.7018  2.4961  0.4936
 3546TIP3   OH234832   1.380   4.707   8.412  0.0742 -0.0690 -0.0927
 3546TIP3    H134833   1.444   4.691   8.342 -1.5005 -0.5773 -1.4563
 3546TIP3    H234834   1.390   4.800   8.432  0.5094  0.1040 -1.0419
 3547TIP3   OH234835   1.428   5.375   7.030  0.2080 -0.1938  0.2950
 3547TIP3    H134836   1.440   5.390   6.936 -1.6436  1.8005  0.2905
 3547TIP3    H234837   1.469   5.451   7.072  1.8650 -1.5427  1.2062
 3548TIP3   OH234838   4.913   2.736   9.378  0.8260 -0.5001 -0.1278
 3548TIP3    H134839   5.001   2.745   9.343  1.1785 -1.3542  0.5241
 3548TIP3    H234840   4.887   2.646   9.357  0.5654 -0.6315  0.7104
 3549TIP3   OH234841   2.720   5.644   8.600 -0.3134 -1.1806  0.2278
 3549TIP3    H134842   2.811   5.633   8.628 -0.9522 -0.6812  2.8039
 3549TIP3    H234843   2.670   5.592   8.664 -2.0232  1.1067  0.8576
 3550TIP3   OH234844   3.997   6.683   7.527 -0.3787 -0.1619 -0.5996
 3550TIP3    H134845   3.982   6.615   7.461  0.6557  0.6899 -1.7667
 3550TIP3    H234846   3.999   6.636   7.610 -1.1347 -1.3508 -1.2132
 3551TIP3   OH234847   5.188   6.421   8.824  1.0272  0.0025  0.3074
 3551TIP3    H134848   5.235   6.416   8.741 -0.4791 -1.6680 -0.5133
 3551TIP3    H234849   5.245   6.473   8.881  3.4279 -1.1583 -0.8875
 3552TIP3   OH234850   3.278   4.768   7.607 -0.3057 -0.1304 -0.0014
 3552TIP3    H134851   3.273   4.689   7.553  0.3118  0.9683 -1.7560
 3552TIP3    H234852   3.366   4.765   7.644 -0.3347 -0.3407  0.0524
 3553TIP3   OH234853   3.637   4.373   8.464 -0.4681 -0.1688  0.1002
 3553TIP3    H134854   3.689   4.300   8.498  0.8858  0.0176 -1.4292
 3553TIP3    H234855   3.632   4.434   8.538  0.8781 -0.5374  0.5394
 3554TIP3   OH234856   7.463   4.284   9.165  0.0289  0.6393 -0.1681
 3554TIP3    H134857   7.521   4.331   9.105  0.1221  0.2274 -0.4006
 3554TIP3    H234858   7.521   4.242   9.227 -0.0041 -0.0235 -0.5825
 3555TIP3   OH234859   2.208   5.435   8.466 -0.4349  0.7668  0.2629
 3555TIP3    H134860   2.253   5.455   8.384  0.3423 -1.5039  0.0706
 3555TIP3    H234861   2.190   5.341   8.462 -0.5029  0.6067  2.6183
 3556TIP3   OH234862   1.383   5.171   8.021 -0.5258 -0.8049  0.1763
 3556TIP3    H134863   1.465   5.126   8.044 -0.3939 -0.7742 -0.2360
 3556TIP3    H234864   1.323   5.101   7.998 -0.8453 -0.8769  1.1861
 3557TIP3   OH234865   3.197   0.519   8.307  0.3988  0.0391 -0.0510
 3557TIP3    H134866   3.256   0.444   8.308  0.7124  0.2853  0.6229
 3557TIP3    H234867   3.244   0.587   8.355  0.1606  0.7021 -0.7373
 3558TIP3   OH234868   4.540   6.215   9.125 -0.3686 -0.1102 -0.2501
 3558TIP3    H134869   4.594   6.227   9.047  2.0991 -0.7627  1.2649
 3558TIP3    H234870   4.554   6.124   9.150  1.0579  0.7389  2.4101
 3559TIP3   OH234871   2.386   2.573   8.989 -0.0486  0.0298 -0.2640
 3559TIP3    H134872   2.403   2.498   8.932 -0.6364 -0.8640  0.7132
 3559TIP3    H234873   2.312   2.546   9.043 -0.1079  1.2224  0.2828
 3560TIP3   OH234874   4.210   1.964   9.403  0.2610  0.1653  0.2099
 3560TIP3    H134875   4.162   1.936   9.324  1.2856  0.4730 -0.5497
 3560TIP3    H234876   4.147   2.018   9.451  0.0716  1.2370 -1.1678
 3561TIP3   OH234877   5.506   0.865   7.858  0.3301 -0.2793 -0.4119
 3561TIP3    H134878   5.577   0.847   7.796  0.5879  0.2859 -0.2903
 3561TIP3    H234879   5.550   0.868   7.943  0.0478 -0.5982 -0.2496
 3562TIP3   OH234880   1.185   1.654   8.944 -0.4586 -0.1210 -0.3546
 3562TIP3    H134881   1.264   1.701   8.970 -1.2104  0.5239  0.8712
 3562TIP3    H234882   1.199   1.632   8.851  1.3833 -0.5491 -0.0147
 3563TIP3   OH234883   0.077   5.968   8.599 -0.1272  0.1327  0.9135
 3563TIP3    H134884   0.124   6.038   8.644  0.6126 -0.2810  0.7948
 3563TIP3    H234885   0.112   5.969   8.510 -2.2099  1.5403  0.0305
 3564TIP3   OH234886   4.340   0.216   9.171  0.0985 -0.4735  0.2374
 3564TIP3    H134887   4.253   0.178   9.185  0.5590 -1.5524  0.1883
 3564TIP3    H234888   4.350   0.279   9.243  0.3711 -2.2900  1.8726
 3565TIP3   OH234889   2.102   7.351   8.262 -0.3229  0.4812  0.0535
 3565TIP3    H134890   2.130   7.396   8.341  0.1377 -0.3997  0.4024
 3565TIP3    H234891   2.169   7.284   8.247 -0.9656 -0.0630 -0.4784
 3566TIP3   OH234892   7.398   0.324   9.062  0.1704  0.3838 -0.3168
 3566TIP3    H134893   7.321   0.367   9.100 -2.7384 -2.6930 -2.2376
 3566TIP3    H234894   7.428   0.264   9.131  0.2237  0.8402  0.0647
 3567TIP3   OH234895   3.336   6.573   8.586 -0.1039  0.1579  0.6208
 3567TIP3    H134896   3.420   6.532   8.603 -0.3384 -0.2281  0.8735
 3567TIP3    H234897   3.357   6.659   8.551  0.3952  0.1773  0.9613
 3568TIP3   OH234898   5.978   5.570   7.737 -0.0319 -0.5965  0.5122
 3568TIP3    H134899   6.010   5.493   7.690  1.6038  0.6427 -0.5335
 3568TIP3    H234900   5.975   5.639   7.671 -0.5217  0.4846  1.6192
 3569TIP3   OH234901   1.821   1.549   7.082  0.1389  0.2752  0.1188
 3569TIP3    H134902   1.757   1.487   7.047  1.8010 -1.1852 -0.5285
 3569TIP3    H234903   1.886   1.559   7.012  0.9573  1.1960  0.9666
 3570TIP3   OH234904   5.065   5.872   9.207 -0.4003  0.1597  0.2935
 3570TIP3    H134905   5.128   5.826   9.151  0.7169  0.8597  0.9356
 3570TIP3    H234906   5.015   5.803   9.250 -2.4135 -0.4333 -2.7214
 3571TIP3   OH234907   1.390   0.671   7.884  0.3135  0.0872 -0.3393
 3571TIP3    H134908   1.451   0.617   7.833 -0.0971 -0.3973 -0.3167
 3571TIP3    H234909   1.332   0.709   7.818 -0.4750 -0.8617 -0.2113
 3572TIP3   OH234910   4.882   4.814   9.404 -0.3044 -0.2783 -0.1106
 3572TIP3    H134911   4.850   4.863   9.328  1.2283  0.5752 -0.2622
 3572TIP3    H234912   4.803   4.780   9.447 -1.3531  1.2915 -0.7107
 3573TIP3   OH234913   5.372   0.561   8.138 -0.0128  0.2513  0.0692
 3573TIP3    H134914   5.322   0.614   8.199  0.0165  0.0393  0.2773
 3573TIP3    H234915   5.367   0.472   8.173 -2.2694 -0.3766 -1.6470
 3574TIP3   OH234916   5.156   4.094   8.905  0.5258 -0.2274  0.2190
 3574TIP3    H134917   5.075   4.056   8.939  0.1773 -0.0913 -0.4385
 3574TIP3    H234918   5.129   4.140   8.826  0.5421  3.0851  1.9606
 3575TIP3   OH234919   0.594   2.298   7.701  0.2571 -0.1032  0.1709
 3575TIP3    H134920   0.570   2.310   7.610 -1.7939 -0.4166  0.6106
 3575TIP3    H234921   0.686   2.321   7.706  0.3830 -0.0289 -1.9545
 3576TIP3   OH234922   2.911   3.502   8.841 -0.0134 -0.6982 -0.0536
 3576TIP3    H134923   2.829   3.465   8.808  0.4559 -0.2698 -1.8219
 3576TIP3    H234924   2.904   3.494   8.936 -2.1370 -0.5943 -0.1411
 3577TIP3   OH234925   6.126   6.402   7.888 -0.1197  0.1405 -0.3386
 3577TIP3    H134926   6.125   6.311   7.859  1.4062 -0.0942  0.2475
 3577TIP3    H234927   6.166   6.398   7.975 -0.8182  1.2805  0.0479
 3578TIP3   OH234928   1.302   4.957   7.812 -0.8391 -0.3863  0.1677
 3578TIP3    H134929   1.372   4.891   7.816 -0.1644  0.3386  0.8153
 3578TIP3    H234930   1.320   5.006   7.732 -2.1888 -1.8610 -1.0998
 3579TIP3   OH234931   6.849   0.283   8.963  0.0713 -0.2952  0.7956
 3579TIP3    H134932   6.900   0.202   8.967 -1.3128 -1.4355 -1.8536
 3579TIP3    H234933   6.906   0.345   8.917  0.6274 -0.1601  1.6405
 3580TIP3   OH234934   7.502   2.791   6.584 -0.6569  0.7347  0.3725
 3580TIP3    H134935   7.563   2.755   6.519  2.3126  1.2992  2.6009
 3580TIP3    H234936   7.466   2.714   6.627 -1.6379  0.3837 -1.0098
 3581TIP3   OH234937   6.757   3.009   6.872  0.7286 -0.2746 -0.0347
 3581TIP3    H134938   6.686   2.969   6.821 -0.6318  3.4579 -1.4076
 3581TIP3    H234939   6.834   2.997   6.817  0.1938 -0.3219 -0.8037
 3582TIP3   OH234940   5.373   5.207   7.986  0.2337  0.0571  0.0653
 3582TIP3    H134941   5.337   5.223   8.073 -3.4048  0.1932 -1.2957
 3582TIP3    H234942   5.304   5.235   7.925  3.1861  1.4774 -2.9931
 3583TIP3   OH234943   2.214   4.221   7.198  0.2587  0.5691  0.2676
 3583TIP3    H134944   2.224   4.235   7.104  0.8740 -1.7957 -0.0773
 3583TIP3    H234945   2.303   4.208   7.231 -0.0781 -0.5173  0.8151
 3584TIP3   OH234946   3.752   0.115   7.746 -0.0773 -0.0380 -0.5098
 3584TIP3    H134947   3.677   0.138   7.800 -0.2526 -1.0761 -0.2973
 3584TIP3    H234948   3.807   0.060   7.803  1.1134  1.1276 -0.4775
 3585TIP3   OH234949   6.669   1.641   8.907  0.5294 -0.1416  0.1091
 3585TIP3    H134950   6.734   1.711   8.908  1.5499 -0.9677  2.9053
 3585TIP3    H234951   6.637   1.638   8.998  1.0401 -3.7105  0.2881
 3586TIP3   OH234952   4.654   0.776   9.586  0.6146  0.3289  0.3763
 3586TIP3    H134953   4.622   0.817   9.667  2.7353  1.2488  0.8015
 3586TIP3    H234954   4.578   0.777   9.527 -0.2885  1.9282  1.5041
 3587TIP3   OH234955   0.093   6.224   7.502  0.3838 -0.2369 -0.2851
 3587TIP3    H134956   0.101   6.268   7.416 -0.9163 -1.2988 -0.9860
 3587TIP3    H234957  -0.002   6.216   7.516  0.5623  0.3058  1.4843
 3588TIP3   OH234958   0.293   1.960   7.708  0.0466 -0.1790  0.5831
 3588TIP3    H134959   0.217   1.902   7.715 -0.2839  0.2842  0.8892
 3588TIP3    H234960   0.336   1.934   7.626 -1.1167  0.3597 -0.2260
 3589TIP3   OH234961   7.209   6.127   8.737  0.1718 -0.3393  0.4510
 3589TIP3    H134962   7.293   6.149   8.697 -0.5182 -0.3850 -1.0975
 3589TIP3    H234963   7.162   6.211   8.742  0.0886 -0.4031  0.8172
 3590TIP3   OH234964   0.829   3.387   8.578  0.4135  0.1761 -0.1971
 3590TIP3    H134965   0.883   3.353   8.507  1.0653  2.0639 -0.6794
 3590TIP3    H234966   0.801   3.473   8.547 -0.7804  0.2977  1.1115
 3591TIP3   OH234967   7.612   2.202   8.124 -0.0625  0.3602 -0.3326
 3591TIP3    H134968   7.614   2.107   8.131  1.0199  0.3924 -0.0458
 3591TIP3    H234969   7.525   2.227   8.154 -0.0521 -0.4757  0.4149
 3592TIP3   OH234970   0.882   0.717   7.843 -0.0531 -0.4779  0.3183
 3592TIP3    H134971   0.907   0.768   7.767 -0.3405 -0.5834  0.1492
 3592TIP3    H234972   0.812   0.659   7.811 -0.0258 -0.6745  0.6069
 3593TIP3   OH234973   3.577   4.376   7.744 -0.1620  0.2674 -0.6520
 3593TIP3    H134974   3.643   4.314   7.777 -0.9756 -0.2606  0.0336
 3593TIP3    H234975   3.523   4.323   7.685 -0.1091  0.6461 -1.0451
 3594TIP3   OH234976   6.299   3.235   8.171 -0.5455  0.1899 -0.0904
 3594TIP3    H134977   6.271   3.324   8.194 -0.4508 -0.0927  1.1955
 3594TIP3    H234978   6.369   3.215   8.232 -0.4530 -0.7233 -0.4704
 3595TIP3   OH234979   6.315   5.596   9.247 -0.2305 -0.0591 -0.4642
 3595TIP3    H134980   6.354   5.672   9.290 -1.2230  0.5334 -0.6032
 3595TIP3    H234981   6.337   5.606   9.155 -0.0318 -0.1513 -0.4282
 3596TIP3   OH234982   4.108   6.996   8.382 -0.4115  0.4002 -0.3032
 3596TIP3    H134983   4.085   7.084   8.412 -0.0563  0.7636 -1.0704
 3596TIP3    H234984   4.038   6.972   8.321 -0.4368  0.2068 -0.1986
 3597TIP3   OH234985   7.176   5.261   7.641  0.4093 -0.1349 -0.0866
 3597TIP3    H134986   7.211   5.193   7.699 -1.1111  0.2135  1.3216
 3597TIP3    H234987   7.238   5.264   7.568  0.6480 -2.8725 -0.1121
 3598TIP3   OH234988   4.082   3.454   8.625 -0.1443 -0.2727  0.2470
 3598TIP3    H134989   4.098   3.363   8.651 -0.6923 -0.2021  0.8522
 3598TIP3    H234990   4.012   3.484   8.683 -2.1751 -0.4191 -2.0116
 3599TIP3   OH234991   1.348   2.859   7.598  0.2335 -0.1928  0.3319
 3599TIP3    H134992   1.377   2.784   7.547  3.1779 -0.5357  2.2661
 3599TIP3    H234993   1.417   2.872   7.663 -1.4567  2.5649  1.7693
 3600TIP3   OH234994   5.352   2.802   7.139 -0.4736  0.6627 -0.1247
 3600TIP3    H134995   5.371   2.833   7.228 -1.7645  0.3547  0.2832
 3600TIP3    H234996   5.261   2.827   7.124  0.0712  1.7742 -1.8403
 3601TIP3   OH234997   1.547   4.110   8.673  0.1229  0.3554  0.0402
 3601TIP3    H134998   1.476   4.045   8.673  0.0409  0.4458 -0.1569
 3601TIP3    H234999   1.561   4.131   8.580  1.5607 -0.9315 -0.0829
 3602TIP3   OH235000   7.016   0.668   7.189  0.3147 -0.4373  0.3802
 3602TIP3    H135001   7.040   0.727   7.260  1.2136 -1.6070  1.1002
 3602TIP3    H235002   7.050   0.709   7.110  0.4941  0.2332  0.8010
 3603TIP3   OH235003   2.410   4.841   8.923  0.3589  0.3970 -0.1353
 3603TIP3    H135004   2.493   4.884   8.944  0.9530 -0.0341 -1.4825
 3603TIP3    H235005   2.346   4.883   8.981  0.7223  3.7523 -1.8636
 3604TIP3   OH235006   3.435   6.187   7.948  0.0501 -0.3002  0.3513
 3604TIP3    H135007   3.445   6.249   7.875  0.2808  0.8240  1.3084
 3604TIP3    H235008   3.521   6.186   7.990 -0.9691  1.8898  2.7624
 3605TIP3   OH235009   5.639   7.285   8.860  0.0699 -0.0607 -0.1969
 3605TIP3    H135010   5.685   7.314   8.781 -0.5578 -1.9131 -1.2963
 3605TIP3    H235011   5.561   7.340   8.864  0.5179  0.6081 -0.3738
 3606TIP3   OH235012   5.348   1.464   7.908  0.0555  0.3166 -0.2727
 3606TIP3    H135013   5.381   1.553   7.904  2.4736 -0.4794  0.2484
 3606TIP3    H235014   5.349   1.441   8.001 -0.1404 -0.3965 -0.4361
 3607TIP3   OH235015   3.378   2.006   9.409 -0.1154  0.2239  0.4531
 3607TIP3    H135016   3.415   2.044   9.488  1.2346 -0.1605  0.0353
 3607TIP3    H235017   3.345   1.920   9.436  1.1167 -0.2735  0.4606
 3608TIP3   OH235018   5.709   0.645   7.828 -0.2145  0.3462  0.1317
 3608TIP3    H135019   5.800   0.616   7.837  0.2544  1.6652 -0.1419
 3608TIP3    H235020   5.695   0.653   7.734  0.0008  1.9371  0.2128
 3609TIP3   OH235021   0.712   4.695   9.070 -0.7937 -0.3522 -0.4004
 3609TIP3    H135022   0.655   4.766   9.041  0.8430  2.2894  2.2552
 3609TIP3    H235023   0.769   4.678   8.996 -1.5952  0.7303 -1.2956
 3610TIP3   OH235024   0.171   3.856   6.618  0.3499 -0.6696  0.1463
 3610TIP3    H135025   0.136   3.772   6.589  1.7819 -1.1326 -0.3084
 3610TIP3    H235026   0.244   3.833   6.676 -0.7707  0.2619  2.0009
 3611TIP3   OH235027   6.002   5.354   8.185 -0.3463  0.0238 -0.0625
 3611TIP3    H135028   6.037   5.267   8.165 -1.9443 -0.6923  0.1250
 3611TIP3    H235029   6.043   5.412   8.121 -0.8250 -1.2044 -1.5196
 3612TIP3   OH235030   6.048   2.447   7.003 -0.4107 -0.0750  0.7442
 3612TIP3    H135031   6.021   2.528   6.959  2.7046  0.5025 -0.3436
 3612TIP3    H235032   6.034   2.379   6.937  0.8765  0.2588  0.0875
 3613TIP3   OH235033   1.332   7.525   7.382  0.2611 -0.0828 -0.2927
 3613TIP3    H135034   1.357   7.589   7.449 -0.5243 -1.9884  1.9525
 3613TIP3    H235035   1.397   7.455   7.390  0.1244 -0.3664 -1.5103
 3614TIP3   OH235036   6.586   5.355   8.207 -0.4842  0.5053  0.4459
 3614TIP3    H135037   6.640   5.276   8.200 -1.9118 -0.4930  0.2600
 3614TIP3    H235038   6.496   5.323   8.197 -1.2688  1.8422  2.4853
 3615TIP3   OH235039   3.668   5.102   7.648  0.2467 -0.2488 -0.0403
 3615TIP3    H135040   3.651   5.044   7.722 -0.5881 -0.8187 -0.6608
 3615TIP3    H235041   3.657   5.047   7.570  1.8756  0.1479 -0.5878
 3616TIP3   OH235042   7.652   5.881   8.069  0.4084  0.0461 -0.4834
 3616TIP3    H135043   7.694   5.812   8.018 -0.0555 -1.2872  0.8838
 3616TIP3    H235044   7.603   5.932   8.005 -0.5962 -1.8914 -1.3393
 3617TIP3   OH235045   2.803   1.937   8.211 -0.5244 -0.3951 -0.0808
 3617TIP3    H135046   2.820   1.862   8.155  0.1510  0.4363 -1.0404
 3617TIP3    H235047   2.839   1.913   8.296 -0.4458 -1.2061 -0.3388
 3618TIP3   OH235048   3.743   2.488   7.764  0.3136 -0.1207  0.0162
 3618TIP3    H135049   3.736   2.393   7.755 -0.0640 -0.1799  0.8049
 3618TIP3    H235050   3.834   2.508   7.743  0.0523 -0.4827 -1.5076
 3619TIP3   OH235051   1.337   5.515   7.350  0.5743  0.1923  0.2475
 3619TIP3    H135052   1.431   5.506   7.339  0.3102 -0.5260 -1.8314
 3619TIP3    H235053   1.310   5.575   7.281 -0.7376 -1.3173 -0.6246
 3620TIP3   OH235054   0.912   4.820   6.933  0.2022 -0.0286  0.1943
 3620TIP3    H135055   0.922   4.839   7.027 -1.8447 -2.8885  1.1442
 3620TIP3    H235056   0.995   4.782   6.907  0.9971  1.3310  0.6568
 3621TIP3   OH235057   0.879   6.086   9.082  0.2465  0.0127  0.0626
 3621TIP3    H135058   0.876   6.128   9.168  0.4519 -0.8142  0.4866
 3621TIP3    H235059   0.912   6.154   9.023 -1.5351  1.1201  0.2892
 3622TIP3   OH235060   0.290   3.973   7.789  0.2708  0.2681  0.2536
 3622TIP3    H135061   0.337   3.897   7.757 -0.7591 -0.3225  0.1082
 3622TIP3    H235062   0.359   4.035   7.815  1.1857  0.5940 -2.6232
 3623TIP3   OH235063   0.425   4.593   9.426 -0.7590  0.8196  0.4235
 3623TIP3    H135064   0.504   4.540   9.436 -1.8901 -0.9332  0.6394
 3623TIP3    H235065   0.455   4.683   9.433  1.6015  0.3786 -2.1711
 3624TIP3   OH235066   6.174   2.038   7.754  0.1901 -0.0792  0.2548
 3624TIP3    H135067   6.152   1.974   7.822 -0.0840 -1.7961 -1.3541
 3624TIP3    H235068   6.089   2.067   7.721  0.1093 -3.0484 -2.6491
 3625TIP3   OH235069   6.698   4.456   8.130  0.0632 -0.1660 -0.2431
 3625TIP3    H135070   6.779   4.434   8.177  0.2450  0.0691 -0.4458
 3625TIP3    H235071   6.660   4.529   8.179 -0.5070 -0.8727  0.3902
 3626TIP3   OH235072   0.996   7.042   6.645  0.1328 -0.2697  0.5725
 3626TIP3    H135073   1.085   7.048   6.610 -0.3296 -0.1374 -0.6314
 3626TIP3    H235074   1.004   7.070   6.736  1.1442  0.7674  0.1824
 3627TIP3   OH235075   0.110   7.238   7.585 -0.7903 -0.3947  0.0040
 3627TIP3    H135076   0.147   7.231   7.497  0.2677  1.3680  0.2868
 3627TIP3    H235077   0.180   7.209   7.643 -1.1089 -0.4802  0.3522
 3628TIP3   OH235078   2.618   3.914   7.230 -0.1910 -0.0685 -0.6287
 3628TIP3    H135079   2.548   3.894   7.292  1.5631 -1.1129  1.1376
 3628TIP3    H235080   2.654   3.828   7.207  2.0036  0.4823  0.4136
 3629TIP3   OH235081   3.653   6.890   7.374 -0.1538 -0.0112 -0.2564
 3629TIP3    H135082   3.728   6.837   7.349 -0.5076 -0.6008 -0.0772
 3629TIP3    H235083   3.593   6.883   7.299 -0.2946 -0.0418 -0.1409
 3630TIP3   OH235084   2.386   7.028   9.190 -0.4558  0.1918 -0.1805
 3630TIP3    H135085   2.478   7.056   9.190 -0.4634  0.2686 -1.2324
 3630TIP3    H235086   2.354   7.053   9.104 -2.1099  2.1838  0.9270
 3631TIP3   OH235087   3.101   3.593   9.551 -0.7919  0.2194  0.4932
 3631TIP3    H135088   3.068   3.504   9.556  0.0781 -0.1393  0.0647
 3631TIP3    H235089   3.196   3.584   9.554 -0.4337  0.7837 -3.2370
 3632TIP3   OH235090   2.945   1.356   8.586 -0.5241  0.1903  0.5053
 3632TIP3    H135091   3.031   1.336   8.548  0.4563  2.7494  1.1382
 3632TIP3    H235092   2.884   1.349   8.513  0.4970 -0.0685 -0.3504
 3633TIP3   OH235093   3.185   1.218   7.975  0.1240  0.2308  0.0746
 3633TIP3    H135094   3.174   1.291   7.914 -0.8279  0.6094  0.6802
 3633TIP3    H235095   3.245   1.158   7.930  0.8435  1.3362 -0.4714
 3634TIP3   OH235096   4.486   5.478   7.404 -0.0829 -0.0173  0.1584
 3634TIP3    H135097   4.453   5.530   7.478 -1.8208  0.1217 -0.6541
 3634TIP3    H235098   4.499   5.391   7.440  1.1746  0.5411  1.1280
 3635TIP3   OH235099   2.067   3.746   8.738 -0.4390 -0.0946  0.0612
 3635TIP3    H135100   2.132   3.717   8.674  0.4463 -0.3478  1.0436
 3635TIP3    H235101   2.097   3.833   8.765 -2.1851  1.1373 -1.6629
 3636TIP3   OH235102   3.093   3.632   7.955 -0.0274 -0.8481  0.2538
 3636TIP3    H135103   3.175   3.622   7.906 -0.7774  1.7239 -1.7188
 3636TIP3    H235104   3.106   3.711   8.007 -1.6277  0.3456 -1.0503
 3637TIP3   OH235105   5.349   1.045   8.120 -0.2439 -0.2384  0.4649
 3637TIP3    H135106   5.396   1.094   8.053 -1.9584 -0.9657 -1.3579
 3637TIP3    H235107   5.417   0.996   8.167  1.0079  0.4173 -0.6151
 3638TIP3   OH235108   3.525   2.053   7.695 -0.6202 -0.1570 -0.2280
 3638TIP3    H135109   3.526   2.019   7.605  0.5092 -1.7081  0.3235
 3638TIP3    H235110   3.501   1.977   7.748 -0.8011  0.6296  0.8422
 3639TIP3   OH235111   5.020   3.146   7.868 -0.3139 -0.0243 -0.5690
 3639TIP3    H135112   5.006   3.061   7.911 -2.9848 -0.2387 -1.6675
 3639TIP3    H235113   5.100   3.133   7.817  1.8218 -0.3936  2.5657
 3640TIP3   OH235114   3.887   3.930   9.482  0.4247 -0.0335  0.5662
 3640TIP3    H135115   3.893   3.860   9.546 -0.6470  0.5382  1.3105
 3640TIP3    H235116   3.843   3.891   9.407  0.1662 -0.2652  0.8368
 3641TIP3   OH235117   1.856   0.684   7.403 -0.1921  0.5354 -0.3347
 3641TIP3    H135118   1.951   0.692   7.393  0.0236 -1.6142 -0.2919
 3641TIP3    H235119   1.820   0.747   7.340  1.2526 -1.0795 -2.9068
 3642TIP3   OH235120   0.156   5.173   7.107  0.0985 -0.2510 -0.1664
 3642TIP3    H135121   0.099   5.175   7.031 -1.4626  0.2861  0.9590
 3642TIP3    H235122   0.228   5.233   7.085 -1.2268  1.2625 -0.5902
 3643TIP3   OH235123   4.786   3.270   8.384  0.3759 -0.7058 -0.2910
 3643TIP3    H135124   4.738   3.286   8.465  1.9480  0.8607  0.3927
 3643TIP3    H235125   4.724   3.290   8.314 -0.3735 -0.0571  0.5445
 3644TIP3   OH235126   3.653   3.236   8.673  0.6884 -0.3535 -0.3291
 3644TIP3    H135127   3.687   3.223   8.584  1.3787 -2.2151  0.1608
 3644TIP3    H235128   3.630   3.148   8.703  0.6063  0.2202  1.3947
 3645TIP3   OH235129   7.238   7.500   8.729  0.1091 -0.4111  0.1347
 3645TIP3    H135130   7.270   7.411   8.743 -0.3075 -0.7744 -1.0648
 3645TIP3    H235131   7.251   7.515   8.635  0.6127  0.9806  0.4097
 3646TIP3   OH235132   7.325   5.233   8.542 -0.1347  0.0038 -0.1792
 3646TIP3    H135133   7.292   5.197   8.460 -0.0204  0.0466 -0.2447
 3646TIP3    H235134   7.249   5.231   8.601 -0.7713  1.7673 -0.8671
 3647TIP3   OH235135   5.606   3.178   9.353  0.2936 -0.2855  0.0913
 3647TIP3    H135136   5.664   3.125   9.408 -1.1526 -1.9577  0.0908
 3647TIP3    H235137   5.548   3.223   9.415  0.1309 -0.3837  0.0105
 3648TIP3   OH235138   1.597   5.414   8.789 -0.5788  0.4707 -0.6216
 3648TIP3    H135139   1.622   5.340   8.844 -0.2436  1.1322  0.1453
 3648TIP3    H235140   1.530   5.460   8.840 -1.6289  0.0735 -1.5943
 3649TIP3   OH235141   4.193   4.594   7.735 -0.5707  0.0492 -0.1277
 3649TIP3    H135142   4.156   4.517   7.693  0.6405 -0.1263 -0.9177
 3649TIP3    H235143   4.254   4.560   7.800 -0.5100  0.3531 -0.0203
 3650TIP3   OH235144   5.875   1.223   8.340 -0.0767 -0.0209  0.6484
 3650TIP3    H135145   5.901   1.308   8.306 -0.6975  0.0445  0.3177
 3650TIP3    H235146   5.942   1.201   8.404 -0.1347  0.9130  1.0467
 3651TIP3   OH235147   0.750   3.369   9.439  0.6562  0.2669 -0.2583
 3651TIP3    H135148   0.814   3.332   9.378  0.1638  0.4867 -0.9232
 3651TIP3    H235149   0.768   3.463   9.440 -1.3625  0.7888 -2.6151
 3652TIP3   OH235150   4.972   6.035   8.134 -0.1358  0.6557  0.3317
 3652TIP3    H135151   4.950   6.038   8.227  1.0761  2.1835  0.6100
 3652TIP3    H235152   4.933   6.116   8.099 -0.5528  0.1065 -0.4955
 3653TIP3   OH235153   7.587   0.828   8.127  0.2570 -0.4353  0.0393
 3653TIP3    H135154   7.681   0.817   8.140  0.2118 -1.4006 -0.3915
 3653TIP3    H235155   7.566   0.772   8.053 -0.2185  1.7232 -1.5703
 3654TIP3   OH235156   7.215   2.603   9.386  0.1915  0.3896 -0.0631
 3654TIP3    H135157   7.132   2.633   9.421  0.1637  0.4285 -0.1608
 3654TIP3    H235158   7.235   2.666   9.316 -0.4305 -0.4758 -1.0513
 3655TIP3   OH235159   0.009   3.085   8.594  0.3961 -0.1340 -0.0882
 3655TIP3    H135160   0.021   2.998   8.633 -1.5875 -0.3269  0.2094
 3655TIP3    H235161  -0.013   3.141   8.669  2.4675  0.8451 -0.1607
 3656TIP3   OH235162   0.398   0.414   9.196 -0.0006  0.3396 -0.2746
 3656TIP3    H135163   0.445   0.490   9.161 -0.5379 -0.0256 -1.8513
 3656TIP3    H235164   0.425   0.410   9.288  0.4314  2.1343 -0.2767
 3657TIP3   OH235165   3.345   1.304   8.986  0.3464  0.5044 -0.1984
 3657TIP3    H135166   3.388   1.330   9.068 -0.1589  1.0663 -0.1142
 3657TIP3    H235167   3.286   1.234   9.012  1.5966 -0.6818 -0.4042
 3658TIP3   OH235168   1.459   7.297   7.333 -0.4958  0.1593  0.3984
 3658TIP3    H135169   1.538   7.332   7.291  0.1269  1.5065  2.4984
 3658TIP3    H235170   1.422   7.237   7.269  1.3797  0.6751 -1.2771
 3659TIP3   OH235171   0.529   5.432   8.245  0.1652  0.3122  0.2330
 3659TIP3    H135172   0.446   5.396   8.214 -0.7806  0.0004  2.8216
 3659TIP3    H235173   0.584   5.355   8.261  1.5059  0.5590 -2.6025
 3660TIP3   OH235174   2.766   0.420   6.915  0.3399 -0.1560  0.0508
 3660TIP3    H135175   2.789   0.363   6.841 -0.8074  0.1426 -0.5516
 3660TIP3    H235176   2.787   0.508   6.884  0.5084 -0.0956  0.3418
 3661TIP3   OH235177   1.579   6.667   8.227 -1.0917 -0.1877 -0.8038
 3661TIP3    H135178   1.551   6.718   8.303 -3.7870 -1.2633 -0.9646
 3661TIP3    H235179   1.673   6.658   8.238 -0.4797  4.2837 -0.4870
 3662TIP3   OH235180   7.111   5.983   8.011  0.0269  0.9402  0.4587
 3662TIP3    H135181   7.112   5.887   8.000  1.3124  0.7154  2.2175
 3662TIP3    H235182   7.184   6.001   8.070 -0.5711  2.9687  0.6352
 3663TIP3   OH235183   2.093   6.150   8.908 -0.1564  0.9068 -0.3238
 3663TIP3    H135184   2.163   6.174   8.969 -1.1909 -2.7382  2.7353
 3663TIP3    H235185   2.112   6.059   8.884 -1.4937  1.2537 -3.0989
 3664TIP3   OH235186   5.675   4.410   8.133 -0.5228 -0.1250  0.2495
 3664TIP3    H135187   5.724   4.491   8.118 -0.3048 -0.0060  1.5577
 3664TIP3    H235188   5.742   4.342   8.134 -0.4148 -0.0155  1.5925
 3665TIP3   OH235189   7.158   4.290   8.842 -0.3384  0.7436 -0.0621
 3665TIP3    H135190   7.140   4.234   8.918 -1.0357  1.8977  0.6603
 3665TIP3    H235191   7.072   4.305   8.803  0.0613 -0.1989 -1.3799
 3666TIP3   OH235192   1.103   3.382   7.558 -0.1707  0.7691  0.2730
 3666TIP3    H135193   1.186   3.377   7.605 -0.5280  1.6054  1.0237
 3666TIP3    H235194   1.055   3.451   7.602 -1.4143  0.0604  0.0694
 3667TIP3   OH235195   0.634   7.092   7.295  0.5313 -0.1013  0.2642
 3667TIP3    H135196   0.636   7.154   7.367  1.7257  0.7471 -0.4773
 3667TIP3    H235197   0.654   7.144   7.217  0.8101 -1.2745 -0.4781
 3668TIP3   OH235198   6.048   0.247   8.711  0.8670  0.3784  0.3181
 3668TIP3    H135199   6.100   0.311   8.759  1.7514  0.2384 -0.4405
 3668TIP3    H235200   6.069   0.163   8.752  0.1748  0.4786  0.9089
 3669TIP3   OH235201   6.353   7.143   7.243 -0.6909  0.8199  0.0001
 3669TIP3    H135202   6.263   7.164   7.220 -0.1721  2.1969 -0.8935
 3669TIP3    H235203   6.367   7.054   7.209 -2.1023  0.0079  1.3926
 3670TIP3   OH235204   1.295   6.044   7.084  0.3764 -0.6346  0.2962
 3670TIP3    H135205   1.207   6.066   7.112  0.5614 -0.3113  0.6281
 3670TIP3    H235206   1.283   5.990   7.005 -0.0913  3.3344 -2.6529
 3671TIP3   OH235207   4.591   5.946   8.195 -0.0352  0.5922  0.3094
 3671TIP3    H135208   4.547   5.872   8.154  0.5987  0.5196 -0.2628
 3671TIP3    H235209   4.595   6.013   8.127  0.1767  0.8242  0.5474
 3672TIP3   OH235210   6.287   4.583   8.114 -0.0690  0.3192  0.7055
 3672TIP3    H135211   6.332   4.582   8.198  0.1782  1.1357  0.5874
 3672TIP3    H235212   6.346   4.631   8.055 -1.9250  3.2101  1.0364
 3673TIP3   OH235213   3.763   6.165   8.877 -0.0228 -0.1221  0.8265
 3673TIP3    H135214   3.692   6.224   8.849  0.1506  0.8244  2.2872
 3673TIP3    H235215   3.722   6.079   8.880 -0.2298 -0.1849 -1.5606
 3674TIP3   OH235216   0.567   5.352   8.715  0.1966 -0.4680  0.4243
 3674TIP3    H135217   0.601   5.319   8.632  1.0323 -2.2843  1.4107
 3674TIP3    H235218   0.641   5.400   8.754  0.0748 -0.3280  0.4845
 3675TIP3   OH235219   6.775   5.558   8.078 -0.7843 -0.4562  0.1820
 3675TIP3    H135220   6.791   5.517   7.993 -1.2599  0.6183 -0.4451
 3675TIP3    H235221   6.724   5.494   8.127 -1.6482 -0.5563 -0.8274
 3676TIP3   OH235222   0.923   2.709   8.652  0.7880  0.0972 -0.3145
 3676TIP3    H135223   0.912   2.750   8.738  0.0355  1.6630 -1.1126
 3676TIP3    H235224   1.015   2.720   8.631  0.8130  0.4025 -0.0490
 3677TIP3   OH235225   4.074   3.032   9.292  0.2012 -0.0188  0.1059
 3677TIP3    H135226   4.046   2.993   9.375 -0.0132  1.1655  0.6100
 3677TIP3    H235227   3.993   3.067   9.254  0.5962  1.3196  0.4307
 3678TIP3   OH235228   2.777   1.963   9.561 -0.0125  0.3527 -0.1737
 3678TIP3    H135229   2.827   1.918   9.492 -0.5123  1.5684 -1.3671
 3678TIP3    H235230   2.834   2.034   9.589  0.3807 -0.4139  1.0343
 3679TIP3   OH235231   0.354   1.179   9.325  0.4003 -0.3939  0.2255
 3679TIP3    H135232   0.302   1.258   9.340  1.3645 -0.1790  2.9458
 3679TIP3    H235233   0.392   1.192   9.238 -0.2346  1.6751  0.1977
 3680TIP3   OH235234   1.026   4.161   7.257 -0.0973  0.4981 -0.1111
 3680TIP3    H135235   0.953   4.099   7.260  0.0212  0.3713  1.7965
 3680TIP3    H235236   1.007   4.219   7.183 -0.6455 -1.2703 -1.4078
 3681TIP3   OH235237   7.126   1.586   9.526 -0.5071 -0.4531  0.1694
 3681TIP3    H135238   7.113   1.578   9.431  1.2667 -1.4953 -0.0051
 3681TIP3    H235239   7.186   1.516   9.549  0.4346  0.8255  1.8029
 3682TIP3   OH235240   2.933   2.130   9.167  0.1331  0.3514 -0.3524
 3682TIP3    H135241   2.860   2.157   9.111 -0.3211  0.2001  0.1698
 3682TIP3    H235242   3.011   2.156   9.117 -0.2747  2.0100 -0.1915
 3683TIP3   OH235243   6.688   0.412   8.443  0.0052  0.4195  0.6308
 3683TIP3    H135244   6.698   0.391   8.536  1.0843  1.3104  0.7368
 3683TIP3    H235245   6.636   0.493   8.442  1.3009  1.2744  0.5545
 3684TIP3   OH235246   4.351   1.796   8.480  0.3586 -0.3602 -0.1107
 3684TIP3    H135247   4.408   1.781   8.556  0.0990 -1.0385 -0.0406
 3684TIP3    H235248   4.396   1.753   8.408  0.1544 -0.5122 -0.1470
 3685TIP3   OH235249   0.950   0.753   9.257 -0.4577  0.1376  0.3983
 3685TIP3    H135250   1.017   0.684   9.260 -1.5268 -0.9031  1.2591
 3685TIP3    H235251   0.987   0.825   9.308  0.6537  0.2069 -0.4598
 3686TIP3   OH235252   5.763   2.720   8.642 -0.2261  0.4707  0.0725
 3686TIP3    H135253   5.838   2.762   8.600  0.7904  1.0870  2.3317
 3686TIP3    H235254   5.757   2.763   8.727 -0.7018 -2.2615  1.5204
 3687TIP3   OH235255   2.294   6.460   7.849 -0.5872  0.5927 -0.2424
 3687TIP3    H135256   2.310   6.456   7.754 -1.2937  0.9915 -0.3907
 3687TIP3    H235257   2.256   6.375   7.870  0.1676  0.2611 -0.1914
 3688TIP3   OH235258   6.122   6.802   7.684 -0.4812  1.3258  0.2762
 3688TIP3    H135259   6.166   6.841   7.608  1.0005 -1.5579 -0.5178
 3688TIP3    H235260   6.174   6.830   7.759  0.4965  1.0414 -0.2595
 3689TIP3   OH235261   2.784   6.921   8.246 -0.2314 -0.3070 -0.2912
 3689TIP3    H135262   2.780   6.992   8.182  0.1768 -1.5440 -1.7356
 3689TIP3    H235263   2.875   6.920   8.276 -0.6323  0.8999  1.1114
 3690TIP3   OH235264   5.993   3.419   7.587 -0.1343  0.0728  0.0647
 3690TIP3    H135265   5.898   3.416   7.596 -0.4254  2.4278 -1.5168
 3690TIP3    H235266   6.012   3.376   7.504  0.2272 -0.5372  0.4509
 3691TIP3   OH235267   4.905   2.444   7.587 -0.8138  0.6580 -0.0654
 3691TIP3    H135268   4.947   2.428   7.503 -1.5636  0.2793 -0.3829
 3691TIP3    H235269   4.960   2.509   7.629 -0.3492  0.7506 -0.7906
 3692TIP3   OH235270   0.985   1.261   6.689 -0.6890 -0.1041  0.4606
 3692TIP3    H135271   0.980   1.180   6.638  0.6948 -0.0196  0.1620
 3692TIP3    H235272   0.943   1.327   6.633  0.0515 -0.1907 -0.2133
 3693TIP3   OH235273   5.518   7.410   7.252 -0.4706  0.3720 -0.0351
 3693TIP3    H135274   5.430   7.380   7.275  0.4903 -1.5563  1.4663
 3693TIP3    H235275   5.559   7.430   7.336  0.4047  1.7435 -0.7438
 3694TIP3   OH235276   4.947   7.618   8.704 -0.3609 -0.2379  0.1773
 3694TIP3    H135277   4.923   7.708   8.680 -2.3946 -0.4738  1.1229
 3694TIP3    H235278   5.024   7.629   8.760  0.7966  0.7124 -1.4979
 3695TIP3   OH235279   0.823   5.355   7.225 -0.0383  0.0913  0.2493
 3695TIP3    H135280   0.859   5.273   7.191 -0.2049 -0.3964  1.2028
 3695TIP3    H235281   0.747   5.373   7.170  0.4625  0.0289 -0.4674
 3696TIP3   OH235282   1.447   6.181   9.444  0.1611 -0.0523  0.3119
 3696TIP3    H135283   1.492   6.099   9.424 -0.0746 -0.0971 -0.0537
 3696TIP3    H235284   1.516   6.247   9.445 -0.0740  0.5065 -3.6888
 3697TIP3   OH235285   3.007   7.438   9.184 -0.0606  0.3098  0.1436
 3697TIP3    H135286   2.924   7.446   9.232 -0.1179  3.1594 -0.2447
 3697TIP3    H235287   2.987   7.468   9.096  1.4863  1.7135  0.2207
 3698TIP3   OH235288   3.249   3.885   8.728 -0.0534 -0.2685 -0.2760
 3698TIP3    H135289   3.192   3.812   8.703  2.1910 -2.1654 -0.2141
 3698TIP3    H235290   3.303   3.901   8.650  1.8299 -1.0922  0.7916
 3699TIP3   OH235291   5.098   6.031   7.815 -0.4642 -0.4023 -0.2935
 3699TIP3    H135292   5.020   5.979   7.795 -1.2153 -0.3796  2.2192
 3699TIP3    H235293   5.139   5.986   7.888  0.0962  1.2877  0.4889
 3700TIP3   OH235294   0.514   4.019   9.110  0.1554 -0.6067  0.3029
 3700TIP3    H135295   0.496   4.087   9.174  1.0024  1.1161 -1.2241
 3700TIP3    H235296   0.453   4.037   9.039  1.9171  0.0092 -1.1191
 3701TIP3   OH235297   7.180   5.867   7.751  0.0630 -0.1104 -0.5046
 3701TIP3    H135298   7.252   5.930   7.743 -0.3991  0.3579 -1.0889
 3701TIP3    H235299   7.223   5.782   7.758  0.6936  0.2387  0.0216
 3702TIP3   OH235300   6.207   7.265   6.943  0.5780  0.3030  0.6112
 3702TIP3    H135301   6.159   7.238   6.864  0.1786  1.0016  0.6036
 3702TIP3    H235302   6.290   7.299   6.911  0.2099  1.0664  0.4320
 3703TIP3   OH235303   6.254   1.940   8.926  0.3141  0.4170 -0.4050
 3703TIP3    H135304   6.331   1.956   8.980 -0.0614 -0.5167  0.4110
 3703TIP3    H235305   6.236   2.025   8.885  0.3405  1.2494  1.2605
 3704TIP3   OH235306   0.207   0.262   8.140  0.0725  0.3815  0.0383
 3704TIP3    H135307   0.174   0.208   8.068  1.4731  1.9704 -1.9240
 3704TIP3    H235308   0.128   0.300   8.179 -0.7132 -0.1501 -0.9774
 3705TIP3   OH235309   0.969   4.555   8.413  0.0821 -0.2003  0.5050
 3705TIP3    H135310   1.041   4.547   8.476 -1.2309  0.8851  2.2320
 3705TIP3    H235311   0.975   4.646   8.383 -0.0336 -0.3735 -0.0505
 3706TIP3   OH235312   0.003   3.498   8.869 -0.3957 -0.2826 -0.0923
 3706TIP3    H135313  -0.088   3.509   8.897 -0.6982  1.8886 -1.7052
 3706TIP3    H235314   0.054   3.543   8.937 -0.8659  1.9059 -1.1129
 3707TIP3   OH235315   4.845   6.280   9.273  0.1260  0.0175  0.1686
 3707TIP3    H135316   4.868   6.227   9.196 -1.5342 -0.0233 -0.3325
 3707TIP3    H235317   4.821   6.216   9.340 -0.2909  0.0976  0.0962
 3708TIP3   OH235318   1.911   0.557   7.841 -0.4724 -0.5155  0.1643
 3708TIP3    H135319   1.855   0.605   7.779  1.5918 -0.6442 -1.9505
 3708TIP3    H235320   1.887   0.465   7.829 -1.1014 -0.4306  0.6930
 3709TIP3   OH235321   0.224   7.074   8.301  0.0870  0.1801 -0.2185
 3709TIP3    H135322   0.227   7.163   8.337 -0.8039 -0.5090  1.7168
 3709TIP3    H235323   0.142   7.072   8.250 -0.7763  0.0201  1.1252
 3710TIP3   OH235324   6.611   3.294   9.278 -0.9985  0.1185 -0.4812
 3710TIP3    H135325   6.688   3.253   9.240 -0.6537  1.1756 -0.9630
 3710TIP3    H235326   6.620   3.280   9.372 -0.3124  0.0791 -0.5506
 3711TIP3   OH235327   2.535   5.470   6.853  0.0408  0.0848  0.4080
 3711TIP3    H135328   2.471   5.512   6.796 -0.5465 -1.0303  0.2264
 3711TIP3    H235329   2.617   5.472   6.804  0.1080  1.2670  0.5292
 3712TIP3   OH235330   1.377   1.769   8.290 -0.4674  0.1257  0.2086
 3712TIP3    H135331   1.368   1.769   8.194 -1.7564  0.9688  0.3015
 3712TIP3    H235332   1.287   1.776   8.322 -0.3061 -2.6657  1.5551
 3713TIP3   OH235333   0.322   3.729   9.235  0.0953  0.4029  0.2096
 3713TIP3    H135334   0.326   3.800   9.299  1.8969  0.6500 -0.1470
 3713TIP3    H235335   0.413   3.705   9.219 -0.4501 -2.8304  1.2154
 3714TIP3   OH235336   2.299   4.367   8.429 -0.0934 -0.3004  0.1900
 3714TIP3    H135337   2.338   4.284   8.456 -1.6286 -2.1616 -2.7681
 3714TIP3    H235338   2.217   4.372   8.478  1.0431  0.7167  2.0894
 3715TIP3   OH235339   4.511   3.427   7.436  0.2805 -0.5367  0.1089
 3715TIP3    H135340   4.439   3.490   7.444  1.3088  0.8293 -0.8743
 3715TIP3    H235341   4.538   3.434   7.344  1.1413 -1.6241  0.2605
 3716TIP3   OH235342   6.484   3.015   7.197 -0.2089 -0.1001  0.4078
 3716TIP3    H135343   6.472   2.949   7.130 -0.6602 -0.0729  0.4611
 3716TIP3    H235344   6.517   3.092   7.150 -1.1226  0.1227  0.1171
 3717TIP3   OH235345   0.211   4.300   7.215 -0.2122  0.4960 -0.0630
 3717TIP3    H135346   0.241   4.288   7.305  0.6202 -1.1206 -0.5283
 3717TIP3    H235347   0.141   4.236   7.204  1.0635 -0.7718 -1.1548
 3718TIP3   OH235348   6.486   2.318   9.016 -0.1011 -0.3479 -0.1143
 3718TIP3    H135349   6.479   2.265   8.937  0.6748 -1.1357  0.3271
 3718TIP3    H235350   6.529   2.398   8.988  0.8818 -0.9451 -0.3576
 3719TIP3   OH235351   4.784   4.292   9.619 -1.1446 -0.0277 -0.7334
 3719TIP3    H135352   4.821   4.326   9.701 -1.4352 -1.9353  0.2557
 3719TIP3    H235353   4.859   4.254   9.573 -1.2330 -0.3502 -0.6110
 3720TIP3   OH235354   4.804   6.177   8.660 -0.3036  0.2968 -0.1514
 3720TIP3    H135355   4.824   6.088   8.687 -0.9649 -0.6672 -2.6222
 3720TIP3    H235356   4.856   6.232   8.719  0.8528 -1.7093  0.8106
 3721TIP3   OH235357   3.879   2.785   9.263  0.1154 -0.4544  0.3447
 3721TIP3    H135358   3.897   2.708   9.209  1.4029  0.2848 -0.3202
 3721TIP3    H235359   3.787   2.805   9.246  0.2593 -0.7622 -0.9120
 3722TIP3   OH235360   1.410   3.223   9.072  1.0583 -0.1297 -0.2432
 3722TIP3    H135361   1.479   3.208   9.136 -0.1507 -1.2004  0.8785
 3722TIP3    H235362   1.345   3.275   9.120 -0.5951 -2.2609 -0.0064
 3723TIP3   OH235363   1.250   7.382   7.677 -0.0523  0.0183 -0.0984
 3723TIP3    H135364   1.208   7.468   7.673  1.2485  0.6774 -0.2524
 3723TIP3    H235365   1.297   7.382   7.761 -0.7621 -0.9117  0.3211
 3724TIP3   OH235366   6.697   0.594   9.234 -0.5431  0.2061  0.2267
 3724TIP3    H135367   6.702   0.607   9.139 -0.6640  0.1660  0.2144
 3724TIP3    H235368   6.659   0.506   9.244  0.4265 -0.2136  0.3064
 3725TIP3   OH235369   2.198   4.994   7.799 -0.0310  0.1203 -0.2804
 3725TIP3    H135370   2.176   5.035   7.715  3.4063  1.0598 -0.9090
 3725TIP3    H235371   2.169   5.056   7.865  0.5313  1.1630 -0.9879
 3726TIP3   OH235372   0.309   2.864   7.364 -0.0922  0.3624  0.2034
 3726TIP3    H135373   0.396   2.903   7.360  0.0669  0.0576  0.5960
 3726TIP3    H235374   0.300   2.815   7.283  0.7599 -0.9526  0.8769
 3727TIP3   OH235375   2.878   4.470   8.549 -0.1498  0.5521 -0.1966
 3727TIP3    H135376   2.870   4.526   8.626  0.4479 -0.7444  0.8412
 3727TIP3    H235377   2.872   4.530   8.475 -2.2409  1.6784  0.7934
 3728TIP3   OH235378   2.071   0.686   7.172  0.1803  0.0947 -0.3504
 3728TIP3    H135379   2.128   0.712   7.244  1.0201 -1.2672 -0.4864
 3728TIP3    H235380   2.129   0.642   7.110 -1.1546 -2.5386  0.1079
 3729TIP3   OH235381   2.442   4.526   6.897 -0.2261  0.0273  0.5295
 3729TIP3    H135382   2.468   4.537   6.805 -1.5092 -0.8362  0.0325
 3729TIP3    H235383   2.516   4.559   6.947  1.8883 -2.3377 -0.7938
 3730TIP3   OH235384   5.310   3.156   9.005 -0.3710 -0.3182 -0.2893
 3730TIP3    H135385   5.260   3.079   8.976 -0.1196  0.3665 -2.7393
 3730TIP3    H235386   5.256   3.231   8.981 -0.4579  0.3578  1.7693
 3731TIP3   OH235387   2.000   4.753   7.184 -0.5630 -0.2022  0.3098
 3731TIP3    H135388   2.037   4.799   7.259 -1.2248  0.8387  0.0185
 3731TIP3    H235389   2.067   4.759   7.117  0.3411 -1.7812  1.0233
 3732TIP3   OH235390   2.635   7.153   9.133 -0.2323  0.3278 -0.0755
 3732TIP3    H135391   2.626   7.245   9.156 -0.2093  0.2543  0.2328
 3732TIP3    H235392   2.726   7.144   9.104 -0.0474  0.2745  0.5006
 3733TIP3   OH235393   1.361   6.711   7.753  0.3775  0.5015  0.1079
 3733TIP3    H135394   1.446   6.690   7.792  0.6387 -0.2168 -0.8365
 3733TIP3    H235395   1.357   6.807   7.755  0.9051  0.5171  0.7787
 3734TIP3   OH235396   0.716   0.823   6.989 -0.3795 -0.4587 -0.6250
 3734TIP3    H135397   0.623   0.844   6.999 -0.2264 -0.3319  0.6949
 3734TIP3    H235398   0.721   0.728   6.997 -0.4245 -0.4871 -0.9378
 3735TIP3   OH235399   5.310   4.358   8.622  0.2637  0.4126 -0.0168
 3735TIP3    H135400   5.235   4.336   8.567 -0.1192 -0.2947  0.7590
 3735TIP3    H235401   5.376   4.392   8.561 -1.1022  2.2415 -0.5719
 3736TIP3   OH235402   2.451   0.531   7.093  0.3022  0.1987 -0.5185
 3736TIP3    H135403   2.521   0.472   7.064  2.4166  2.4132 -0.3255
 3736TIP3    H235404   2.492   0.618   7.092 -2.1848  1.4871  0.6277
 3737TIP3   OH235405   1.868   5.956   8.728 -0.1813  0.3278  0.2094
 3737TIP3    H135406   1.955   5.927   8.756  0.3393  0.7020 -0.9678
 3737TIP3    H235407   1.809   5.888   8.761  0.6338 -0.2756  0.4680
 3738TIP3   OH235408   0.995   2.691   7.561 -0.6714 -0.4704 -0.0952
 3738TIP3    H135409   1.059   2.645   7.615  0.3932  1.3342  0.2569
 3738TIP3    H235410   1.023   2.783   7.563 -1.8241 -0.0161 -1.9949
 3739TIP3   OH235411   2.771   4.389   9.471  0.3722  0.7164 -0.5998
 3739TIP3    H135412   2.803   4.467   9.426  2.3572  0.8006  0.8407
 3739TIP3    H235413   2.848   4.353   9.514 -0.2696 -2.5141 -1.8252
 3740TIP3   OH235414   4.840   0.224   8.093  0.3155  0.6606 -0.3710
 3740TIP3    H135415   4.931   0.209   8.068  0.5883  1.0970  0.3327
 3740TIP3    H235416   4.796   0.247   8.012  1.2781  2.5714 -0.3952
 3741TIP3   OH235417   0.821   0.316   9.184 -0.4606 -0.2105 -0.0174
 3741TIP3    H135418   0.801   0.233   9.226  0.1244 -0.3813 -0.0652
 3741TIP3    H235419   0.894   0.352   9.235 -1.0331  0.5114  0.3103
 3742TIP3   OH235420   6.039   0.749   8.791  0.0697 -0.4876 -0.3768
 3742TIP3    H135421   5.972   0.814   8.812  0.4967 -0.5921  1.4919
 3742TIP3    H235422   6.014   0.671   8.841  1.5191 -0.5561  0.3065
 3743TIP3   OH235423   7.487   1.369   7.676  0.1263 -0.6988 -0.3416
 3743TIP3    H135424   7.465   1.278   7.658  1.9797 -1.0437 -1.0624
 3743TIP3    H235425   7.444   1.418   7.606 -2.8890 -0.6704  1.3580
 3744TIP3   OH235426   2.724   1.061   9.168 -0.3206  0.0406 -0.2379
 3744TIP3    H135427   2.681   1.123   9.110  1.6535  1.6966 -0.0335
 3744TIP3    H235428   2.679   1.071   9.252 -0.6489  0.4691 -0.4638
 3745TIP3   OH235429   5.073   6.758   8.717 -0.4229 -0.4713 -0.3789
 3745TIP3    H135430   4.989   6.746   8.759  0.0145  2.2745  1.5107
 3745TIP3    H235431   5.125   6.808   8.780  2.0686 -0.6573 -2.1349
 3746TIP3   OH235432   3.751   7.027   8.332 -0.3052  0.0624  0.2879
 3746TIP3    H135433   3.659   7.008   8.315 -0.2340  0.8015 -1.1347
 3746TIP3    H235434   3.749   7.100   8.394 -0.6536 -0.5486  1.0062
 3747TIP3   OH235435   7.453   2.153   8.910 -0.1211  0.5304 -0.5763
 3747TIP3    H135436   7.475   2.224   8.850 -0.2150  0.1184 -1.1096
 3747TIP3    H235437   7.365   2.126   8.884 -0.1828  0.3784 -0.2187
 3748TIP3   OH235438   0.695   4.644   7.461 -0.2233  0.0442  0.7011
 3748TIP3    H135439   0.743   4.609   7.385 -0.8251  0.7150 -0.0018
 3748TIP3    H235440   0.691   4.570   7.522  0.0804 -0.5792 -0.0086
 3749TIP3   OH235441   4.635   3.812   6.982  0.1532  0.6988  0.2693
 3749TIP3    H135442   4.555   3.843   6.940  0.7861 -1.1128 -2.5537
 3749TIP3    H235443   4.684   3.892   7.001 -0.9313  1.7116 -0.9529
 3750TIP3   OH235444   0.649   1.724   8.062 -0.4132  0.2000 -0.0468
 3750TIP3    H135445   0.680   1.789   8.126 -0.2905  1.3394 -1.2190
 3750TIP3    H235446   0.714   1.726   7.992 -0.4330 -1.1843 -0.1402
 3751TIP3   OH235447   2.284   5.836   7.554 -0.3100 -0.1881 -0.2142
 3751TIP3    H135448   2.352   5.815   7.490  0.8618  0.9538  0.6073
 3751TIP3    H235449   2.294   5.930   7.570 -1.8867 -0.0647  0.1663
 3752TIP3   OH235450   2.117   0.736   7.858 -0.1460  0.2629  0.1334
 3752TIP3    H135451   2.032   0.694   7.868 -1.1223  2.2676  0.7987
 3752TIP3    H235452   2.135   0.730   7.764  0.3616 -2.5903  0.3165
 3753TIP3   OH235453   7.376   4.506   8.213 -0.3474 -0.4685  0.3148
 3753TIP3    H135454   7.375   4.426   8.161 -4.9600 -1.7093  1.8299
 3753TIP3    H235455   7.388   4.476   8.303  1.2589  0.9827  0.6304
 3754TIP3   OH235456   7.019   0.056   9.019 -0.3238  0.4359 -0.1979
 3754TIP3    H135457   7.011  -0.025   8.968  0.6095  0.1519  0.0924
 3754TIP3    H235458   7.007   0.027   9.110  1.5011  0.3508  0.0552
 3755TIP3   OH235459   6.629   7.043   8.207 -0.3188  0.0299  0.5932
 3755TIP3    H135460   6.692   7.114   8.196  1.1812 -1.3399 -0.1000
 3755TIP3    H235461   6.572   7.071   8.279  0.0236  2.0406  0.1218
 3756TIP3   OH235462   4.255   6.124   7.274 -0.1127  0.0243 -0.3790
 3756TIP3    H135463   4.268   6.124   7.179 -1.0991  3.3552 -0.6340
 3756TIP3    H235464   4.328   6.176   7.308 -0.7122  0.3144  0.4934
 3757TIP3   OH235465   2.265   7.291   8.898 -0.1536  0.6125  0.0963
 3757TIP3    H135466   2.197   7.330   8.843 -0.5510  0.1883  0.2836
 3757TIP3    H235467   2.219   7.267   8.979 -0.1117 -1.0324 -0.3397
 3758TIP3   OH235468   3.015   1.984   9.411  0.0793  0.0859 -0.7610
 3758TIP3    H135469   2.997   1.982   9.317 -0.6906 -0.5186 -0.6117
 3758TIP3    H235470   3.008   2.076   9.435 -1.2280  0.0764 -1.0326
 3759TIP3   OH235471   5.464   6.090   9.094  0.0201  0.0012  0.2928
 3759TIP3    H135472   5.514   6.172   9.088  0.9463 -0.6289 -1.4876
 3759TIP3    H235473   5.380   6.116   9.130 -0.5004  2.1591 -2.1208
 3760TIP3   OH235474   0.600   0.027   8.614  0.4697 -0.0033 -0.8481
 3760TIP3    H135475   0.561  -0.054   8.583 -0.7617 -0.5638  1.9543
 3760TIP3    H235476   0.690   0.003   8.638  0.9030  0.0771 -2.2781
 3761TIP3   OH235477   4.414   6.351   7.354  0.7050  0.3560  0.2302
 3761TIP3    H135478   4.385   6.375   7.266 -0.1737 -1.3213  0.0177
 3761TIP3    H235479   4.482   6.285   7.340  1.2248  0.7641  0.7977
 3762TIP3   OH235480   3.331   4.687   7.089  0.0863  0.2178  0.3680
 3762TIP3    H135481   3.255   4.746   7.088 -0.4581 -0.3408 -2.7507
 3762TIP3    H235482   3.298   4.607   7.129 -1.3908 -0.3642 -1.8041
 3763TIP3   OH235483   2.945   1.915   8.477  0.4060  0.3822  0.4108
 3763TIP3    H135484   3.022   1.971   8.471  1.9172 -1.6199  0.0024
 3763TIP3    H235485   2.894   1.951   8.550  1.5546  1.9323  0.4877
 3764TIP3   OH235486   7.477   2.459   9.045  0.0849  0.2861 -0.5905
 3764TIP3    H135487   7.520   2.464   8.960 -2.2190  1.3350 -1.7829
 3764TIP3    H235488   7.397   2.408   9.029 -0.5170  0.7109  0.8723
 3765TIP3   OH235489   2.953   2.042   7.704 -0.1343  0.0711  0.3495
 3765TIP3    H135490   2.914   2.128   7.719 -0.9703 -0.3296  0.5581
 3765TIP3    H235491   3.047   2.057   7.709 -0.2884  0.7255  1.8043
 3766TIP3   OH235492   5.082   5.352   8.054 -0.5582 -0.0950 -0.2888
 3766TIP3    H135493   5.002   5.330   8.005 -1.0421  1.1921 -0.1003
 3766TIP3    H235494   5.062   5.435   8.097  1.3206  0.9441 -1.2831
 3767TIP3   OH235495   6.522   0.068   7.678 -0.0957  0.1186  0.0298
 3767TIP3    H135496   6.572   0.149   7.663  1.9245 -0.9337  0.6427
 3767TIP3    H235497   6.506   0.033   7.590 -3.0055  2.2118 -0.4283
 3768TIP3   OH235498   1.695   4.183   7.821  0.2572 -0.0075  0.0871
 3768TIP3    H135499   1.679   4.092   7.798  0.3043  0.0275 -0.0798
 3768TIP3    H235500   1.612   4.213   7.859 -1.1584  1.0436 -3.4545
 3769TIP3   OH235501   2.817   5.539   7.003  0.1585  0.1399 -0.2819
 3769TIP3    H135502   2.791   5.624   6.967  1.9662  1.3506  1.0794
 3769TIP3    H235503   2.844   5.488   6.927 -0.0111  1.1553 -1.0468
 3770TIP3   OH235504   1.556   5.812   6.895  0.1745 -0.2171 -0.5085
 3770TIP3    H135505   1.570   5.873   6.823 -0.3934  2.9753  1.8654
 3770TIP3    H235506   1.465   5.827   6.922  0.3894 -1.2646  0.9066
 3771TIP3   OH235507   6.539   6.252   9.379  0.5128  0.1480  0.8186
 3771TIP3    H135508   6.572   6.224   9.465 -0.5390 -1.7725  0.6485
 3771TIP3    H235509   6.444   6.250   9.388  0.3941  0.2647 -0.2749
 3772TIP3   OH235510   5.298   5.747   8.258  0.1643  0.0785 -0.1901
 3772TIP3    H135511   5.362   5.787   8.316  0.2464 -0.3194 -0.0041
 3772TIP3    H235512   5.218   5.742   8.309  0.7102 -1.9422  0.5457
 3773TIP3   OH235513   2.481   6.956   7.269  0.0557 -0.3038  0.4404
 3773TIP3    H135514   2.576   6.968   7.258  0.3126 -0.0841  2.4654
 3773TIP3    H235515   2.450   7.042   7.300 -0.6125 -0.6757  0.8164
 3774TIP3   OH235516   5.267   3.460   8.731 -0.0626  0.3189  0.7987
 3774TIP3    H135517   5.192   3.485   8.678 -0.6771 -2.4907  0.1937
 3774TIP3    H235518   5.295   3.376   8.695  3.3357  1.1784  1.0765
 3775TIP3   OH235519   2.725   5.412   7.300 -0.7101 -0.2046  0.0503
 3775TIP3    H135520   2.730   5.348   7.372 -0.2364  0.1006  0.2917
 3775TIP3    H235521   2.634   5.443   7.303 -1.3036 -1.7261 -0.8295
 3776TIP3   OH235522   2.350   7.546   8.855 -0.1509 -0.4626  0.3286
 3776TIP3    H135523   2.364   7.469   8.910  1.5125 -0.4420 -0.0027
 3776TIP3    H235524   2.336   7.618   8.917 -1.2369 -0.9256  0.6459
 3777TIP3   OH235525   6.367   2.043   9.529 -0.1981  0.4974 -0.4771
 3777TIP3    H135526   6.437   2.079   9.475 -1.1046 -0.1932 -2.2091
 3777TIP3    H235527   6.380   1.948   9.525 -1.0381  0.3749 -0.5675
 3778TIP3   OH235528   4.213   6.251   8.600  0.2014 -0.5540  0.2719
 3778TIP3    H135529   4.239   6.164   8.569  2.8821  0.5863 -0.9426
 3778TIP3    H235530   4.198   6.301   8.519  0.8259  0.6920  0.9044
 3779TIP3   OH235531   2.519   1.337   9.374 -0.1871  0.4223 -0.0464
 3779TIP3    H135532   2.454   1.295   9.430 -1.0718 -0.3478 -1.5773
 3779TIP3    H235533   2.498   1.430   9.377 -1.9967  0.0849 -1.2556
 3780TIP3   OH235534   2.606   0.752   7.138  0.8768 -0.0019 -0.7138
 3780TIP3    H135535   2.589   0.813   7.209  1.2401 -1.1775  0.4282
 3780TIP3    H235536   2.673   0.794   7.085  0.8826  0.7268 -0.1387
 3781TIP3   OH235537   5.071   1.255   9.527 -0.0787  0.1817  0.1042
 3781TIP3    H135538   5.030   1.323   9.473 -0.5158 -0.6489 -0.6450
 3781TIP3    H235539   4.998   1.214   9.573  0.1586  0.0883  0.3971
 3782TIP3   OH235540   0.167   7.670   8.048 -0.4905  0.3127 -0.0414
 3782TIP3    H135541   0.087   7.640   8.006  0.1712 -0.6009 -0.6859
 3782TIP3    H235542   0.232   7.673   7.977  0.3660 -0.2067  0.6988
 3783TIP3   OH235543   1.660   5.057   7.136  0.2757 -0.4196  0.5329
 3783TIP3    H135544   1.689   4.967   7.151  2.0753 -0.1998 -1.1790
 3783TIP3    H235545   1.740   5.109   7.143 -0.3946  0.7862 -0.3825
 3784TIP3   OH235546   0.850   2.053   9.338  0.2259  0.6546 -0.3671
 3784TIP3    H135547   0.853   2.070   9.244  2.3412  3.1704  0.0347
 3784TIP3    H235548   0.859   2.139   9.378 -0.8391 -0.3357  2.1658
 3785TIP3   OH235549   0.891   5.523   6.932 -1.2427 -0.4846 -0.3647
 3785TIP3    H135550   0.837   5.447   6.909 -0.5758 -0.3704 -2.5724
 3785TIP3    H235551   0.959   5.488   6.989 -1.9432 -1.1859  0.0676
 3786TIP3   OH235552   1.731   0.800   8.898  0.1108  0.2639 -0.0126
 3786TIP3    H135553   1.659   0.854   8.929 -0.6884 -0.1689 -1.0512
 3786TIP3    H235554   1.760   0.843   8.817  0.2094 -0.2280 -0.2434
 3787TIP3   OH235555   6.980   2.301   7.633 -0.0421 -0.0597 -0.8134
 3787TIP3    H135556   6.903   2.320   7.579 -1.3314  0.1568  1.0246
 3787TIP3    H235557   7.001   2.384   7.675  0.8616 -0.2590 -0.8349
 3788TIP3   OH235558   1.022   4.170   7.929 -0.3418  0.5601 -0.6821
 3788TIP3    H135559   1.061   4.240   7.876 -1.2707 -0.3720 -2.7041
 3788TIP3    H235560   1.005   4.099   7.866  0.9424 -1.6903  1.3354
 3789TIP3   OH235561   6.762   5.577   7.661  0.4207 -0.0345 -0.9063
 3789TIP3    H135562   6.712   5.534   7.592  0.1524  0.0082 -0.7383
 3789TIP3    H235563   6.820   5.508   7.694 -0.3533 -0.4085 -0.3063
 3790TIP3   OH235564   6.561   6.239   6.411  0.1105 -0.0501 -0.2980
 3790TIP3    H135565   6.574   6.201   6.324  1.1767  0.8324 -0.5433
 3790TIP3    H235566   6.645   6.278   6.433 -0.2344 -0.0187  1.0223
 3791TIP3   OH235567   0.193   6.770   7.402  0.4147  0.3501  0.1687
 3791TIP3    H135568   0.158   6.844   7.451 -1.4149 -0.1154 -0.3521
 3791TIP3    H235569   0.196   6.698   7.465 -0.4115  0.1735  0.0192
 3792TIP3   OH235570   4.669   0.438   8.619 -0.1461  0.3546  0.0038
 3792TIP3    H135571   4.717   0.417   8.539 -0.2418  0.9950 -0.2217
 3792TIP3    H235572   4.701   0.524   8.645  1.4842 -0.6985  1.8546
 3793TIP3   OH235573   1.605   5.795   8.618  0.1092 -0.7186  0.0431
 3793TIP3    H135574   1.511   5.780   8.619  0.1598 -1.6188 -2.7005
 3793TIP3    H235575   1.626   5.820   8.708 -2.7445 -0.3728  0.6951
 3794TIP3   OH235576   3.957   2.929   9.525 -0.7454  0.5323  0.0848
 3794TIP3    H135577   3.882   2.921   9.583  0.2658 -1.7722  1.2460
 3794TIP3    H235578   3.948   2.856   9.463  1.1405 -0.7025  1.1292
 3795TIP3   OH235579   6.361   1.552   8.714  0.1083 -0.1577  0.0157
 3795TIP3    H135580   6.276   1.534   8.674  0.1426  1.2315 -0.7439
 3795TIP3    H235581   6.368   1.647   8.714  2.6511 -0.2369 -2.1675
 3796TIP3   OH235582   3.723   3.261   8.407  0.0060 -0.2663  0.2719
 3796TIP3    H135583   3.733   3.355   8.423 -2.5478  0.1622 -0.2520
 3796TIP3    H235584   3.660   3.255   8.335 -1.1971 -2.3831  1.3910
 3797TIP3   OH235585   5.800   0.245   7.995  0.6322  0.9850 -0.6442
 3797TIP3    H135586   5.826   0.313   7.933 -1.5270  1.4944 -1.1088
 3797TIP3    H235587   5.757   0.293   8.066  1.9279  0.3104  0.6520
 3798TIP3   OH235588   3.439   3.276   8.862 -0.0693 -0.1371 -0.2635
 3798TIP3    H135589   3.502   3.266   8.790 -0.0408 -0.9357 -0.1362
 3798TIP3    H235590   3.403   3.188   8.874 -0.2418  0.0395  0.5505
 3799TIP3   OH235591   5.417   1.130   9.301  0.7780 -0.0524 -0.4664
 3799TIP3    H135592   5.498   1.081   9.286  1.6101  1.0818  0.1559
 3799TIP3    H235593   5.446   1.213   9.339 -0.7498  0.0288  0.6000
 3800TIP3   OH235594   0.121   3.322   6.921  0.4985 -0.4993  0.7227
 3800TIP3    H135595   0.131   3.418   6.921 -0.7786 -0.2742  2.9877
 3800TIP3    H235596   0.204   3.290   6.956  0.5653 -0.1123  0.9365
 3801TIP3   OH235597   2.728   2.797   7.827 -0.1702  0.2085  0.0498
 3801TIP3    H135598   2.790   2.826   7.894 -0.9192  1.2647  0.3176
 3801TIP3    H235599   2.771   2.818   7.744  0.0800  0.3890  0.2231
 3802TIP3   OH235600   5.937   6.361   7.482  0.3690 -0.0079 -0.3335
 3802TIP3    H135601   5.979   6.399   7.560  0.7430  1.6563 -1.3005
 3802TIP3    H235602   5.921   6.270   7.506  2.1100 -0.0084  1.0445
 3803TIP3   OH235603   7.197   4.991   8.730 -0.9797 -0.1804 -0.0074
 3803TIP3    H135604   7.276   4.950   8.695 -0.8064  0.7092 -0.6938
 3803TIP3    H235605   7.157   5.035   8.655 -2.2087 -0.7176  0.2920
 3804TIP3   OH235606   7.569   5.365   7.596 -0.0375  0.0412 -0.5148
 3804TIP3    H135607   7.491   5.358   7.541 -0.6266  1.2157  0.1308
 3804TIP3    H235608   7.636   5.401   7.538 -0.1141 -0.5006 -0.9432
 3805TIP3   OH235609   3.388   7.182   8.260 -0.5221  0.4426 -0.1649
 3805TIP3    H135610   3.359   7.259   8.310 -0.3192  1.1395 -1.0913
 3805TIP3    H235611   3.454   7.141   8.315 -2.1908 -0.3454  1.3454
 3806TIP3   OH235612   7.216   2.818   8.068 -0.1582 -0.0314  0.2200
 3806TIP3    H135613   7.292   2.826   8.011  0.3923  2.6843  1.1739
 3806TIP3    H235614   7.150   2.775   8.015  1.4190 -0.7333 -1.2658
 3807TIP3   OH235615   0.251   3.229   8.851 -0.3078  0.5054 -0.5054
 3807TIP3    H135616   0.226   3.322   8.854  1.6350  1.0449  0.1785
 3807TIP3    H235617   0.346   3.230   8.858 -0.2099 -1.5344 -1.1456
 3808TIP3   OH235618   6.083   1.585   6.581 -0.0041 -0.0470  0.0002
 3808TIP3    H135619   5.988   1.576   6.573 -0.0135 -0.3940  0.4399
 3808TIP3    H235620   6.118   1.546   6.501 -0.1656 -1.5000  0.6016
 3809TIP3   OH235621   4.584   5.421   8.710 -0.1218  0.1901 -0.9065
 3809TIP3    H135622   4.546   5.509   8.712  1.4586  0.9018  0.2669
 3809TIP3    H235623   4.584   5.394   8.802 -1.1333 -1.3192 -1.3182
 3810TIP3   OH235624   0.899   3.084   8.712 -0.0194 -0.7500 -0.7103
 3810TIP3    H135625   0.946   3.140   8.774 -1.4518 -1.0565  0.7043
 3810TIP3    H235626   0.890   3.000   8.757 -1.1181 -0.9707 -1.3038
 3811TIP3   OH235627   4.427   3.884   8.974  0.0147 -0.0134  0.3288
 3811TIP3    H135628   4.433   3.929   9.058 -1.0370  0.6135  0.0985
 3811TIP3    H235629   4.459   3.949   8.910 -1.3640  0.3864  0.0108
 3812TIP3   OH235630   6.934   3.647   7.705 -0.2274  0.0924 -0.1780
 3812TIP3    H135631   6.985   3.618   7.630 -0.0381 -0.1314  0.0336
 3812TIP3    H235632   6.909   3.566   7.750 -1.4192  0.1525 -0.6905
 3813TIP3   OH235633   0.989   6.762   7.748  0.2716 -0.4012 -0.1869
 3813TIP3    H135634   1.071   6.740   7.791  0.1726  0.2058  0.3403
 3813TIP3    H235635   0.935   6.798   7.819 -0.8799 -1.8566 -0.2657
 3814TIP3   OH235636   2.375   6.470   8.640  0.3234 -0.0596 -0.3395
 3814TIP3    H135637   2.286   6.457   8.607  0.5162 -0.1987 -0.8181
 3814TIP3    H235638   2.364   6.491   8.733 -0.3661  2.2182 -0.8735
 3815TIP3   OH235639   4.740   0.673   8.761  0.2699  0.2069  0.1297
 3815TIP3    H135640   4.658   0.680   8.810 -0.7469  1.1911 -1.6214
 3815TIP3    H235641   4.792   0.748   8.790  0.8857 -0.7715  1.7199
 3816TIP3   OH235642   5.286   4.051   8.377  0.4126 -0.1168  0.3322
 3816TIP3    H135643   5.304   4.066   8.470 -0.1063  3.0597  0.0396
 3816TIP3    H235644   5.206   3.998   8.377 -1.4249  2.4174  1.8301
 3817TIP3   OH235645   6.100   1.173   8.478 -0.2542 -0.0588 -0.1401
 3817TIP3    H135646   6.139   1.143   8.561  1.5740  0.1587 -0.8790
 3817TIP3    H235647   6.160   1.140   8.411 -1.7363 -0.2630 -1.3933
 3818TIP3   OH235648   7.632   3.870   7.341  0.3314  0.3634  0.0056
 3818TIP3    H135649   7.613   3.788   7.385  0.9338  0.8395  1.2152
 3818TIP3    H235650   7.604   3.938   7.403 -2.3128  1.1694 -1.8701
 3819TIP3   OH235651   5.060   5.030   8.183  0.8173  0.5761 -0.1705
 3819TIP3    H135652   5.068   5.099   8.250  1.4136  0.3217  0.0290
 3819TIP3    H235653   5.144   4.984   8.186  0.7353  0.3677 -0.8891
 3820TIP3   OH235654   2.646   7.249   7.831 -0.1103 -0.7108  0.3935
 3820TIP3    H135655   2.696   7.313   7.880 -0.6493 -1.6589  2.2570
 3820TIP3    H235656   2.559   7.287   7.822  0.3573  0.1062 -1.2082
 3821TIP3   OH235657   5.345   6.371   9.322  0.2552 -0.0438  0.0859
 3821TIP3    H135658   5.276   6.316   9.285  1.6394 -1.1151 -1.0308
 3821TIP3    H235659   5.419   6.361   9.261  1.6455  0.4659  1.6082
 3822TIP3   OH235660   0.513   3.726   7.806  0.3484  0.3860  0.7128
 3822TIP3    H135661   0.497   3.749   7.715 -1.4191  0.5773  1.0269
 3822TIP3    H235662   0.553   3.804   7.845 -2.3146  1.7597  0.9308
 3823TIP3   OH235663   5.424   4.500   8.051 -0.4672  0.2687  0.1431
 3823TIP3    H135664   5.367   4.554   8.106 -0.9980  0.0290 -0.1679
 3823TIP3    H235665   5.498   4.479   8.108 -0.1179  1.5260  0.1940
 3824TIP3   OH235666   5.051   1.186   7.068  0.4316 -0.0752  0.0382
 3824TIP3    H135667   5.085   1.218   7.151  0.5125 -0.9075  0.3332
 3824TIP3    H235668   5.069   1.092   7.069  1.9218  0.1208 -1.6041
 3825TIP3   OH235669   1.875   1.186   7.727 -0.0032  0.0284  0.6245
 3825TIP3    H135670   1.903   1.135   7.803 -0.9791 -1.8414 -0.2260
 3825TIP3    H235671   1.875   1.125   7.654 -0.9863  1.2937 -0.5027
 3826TIP3   OH235672   0.293   4.403   7.613 -0.3015  0.7952 -0.2958
 3826TIP3    H135673   0.215   4.416   7.668 -0.3967  2.4424 -0.7982
 3826TIP3    H235674   0.346   4.480   7.628  1.0850 -0.1293 -0.2705
 3827TIP3   OH235675   3.123   2.607   9.217  0.9784  0.0642 -0.5120
 3827TIP3    H135676   3.112   2.564   9.302  0.7830 -0.6143 -0.8687
 3827TIP3    H235677   3.034   2.616   9.183  0.8414  2.3420  0.2910
 3828TIP3   OH235678   5.218   0.011   8.809  0.5537 -0.2646  0.1191
 3828TIP3    H135679   5.288  -0.010   8.748  0.8037 -0.3293  0.4286
 3828TIP3    H235680   5.260   0.013   8.895  0.6118  1.7468  0.1046
 3829TIP3   OH235681   4.638   6.509   9.000  0.5524 -0.4554  0.3631
 3829TIP3    H135682   4.633   6.432   8.943 -2.2613 -0.2867  0.2394
 3829TIP3    H235683   4.556   6.556   8.983  1.6213  1.9210  1.3666
 3830TIP3   OH235684   2.773   6.407   9.173 -0.0664 -0.1975  0.3095
 3830TIP3    H135685   2.776   6.312   9.165  0.3339 -0.2237  0.7520
 3830TIP3    H235686   2.823   6.439   9.098 -2.1406 -0.2623 -1.1893
 3831TIP3   OH235687   5.090   6.119   6.974  0.2204  0.0503  0.0747
 3831TIP3    H135688   5.054   6.059   7.040  0.6052  0.2797  0.5047
 3831TIP3    H235689   5.025   6.120   6.904  0.8328 -1.9309 -0.5905
 3832TIP3   OH235690   3.389   6.324   7.218  0.0988 -0.1608  0.7124
 3832TIP3    H135691   3.381   6.418   7.205  0.2737 -0.2921 -0.4840
 3832TIP3    H235692   3.331   6.285   7.152 -1.5560 -0.8978  2.4881
 3833TIP3   OH235693   2.030   7.533   8.951 -0.0589  0.2118  0.8164
 3833TIP3    H135694   2.107   7.487   8.986 -0.2252 -0.4319  0.3626
 3833TIP3    H235695   1.999   7.587   9.024  0.8169  0.4734  1.0067
 3834TIP3   OH235696   1.466   3.792   9.588 -0.3938  0.0665 -0.8214
 3834TIP3    H135697   1.540   3.738   9.562 -1.6514 -1.0003 -2.4005
 3834TIP3    H235698   1.502   3.855   9.650  1.1938 -2.5161  1.0884
 3835TIP3   OH235699   0.613   2.275   9.086  0.5853 -0.1573  0.5869
 3835TIP3    H135700   0.547   2.326   9.133  0.9173  0.7399  0.1039
 3835TIP3    H235701   0.627   2.322   9.004  1.4520 -0.6106  0.4521
 3836TIP3   OH235702   3.017   2.055   7.238 -0.3456 -0.2409  0.2544
 3836TIP3    H135703   3.092   2.093   7.285  0.5471 -1.4628 -0.1508
 3836TIP3    H235704   2.958   2.024   7.307 -0.5650  0.8463  0.5772
 3837TIP3   OH235705   5.181   0.812   8.020 -0.1770  0.4250 -0.4070
 3837TIP3    H135706   5.196   0.737   8.077 -1.2107  0.4647 -0.0621
 3837TIP3    H235707   5.266   0.858   8.017 -0.0248  0.2487  0.8346
 3838TIP3   OH235708   7.053   6.367   8.386 -0.0548 -0.4669 -0.4884
 3838TIP3    H135709   7.068   6.324   8.302  0.1669 -0.0988 -0.6381
 3838TIP3    H235710   7.027   6.456   8.364 -0.1502 -0.4142 -0.1712
 3839TIP3   OH235711   6.166   4.582   8.613 -0.1624 -0.4609 -0.3088
 3839TIP3    H135712   6.245   4.609   8.660 -0.2865 -2.0640  0.9120
 3839TIP3    H235713   6.108   4.658   8.616  1.2868  0.7094 -1.1671
 3840TIP3   OH235714   4.372   7.198   7.776  0.1452 -0.2695  0.5828
 3840TIP3    H135715   4.311   7.259   7.816  0.5935 -0.8348  2.2121
 3840TIP3    H235716   4.445   7.253   7.747 -1.1160  0.4290 -1.5121
 3841TIP3   OH235717   4.570   3.124   7.045  0.1708  0.1171 -0.7477
 3841TIP3    H135718   4.517   3.063   7.095  1.5144  0.2642  0.9577
 3841TIP3    H235719   4.658   3.086   7.046  0.5744  0.9941 -1.5317
 3842TIP3   OH235720   1.814   0.680   9.137  0.1442  0.6165  0.4392
 3842TIP3    H135721   1.803   0.724   9.052  0.8721 -1.5861 -0.8873
 3842TIP3    H235722   1.725   0.675   9.173 -0.5752 -0.5605 -1.3684
 3843TIP3   OH235723   1.141   4.588   7.977  0.1148  0.0810 -0.2732
 3843TIP3    H135724   1.127   4.512   7.920  0.3806  0.5093 -0.9354
 3843TIP3    H235725   1.106   4.661   7.927 -0.6676  0.3278  0.6069
 3844TIP3   OH235726   3.999   7.420   8.919  0.3211 -0.1662 -0.2657
 3844TIP3    H135727   4.074   7.455   8.872 -1.9533  1.9799 -2.5637
 3844TIP3    H235728   3.994   7.472   8.999  1.5185 -0.7089  0.1933
 3845TIP3   OH235729   6.978   7.453   9.534  0.2740 -0.2293 -0.5634
 3845TIP3    H135730   6.885   7.467   9.548  0.3744 -1.4703  1.7787
 3845TIP3    H235731   6.983   7.367   9.491  0.3725 -0.7549  0.4790
 3846TIP3   OH235732   7.245   7.471   9.291 -0.2284  0.0092  0.2239
 3846TIP3    H135733   7.230   7.466   9.197 -0.1754  1.8636  0.0887
 3846TIP3    H235734   7.232   7.381   9.322 -0.7989 -0.5239 -1.4567
 3847TIP3   OH235735   2.618   5.194   9.524  0.0602 -0.4567 -0.7191
 3847TIP3    H135736   2.581   5.283   9.525  1.6011  0.3025 -2.9343
 3847TIP3    H235737   2.712   5.208   9.520  0.3106 -2.1776 -1.6594
 3848TIP3   OH235738   5.307   4.972   9.342 -0.3199 -0.0555 -0.5279
 3848TIP3    H135739   5.338   5.047   9.393 -0.5003 -0.6424  0.4790
 3848TIP3    H235740   5.300   5.004   9.252 -2.2449  1.7193  0.1847
 3849TIP3   OH235741   6.004   4.751   8.350 -0.2943 -0.1456  0.4306
 3849TIP3    H135742   6.088   4.797   8.336 -1.3244  1.4371 -0.9296
 3849TIP3    H235743   5.992   4.752   8.444  0.2010  1.5935  0.5120
 3850TIP3   OH235744   6.296   4.533   6.591  0.0565  0.1729 -0.1899
 3850TIP3    H135745   6.254   4.619   6.586 -0.2817  0.0325  0.1889
 3850TIP3    H235746   6.226   4.473   6.618  0.3966 -0.1414  0.0130
 3851TIP3   OH235747   0.164   5.732   8.966  0.4935  0.0028 -0.1461
 3851TIP3    H135748   0.112   5.775   8.898 -0.1242  1.1811  1.0331
 3851TIP3    H235749   0.165   5.640   8.941 -2.4750 -0.1476 -0.0612
 3852TIP3   OH235750   3.138   7.187   8.928 -0.2354 -0.8099 -0.0038
 3852TIP3    H135751   3.128   7.111   8.870 -1.9121  0.9895 -2.2797
 3852TIP3    H235752   3.135   7.262   8.869  0.3019  1.0922  2.2526
 3853TIP3   OH235753   4.653   0.734   9.173 -0.0947 -0.4695  0.0463
 3853TIP3    H135754   4.578   0.719   9.116  0.0296  1.1754 -0.5730
 3853TIP3    H235755   4.615   0.761   9.257 -0.2254 -1.4477  0.3182
 3854TIP3   OH235756   5.370   2.513   6.859  0.7949  0.2790 -0.0280
 3854TIP3    H135757   5.361   2.597   6.813  0.7008 -0.9581 -2.4541
 3854TIP3    H235758   5.461   2.512   6.887  1.0824  0.7977 -0.8668
 3855TIP3   OH235759   4.678   2.615   9.312 -0.2173  0.0373  0.0481
 3855TIP3    H135760   4.677   2.710   9.311 -1.2417  0.0521 -1.6846
 3855TIP3    H235761   4.667   2.591   9.404 -1.9847  1.6049  0.2942
 3856TIP3   OH235762   3.471   5.764   7.538 -0.0103 -0.0483 -0.6304
 3856TIP3    H135763   3.537   5.714   7.491  0.6777 -0.2170  0.4909
 3856TIP3    H235764   3.425   5.699   7.591  0.1846  0.3415  0.0241
 3857TIP3   OH235765   2.948   2.995   9.283 -0.4656 -0.3164 -0.5042
 3857TIP3    H135766   2.874   2.943   9.314 -0.3435 -0.0947  0.1715
 3857TIP3    H235767   2.917   3.035   9.202  0.0250 -2.8568 -2.0654
 3858TIP3   OH235768   4.519   5.100   9.256  0.9623 -0.1094  0.4629
 3858TIP3    H135769   4.487   5.040   9.188  1.7907 -0.3547  0.2702
 3858TIP3    H235770   4.443   5.115   9.312 -0.3866  1.8156 -1.6980
 3859TIP3   OH235771   6.822   3.354   8.369 -0.5681 -0.5957  0.5844
 3859TIP3    H135772   6.744   3.400   8.340 -0.7301 -1.7816 -0.9802
 3859TIP3    H235773   6.795   3.264   8.380  1.2089 -1.8767 -3.5124
 3860TIP3   OH235774   5.432   7.409   8.968 -0.4205  0.1570  0.1436
 3860TIP3    H135775   5.404   7.380   9.055 -1.3558 -1.0712 -0.5259
 3860TIP3    H235776   5.450   7.502   8.978 -1.7771  0.3275  1.3669
 3861TIP3   OH235777   4.371   2.133   7.710  0.1095  0.0726 -0.8128
 3861TIP3    H135778   4.437   2.145   7.778 -0.8677  2.4437 -0.1969
 3861TIP3    H235779   4.309   2.205   7.723 -1.5590 -0.9429 -2.5730
 3862TIP3   OH235780   4.739   6.984   7.879  0.0773  0.1093 -0.0109
 3862TIP3    H135781   4.679   6.921   7.920 -0.5551 -0.0795 -1.1845
 3862TIP3    H235782   4.733   7.062   7.933  0.0007 -0.4470  0.8057
 3863TIP3   OH235783   2.581   4.681   7.090  0.6336  0.3835 -0.8515
 3863TIP3    H135784   2.642   4.609   7.079  0.6863  0.6063 -2.1344
 3863TIP3    H235785   2.609   4.724   7.172  1.4847 -0.1812 -0.8360
 3864TIP3   OH235786   7.478   1.126   7.940 -0.1331 -0.5622  0.7536
 3864TIP3    H135787   7.427   1.106   7.861  0.3589 -1.1591  0.5801
 3864TIP3    H235788   7.413   1.154   8.004 -0.7773 -1.9868  0.7626
 3865TIP3   OH235789   6.199   3.027   9.554  0.3134 -0.5622  0.1414
 3865TIP3    H135790   6.285   3.055   9.585  0.0644  0.0833  0.2649
 3865TIP3    H235791   6.148   3.108   9.547 -0.3811 -0.9643  0.3728
 3866TIP3   OH235792   1.677   1.349   9.047  0.2179  0.0579  0.0149
 3866TIP3    H135793   1.593   1.308   9.025  0.5968  0.4737 -2.4286
 3866TIP3    H235794   1.704   1.393   8.967  1.0488  3.0418  1.7548
 3867TIP3   OH235795   7.404   3.398   7.072  0.2248 -0.3022  0.1884
 3867TIP3    H135796   7.429   3.488   7.049  1.0601 -0.2656  1.1903
 3867TIP3    H235797   7.309   3.396   7.058 -0.0653  1.1957  1.5691
 3868TIP3   OH235798   7.557   2.692   8.736  0.3361  0.2430 -0.4551
 3868TIP3    H135799   7.523   2.670   8.823  1.0383  0.7713 -0.0283
 3868TIP3    H235800   7.566   2.608   8.692  0.1680 -0.0535  0.0609
 3869TIP3   OH235801   5.244   2.714   8.486  0.2319  0.4422 -0.1222
 3869TIP3    H135802   5.251   2.651   8.558 -1.8968  0.5423  0.2507
 3869TIP3    H235803   5.222   2.797   8.528  0.5611  0.8755 -0.7836
 3870TIP3   OH235804   3.815   6.777   8.424  0.1443  0.0300 -0.3935
 3870TIP3    H135805   3.781   6.792   8.513 -0.8861 -1.5771 -0.4687
 3870TIP3    H235806   3.799   6.859   8.378 -1.1148  0.2496  0.3839
 3871TIP3   OH235807   0.649   6.634   7.002 -0.6663 -1.0553 -0.4979
 3871TIP3    H135808   0.614   6.721   7.018  1.5933  0.0039 -0.9071
 3871TIP3    H235809   0.582   6.589   6.950 -0.7597  1.4482 -2.7543
 3872TIP3   OH235810   6.552   5.244   7.016 -0.3364 -0.4034 -0.1358
 3872TIP3    H135811   6.596   5.291   6.944 -0.9080  1.8331  0.8955
 3872TIP3    H235812   6.470   5.290   7.028 -0.7861 -1.4915  1.2068
 3873TIP3   OH235813   7.029   1.067   8.006 -0.6077  0.3871  0.1001
 3873TIP3    H135814   6.973   1.080   8.083 -1.9929  2.0708 -1.1019
 3873TIP3    H235815   7.094   1.137   8.013 -1.1206  0.9412 -0.5540
 3874TIP3   OH235816   1.620   0.051   6.935  0.0056 -0.0877 -0.2036
 3874TIP3    H135817   1.583  -0.037   6.938 -0.2282  0.0331  0.6639
 3874TIP3    H235818   1.704   0.043   6.980 -0.8482  0.5057  1.6055
 3875TIP3   OH235819   0.465   7.597   8.101 -0.5467  0.2038  0.0022
 3875TIP3    H135820   0.445   7.510   8.135 -0.3161 -0.1217 -0.6738
 3875TIP3    H235821   0.393   7.615   8.040 -0.2728  0.2233 -0.3162
 3876TIP3   OH235822   0.789   5.842   9.154 -0.3028 -0.3914  0.3555
 3876TIP3    H135823   0.827   5.929   9.145  0.2829 -0.5831  0.8703
 3876TIP3    H235824   0.768   5.815   9.065  0.9341 -0.3342  0.0239
 3877TIP3   OH235825   7.363   7.138   8.256 -0.2542 -0.2540  0.1559
 3877TIP3    H135826   7.287   7.182   8.293  0.6631  0.4796  1.2328
 3877TIP3    H235827   7.372   7.176   8.168 -1.5201 -0.8716 -0.2728
 3878TIP3   OH235828   2.096   5.012   8.743 -0.4349  0.0846 -0.2024
 3878TIP3    H135829   2.030   4.968   8.689 -1.6219  2.7356 -1.1095
 3878TIP3    H235830   2.060   5.011   8.831 -0.1276 -1.2592 -0.0705
 3879TIP3   OH235831   1.755   4.655   6.504 -0.5603 -0.0789  0.0680
 3879TIP3    H135832   1.669   4.647   6.546  0.1863  2.5245  2.3942
 3879TIP3    H235833   1.739   4.709   6.426 -0.8890  1.6242  1.2673
 3880TIP3   OH235834   5.233   4.089   9.241 -0.6308  0.3082  0.2137
 3880TIP3    H135835   5.239   4.177   9.204  0.1832 -0.2303 -0.9774
 3880TIP3    H235836   5.203   4.103   9.331 -0.4889  1.8010  0.0505
 3881TIP3   OH235837   2.454   4.061   7.526  0.7327  0.2897  0.2877
 3881TIP3    H135838   2.360   4.045   7.518  0.8155  0.1046 -0.3775
 3881TIP3    H235839   2.492   3.973   7.533  0.7726  0.3983  1.6182
 3882TIP3   OH235840   1.676   7.460   8.946 -0.3193 -0.0856  0.4895
 3882TIP3    H135841   1.622   7.467   9.025 -1.0324 -0.6465  0.0717
 3882TIP3    H235842   1.766   7.461   8.978 -0.5630  0.9373  1.2045
 3883TIP3   OH235843   6.480   1.162   6.919 -0.0966 -0.1769 -0.0263
 3883TIP3    H135844   6.550   1.227   6.919  1.0925 -1.3947  1.0481
 3883TIP3    H235845   6.405   1.208   6.956  0.9631  0.4022  1.5139
 3884TIP3   OH235846   6.883   0.103   6.967  0.1234  0.1423 -0.6838
 3884TIP3    H135847   6.833   0.080   6.888 -1.3455 -0.1925  0.2990
 3884TIP3    H235848   6.841   0.054   7.037  0.8095  1.1358  0.4636
 3885TIP3   OH235849   4.438   5.013   7.721 -0.4335 -0.7952 -0.6318
 3885TIP3    H135850   4.485   4.960   7.786  0.8704 -0.1461 -1.0101
 3885TIP3    H235851   4.498   5.084   7.699 -1.8335  0.4051 -0.7328
 3886TIP3   OH235852   7.605   6.961   7.480 -0.7843  0.5384 -0.1408
 3886TIP3    H135853   7.588   6.956   7.386 -1.1748 -3.8604 -0.0251
 3886TIP3    H235854   7.526   6.999   7.517 -1.2846  0.8425 -1.4661
 3887TIP3   OH235855   2.034   0.920   8.310  0.0383  0.3432  0.0021
 3887TIP3    H135856   2.065   0.992   8.255 -0.0341  1.3412  1.2248
 3887TIP3    H235857   1.950   0.951   8.344 -0.2043 -0.5135  0.2061
 3888TIP3   OH235858   2.841   3.744   9.398  0.3398 -0.1334  0.0228
 3888TIP3    H135859   2.763   3.692   9.416  0.0581  0.7985  1.7690
 3888TIP3    H235860   2.905   3.713   9.462  0.2012  1.5082  1.0353
 3889TIP3   OH235861   5.312   2.678   8.210 -0.3372 -0.1575  0.0540
 3889TIP3    H135862   5.362   2.596   8.210  2.1568  1.2036  2.1781
 3889TIP3    H235863   5.272   2.681   8.297  0.6900  1.3968  0.5154
 3890TIP3   OH235864   6.350   1.162   8.672 -0.3477  0.2367  0.5995
 3890TIP3    H135865   6.294   1.204   8.737 -0.4662  1.6523 -0.3893
 3890TIP3    H235866   6.430   1.214   8.671  0.7814 -1.3872  1.5388
 3891TIP3   OH235867   7.517   3.731   9.101  0.0893  0.0374 -0.8830
 3891TIP3    H135868   7.483   3.672   9.168  0.4135  0.3667 -0.4247
 3891TIP3    H235869   7.610   3.710   9.094 -0.2494 -1.1421 -2.4311
 3892TIP3   OH235870   1.714   7.295   8.022 -0.5522 -0.4748  0.1212
 3892TIP3    H135871   1.692   7.320   7.933 -0.4240  0.3894  0.3224
 3892TIP3    H235872   1.802   7.330   8.036 -0.5452 -0.6591  0.5686
 3893TIP3   OH235873   7.177   1.090   7.394  0.4051  0.1579 -0.4568
 3893TIP3    H135874   7.083   1.077   7.409  0.4519  0.8278  0.5051
 3893TIP3    H235875   7.199   1.027   7.326 -0.7231 -0.0795 -0.6272
 3894TIP3   OH235876   7.140   6.703   8.363 -0.1129  0.1984 -0.1759
 3894TIP3    H135877   7.154   6.736   8.452  1.6534 -0.6625 -0.0756
 3894TIP3    H235878   7.047   6.686   8.358 -0.3203  0.7072  1.3534
 3895TIP3   OH235879   7.520   4.712   6.872  0.1527 -0.2568 -0.5281
 3895TIP3    H135880   7.507   4.736   6.963  0.4033  0.9182 -0.7880
 3895TIP3    H235881   7.530   4.795   6.826  2.6160 -0.8545 -1.2387
 3896TIP3   OH235882   5.097   1.566   7.096  0.3808  0.5687  0.6438
 3896TIP3    H135883   5.043   1.533   7.168 -1.1743  1.2997 -0.1237
 3896TIP3    H235884   5.162   1.621   7.138  0.2549  0.0243  1.5778
 3897TIP3   OH235885   4.042   6.662   7.829 -0.1829  0.1920  0.2492
 3897TIP3    H135886   4.073   6.669   7.920 -0.6595  3.2968  0.2770
 3897TIP3    H235887   3.960   6.711   7.828  0.6422  1.6723 -2.2060
 3898TIP3   OH235888   5.729   5.798   7.652 -0.8861  0.4303  0.5157
 3898TIP3    H135889   5.786   5.759   7.586  0.1568  1.6400  0.6643
 3898TIP3    H235890   5.700   5.724   7.706 -0.2631 -0.3252 -0.1628
 3899TIP3   OH235891   2.590   1.250   9.035 -0.0712  0.2575 -0.4765
 3899TIP3    H135892   2.527   1.310   9.074 -0.0114 -0.2695  0.4671
 3899TIP3    H235893   2.652   1.307   8.989  0.5090  1.0034  1.1576
 3900TIP3   OH235894   3.982   5.141   9.366 -0.3364  0.2054 -0.5049
 3900TIP3    H135895   3.989   5.097   9.281  0.2602 -0.0570 -0.3226
 3900TIP3    H235896   3.896   5.116   9.399  0.6708 -2.3641  0.4197
 3901TIP3   OH235897   7.628   6.187   8.189 -0.3049 -0.1010 -0.3338
 3901TIP3    H135898   7.610   6.103   8.230  2.4107 -0.5870  0.0853
 3901TIP3    H235899   7.679   6.165   8.111  1.8083  1.1155  0.5952
 3902TIP3   OH235900   7.562   5.901   9.092  0.2190 -0.0989 -0.0583
 3902TIP3    H135901   7.578   5.838   9.161 -1.7999 -0.8111 -0.1596
 3902TIP3    H235902   7.588   5.857   9.012  0.5124 -0.1093  0.0437
 3903TIP3   OH235903   2.961   3.533   7.745  0.2651 -0.2132  0.6339
 3903TIP3    H135904   2.969   3.439   7.762 -0.6872 -0.6314 -0.9781
 3903TIP3    H235905   2.999   3.575   7.822  0.9315 -1.9173  1.2789
 3904TIP3   OH235906   7.482   0.081   8.418  0.3341 -0.4726  0.2495
 3904TIP3    H135907   7.544   0.014   8.388  0.3554 -0.4922  0.3368
 3904TIP3    H235908   7.439   0.042   8.493  0.2770 -0.4249  0.2409
 3905TIP3   OH235909   1.807   0.769   7.977  0.4299 -0.1707  0.1229
 3905TIP3    H135910   1.856   0.689   7.961 -1.6639 -1.6757  0.7431
 3905TIP3    H235911   1.747   0.776   7.902  0.1958  0.4856  0.3645
 3906TIP3   OH235912   5.351   7.480   7.761  0.6036  0.6682 -0.7012
 3906TIP3    H135913   5.340   7.390   7.730 -0.0747  0.1401  0.9356
 3906TIP3    H235914   5.409   7.473   7.836 -1.0555  1.2629  0.7280
 3907TIP3   OH235915   4.734   6.019   6.866  0.1141 -0.2101  0.3493
 3907TIP3    H135916   4.694   5.933   6.880 -0.1651  0.1137  1.7740
 3907TIP3    H235917   4.797   6.006   6.796 -0.0674 -1.5337  0.4106
 3908TIP3   OH235918   5.592   5.420   7.227  0.0513  0.3981  0.0582
 3908TIP3    H135919   5.572   5.336   7.186  2.2413 -0.1303 -0.0593
 3908TIP3    H235920   5.564   5.485   7.162 -0.1055 -0.2843 -0.5805
 3909TIP3   OH235921   4.830   0.067   9.494 -0.0508 -0.2998  0.2911
 3909TIP3    H135922   4.739   0.058   9.522  0.0675 -1.1086  0.4385
 3909TIP3    H235923   4.839   0.007   9.420  0.4978 -0.6251  0.6141
 3910TIP3   OH235924   2.809   4.660   8.717  0.0860  0.1318  0.1596
 3910TIP3    H135925   2.800   4.755   8.712  0.8070  0.2987  1.6011
 3910TIP3    H235926   2.857   4.645   8.798 -1.4815 -1.5571  0.8386
 3911TIP3   OH235927   1.236   1.105   9.247 -0.1484 -0.1267  0.4074
 3911TIP3    H135928   1.284   1.185   9.225 -0.0979 -0.4123 -0.5702
 3911TIP3    H235929   1.175   1.132   9.315 -1.6695  1.2824 -1.4160
 3912TIP3   OH235930   5.316   0.343   9.292 -0.2112  0.2593  0.1542
 3912TIP3    H135931   5.309   0.262   9.341 -1.6236  1.0302  1.3108
 3912TIP3    H235932   5.383   0.393   9.338  1.6744 -0.7208 -1.3634
 3913TIP3   OH235933   0.713   2.688   7.649 -0.3008 -0.6876 -0.2435
 3913TIP3    H135934   0.802   2.686   7.614 -0.8073 -0.4050 -1.6053
 3913TIP3    H235935   0.724   2.691   7.744  1.2024  1.3622 -0.4272
 3914TIP3   OH235936   6.550   5.438   7.827  0.3531  0.0056 -0.2356
 3914TIP3    H135937   6.643   5.422   7.842  0.6577  0.9391 -0.9987
 3914TIP3    H235938   6.543   5.534   7.820 -0.9572  0.0963  1.6403
 3915TIP3   OH235939   3.612   5.128   8.461  0.4903 -0.5380  0.4992
 3915TIP3    H135940   3.545   5.114   8.528  1.1691 -2.7144  0.8139
 3915TIP3    H235941   3.594   5.061   8.395  0.0475  1.3368 -1.3882
 3916TIP3   OH235942   0.696   3.721   8.235  0.0977  0.4350  0.1271
 3916TIP3    H135943   0.645   3.794   8.200 -0.4478 -0.4650 -1.0535
 3916TIP3    H235944   0.785   3.736   8.204 -0.0163  0.6057 -0.1232
 3917TIP3   OH235945   1.406   6.975   7.802 -0.1001 -0.0451  0.7515
 3917TIP3    H135946   1.393   7.028   7.723  0.8939  0.0325  0.6182
 3917TIP3    H235947   1.329   6.992   7.856 -0.5458  0.2984  0.0146
 3918TIP3   OH235948   2.347   2.990   8.725 -0.2707  0.2680  0.0078
 3918TIP3    H135949   2.324   2.925   8.790 -0.8779 -0.0005 -0.4683
 3918TIP3    H235950   2.345   3.074   8.772 -2.9024  0.3570 -0.1278
 3919TIP3   OH235951   5.832   4.308   9.482 -0.3071 -0.8195 -0.1182
 3919TIP3    H135952   5.787   4.371   9.538 -1.6073  1.3496 -3.2858
 3919TIP3    H235953   5.791   4.224   9.503 -0.5464 -0.1796  2.2571
 3920TIP3   OH235954   4.942   5.123   9.422 -0.7545  0.6318  0.0612
 3920TIP3    H135955   5.008   5.055   9.430  1.2400  2.5463  0.7779
 3920TIP3    H235956   4.865   5.078   9.387  0.2884 -2.0500  0.9766
 3921TIP3   OH235957   5.926   2.825   8.457  0.6148 -0.1608  0.1638
 3921TIP3    H135958   5.953   2.850   8.369 -0.4040  1.5972  0.2955
 3921TIP3    H235959   5.954   2.898   8.513 -1.6638  0.3750  0.7430
 3922TIP3   OH235960   1.530   4.857   8.950 -0.2868 -1.0117  0.1423
 3922TIP3    H135961   1.489   4.841   9.035 -1.8249  2.1529  0.1214
 3922TIP3    H235962   1.457   4.868   8.890  0.6987  0.1186 -0.8855
 3923TIP3   OH235963   3.661   2.912   7.442 -0.0020 -0.1343 -0.1805
 3923TIP3    H135964   3.633   2.968   7.515  0.3706 -0.6823  0.3998
 3923TIP3    H235965   3.741   2.871   7.474 -0.8251 -1.8062 -0.1863
 3924TIP3   OH235966   7.357   4.614   8.872  0.2501  0.0722  0.2813
 3924TIP3    H135967   7.291   4.656   8.816 -1.3379 -0.7157  1.4769
 3924TIP3    H235968   7.346   4.520   8.855  1.9640 -0.0443 -0.4185
 3925TIP3   OH235969   0.898   5.660   8.424 -0.0090 -0.3794  0.0139
 3925TIP3    H135970   0.920   5.568   8.437  2.2536  0.0815 -0.1603
 3925TIP3    H235971   0.944   5.685   8.344  1.3318  1.4227  1.2580
 3926TIP3   OH235972   7.295   0.470   7.489 -0.0672  0.1327 -1.0024
 3926TIP3    H135973   7.200   0.457   7.482 -0.5182 -0.2331  2.9273
 3926TIP3    H235974   7.304   0.554   7.534  1.3919 -0.1837 -0.6645
 3927TIP3   OH235975   6.315   7.456   7.935  0.2724  0.0131 -0.4849
 3927TIP3    H135976   6.315   7.427   8.027 -1.1240 -2.7062 -1.2269
 3927TIP3    H235977   6.288   7.548   7.939 -1.9212 -0.5984  1.7462
 3928TIP3   OH235978   4.362   0.415   7.786 -0.0366  0.0351  0.2101
 3928TIP3    H135979   4.409   0.401   7.868 -1.7098 -0.6138  1.1149
 3928TIP3    H235980   4.427   0.453   7.727  1.5882 -0.7794  1.3886
 3929TIP3   OH235981   3.877   3.617   9.231  0.1757  0.0910  0.5063
 3929TIP3    H135982   3.953   3.595   9.285 -0.0215 -1.3545  0.2221
 3929TIP3    H235983   3.896   3.581   9.145 -1.7837 -2.4735  1.0106
 3930TIP3   OH235984   3.144   4.536   8.282  0.0468  0.7320 -0.2047
 3930TIP3    H135985   3.188   4.477   8.222  0.6038 -1.6725  2.3518
 3930TIP3    H235986   3.065   4.563   8.236  0.5745 -0.7758 -2.1041
 3931TIP3   OH235987   0.198   1.563   7.879 -0.8513 -0.3770  0.1546
 3931TIP3    H135988   0.248   1.631   7.923 -0.9008  0.8984 -1.6715
 3931TIP3    H235989   0.107   1.589   7.889 -1.0206 -1.2419  1.1030
 3932TIP3   OH235990   6.214   0.900   7.093 -0.5292  0.4868 -0.8250
 3932TIP3    H135991   6.189   0.979   7.045 -0.4126 -0.2289 -2.1171
 3932TIP3    H235992   6.215   0.926   7.184 -1.9524  1.5950 -1.1016
 3933TIP3   OH235993   4.538   4.416   9.470 -0.3623  0.5188 -0.1557
 3933TIP3    H135994   4.442   4.414   9.461 -0.4641  1.0094  0.6004
 3933TIP3    H235995   4.557   4.349   9.535 -0.1337  0.0439 -0.7152
 3934TIP3   OH235996   3.611   7.448   9.063  0.0959  0.4028  0.0638
 3934TIP3    H135997   3.587   7.368   9.109  1.0527  0.0208 -0.0737
 3934TIP3    H235998   3.527   7.487   9.037 -0.4711  0.6896  2.1949
 3935TIP3   OH235999   4.712   5.661   7.559 -0.0413 -0.0052 -0.7796
 3935TIP3    H136000   4.718   5.708   7.476 -0.0246  1.0192 -0.2010
 3935TIP3    H236001   4.758   5.578   7.542  2.0784  1.1776 -1.0935
 3936TIP3   OH236002   7.130   5.666   7.998 -0.1257  0.5497 -0.5809
 3936TIP3    H136003   7.136   5.633   7.909  0.6998 -2.3554  0.4339
 3936TIP3    H236004   7.220   5.683   8.023  0.0096 -1.5648  0.6086
 3937TIP3   OH236005   0.490   1.699   6.903 -0.3616  0.2648 -0.4911
 3937TIP3    H136006   0.542   1.646   6.964 -0.6519 -1.0313 -1.3341
 3937TIP3    H236007   0.542   1.778   6.890 -1.4022  1.8314  3.3730
 3938TIP3   OH236008   7.162   2.980   8.993 -0.1403 -0.5366 -0.6294
 3938TIP3    H136009   7.211   2.943   8.919  1.9322  0.7492  0.0239
 3938TIP3    H236010   7.150   3.072   8.970 -0.2855 -0.3306  0.2473
 3939TIP3   OH236011   2.083   4.017   7.751 -0.2671  0.2505  0.3418
 3939TIP3    H136012   2.089   4.010   7.656  1.2981  3.2486  0.1092
 3939TIP3    H236013   2.173   4.034   7.779 -0.7806 -0.0952  2.3239
 3940TIP3   OH236014   1.646   0.101   8.787 -0.2269 -0.1997 -0.0627
 3940TIP3    H136015   1.711   0.096   8.717 -2.2274 -1.2396 -1.9873
 3940TIP3    H236016   1.632   0.010   8.813 -1.2113 -0.0471 -0.0126
 3941TIP3   OH236017   7.240   1.771   7.825 -0.4426 -0.4959  0.0183
 3941TIP3    H136018   7.271   1.836   7.763 -0.4185 -0.7965 -0.2902
 3941TIP3    H236019   7.151   1.799   7.847  0.6502  1.4387  2.3760
 3942TIP3   OH236020   1.652   3.326   9.445  0.6357  0.0760 -0.3277
 3942TIP3    H136021   1.653   3.263   9.517 -0.5026  0.4334  0.0111
 3942TIP3    H236022   1.603   3.401   9.479  0.8438  0.6094 -1.1759
 3943TIP3   OH236023   3.249   6.997   7.457 -0.0742 -0.0308  0.1217
 3943TIP3    H136024   3.164   7.000   7.415 -1.4698 -0.8893  2.6631
 3943TIP3    H236025   3.252   6.912   7.501  0.9949  0.9705  2.1585
 3944TIP3   OH236026   1.613   2.752   8.007 -0.0430  0.3089  0.0944
 3944TIP3    H136027   1.525   2.744   8.045  0.6297 -0.5688  1.5404
 3944TIP3    H236028   1.672   2.740   8.081  1.3355 -2.3233 -1.3090
 3945TIP3   OH236029   4.046   7.213   8.539  0.0663  0.3485  0.2915
 3945TIP3    H136030   4.125   7.177   8.580 -0.5800  0.0077  1.2800
 3945TIP3    H236031   4.037   7.301   8.576  1.1652  1.2692 -1.4765
 3946TIP3   OH236032   0.476   6.404   7.355 -0.3887 -0.6485  0.3135
 3946TIP3    H136033   0.488   6.499   7.350 -2.5256 -0.4018 -2.5393
 3946TIP3    H236034   0.545   6.368   7.299 -0.1646 -0.7260  0.6361
 3947TIP3   OH236035   0.531   6.188   9.216 -0.3324  0.2654 -0.0357
 3947TIP3    H136036   0.568   6.259   9.163 -1.2158 -0.5831 -1.8804
 3947TIP3    H236037   0.608   6.143   9.251  0.4191 -0.4190 -2.3821
 3948TIP3   OH236038   3.724   6.219   7.482 -0.5003  0.1398  0.4803
 3948TIP3    H136039   3.678   6.154   7.535 -0.5816 -1.8096 -1.8347
 3948TIP3    H236040   3.817   6.206   7.502 -0.5715 -0.1000  0.6560
 3949TIP3   OH236041   5.689   7.401   8.202  0.2066  0.2140  0.1142
 3949TIP3    H136042   5.781   7.419   8.220  1.0618 -2.7309 -0.7779
 3949TIP3    H236043   5.664   7.334   8.265 -0.4296 -1.1293 -1.4932
 3950TIP3   OH236044   7.150   3.998   8.318 -0.1192 -0.3473  0.2317
 3950TIP3    H136045   7.174   3.950   8.239 -0.8466  1.0008 -0.8648
 3950TIP3    H236046   7.069   3.958   8.348 -0.4997 -0.0935 -0.4373
 3951TIP3   OH236047   3.255   0.150   8.084  0.1028  0.5173  0.1720
 3951TIP3    H136048   3.342   0.151   8.045  0.0365  0.6066  0.0260
 3951TIP3    H236049   3.202   0.206   8.028 -0.1787  0.0527 -0.0396
 3952TIP3   OH236050   5.540   5.905   8.718  0.2776 -0.1408 -0.0149
 3952TIP3    H136051   5.523   5.887   8.625 -0.5474 -1.2453  0.3253
 3952TIP3    H236052   5.531   6.000   8.726  4.5477  0.6524 -1.8602
 3953TIP3   OH236053   0.609   2.469   8.896 -0.4315  0.0670  0.0985
 3953TIP3    H136054   0.552   2.532   8.940 -0.1553 -0.0731  0.6601
 3953TIP3    H236055   0.622   2.506   8.809 -0.2393  0.8130  0.4384
 3954TIP3   OH236056   0.190   2.223   9.520 -0.3448  0.1203  0.0767
 3954TIP3    H136057   0.163   2.131   9.525 -1.8064  0.5998  3.5303
 3954TIP3    H236058   0.108   2.272   9.511  0.2843  1.1901 -0.0797
 3955TIP3   OH236059   6.502   7.064   8.442 -0.2349 -0.2371  0.0062
 3955TIP3    H136060   6.436   7.012   8.488 -0.3899  0.1534  0.2386
 3955TIP3    H236061   6.578   7.064   8.500 -1.1209  1.9839  1.3139
 3956TIP3   OH236062   4.756   5.032   7.691 -0.1731 -0.2077  0.0807
 3956TIP3    H136063   4.769   4.937   7.698  1.1958 -0.0937 -0.7006
 3956TIP3    H236064   4.745   5.047   7.598 -2.0875  0.2309  0.3330
 3957TIP3   OH236065   7.577   4.029   7.559 -0.3970 -0.6674 -0.4331
 3957TIP3    H136066   7.495   4.007   7.603  0.0833 -1.3587  0.1175
 3957TIP3    H236067   7.637   4.053   7.629 -0.4407  0.9509 -0.9035
 3958TIP3   OH236068   2.333   4.036   7.919  0.0582 -0.0673 -0.3485
 3958TIP3    H136069   2.315   4.104   7.985 -0.1650 -1.0478  0.6262
 3958TIP3    H236070   2.277   3.963   7.944 -2.9205  0.7341 -3.7806
 3959TIP3   OH236071   2.488   4.115   7.111  0.5960  0.1331  0.1132
 3959TIP3    H136072   2.535   4.034   7.132 -1.8670 -1.2029  0.8957
 3959TIP3    H236073   2.535   4.183   7.160  3.4521 -0.5298 -1.5060
 3960TIP3   OH236074   6.482   6.072   8.257 -0.0980  0.0740  0.0009
 3960TIP3    H136075   6.573   6.047   8.276  0.2396  0.6702 -0.7721
 3960TIP3    H236076   6.433   5.991   8.271  0.7114 -0.5554 -0.6516
 3961TIP3   OH236077   5.240   2.107   8.176 -0.2697  0.2936  0.2477
 3961TIP3    H136078   5.169   2.132   8.117  0.2600 -2.3988 -1.7124
 3961TIP3    H236079   5.317   2.151   8.141 -0.3711  0.5624  0.3595
 3962TIP3   OH236080   1.312   7.143   7.147 -0.0600 -0.1448  0.1247
 3962TIP3    H136081   1.349   7.162   7.060 -0.1836 -0.6801 -0.0501
 3962TIP3    H236082   1.340   7.053   7.165 -0.3408 -0.1620  0.4787
 3963TIP3   OH236083   2.486   5.636   7.984  0.1948 -0.4942  0.3209
 3963TIP3    H136084   2.542   5.642   7.906 -1.8983 -1.1797 -1.3335
 3963TIP3    H236085   2.501   5.719   8.029  1.9944 -0.3652 -0.3935
 3964TIP3   OH236086   3.673   2.649   9.145 -0.2150 -0.5037  0.3185
 3964TIP3    H136087   3.591   2.622   9.103 -1.3876 -0.0574  2.1593
 3964TIP3    H236088   3.742   2.607   9.095 -1.5555 -0.6432 -1.4884
 3965TIP3   OH236089   4.288   2.406   8.120 -0.2486 -0.4347  0.1291
 3965TIP3    H136090   4.249   2.343   8.180 -0.2458  0.2127  0.8182
 3965TIP3    H236091   4.253   2.491   8.147 -1.2571 -0.2472 -1.5742
 3966TIP3   OH236092   2.028   5.816   7.429 -0.3176 -0.0138 -0.5863
 3966TIP3    H136093   2.096   5.839   7.493 -1.0429  1.2614 -0.2265
 3966TIP3    H236094   2.075   5.767   7.361  1.2456  1.9126 -0.9990
 3967TIP3   OH236095   5.736   2.288   6.619  0.2570 -0.1822  0.2908
 3967TIP3    H136096   5.647   2.307   6.588  1.1161  0.7089 -1.7814
 3967TIP3    H236097   5.736   2.193   6.632 -0.7873 -0.3107 -0.4723
 3968TIP3   OH236098   5.258   6.360   7.998 -0.1336  0.2705 -0.0918
 3968TIP3    H136099   5.247   6.308   8.077 -3.1716 -1.3964 -1.4538
 3968TIP3    H236100   5.305   6.303   7.937  0.4535  0.8116 -0.1598
 3969TIP3   OH236101   5.892   3.967   8.939  0.1502 -0.4052  0.0912
 3969TIP3    H136102   5.874   4.051   8.980 -0.5473 -0.4893 -0.0339
 3969TIP3    H236103   5.867   3.902   9.004  0.1896 -0.5242 -0.0111
 3970TIP3   OH236104   0.003   5.027   8.365  0.4066  0.1467 -0.3136
 3970TIP3    H136105   0.081   4.998   8.318  0.2215  2.0174 -1.8993
 3970TIP3    H236106   0.023   5.011   8.457  2.6313  0.4687 -0.6866
 3971TIP3   OH236107   3.408   1.786   7.668 -0.0591 -0.0939  0.4010
 3971TIP3    H136108   3.453   1.733   7.602  1.3599  1.2776  0.1984
 3971TIP3    H236109   3.329   1.818   7.624  1.4909  1.8319 -1.1462
 3972TIP3   OH236110   4.108   6.597   8.621 -0.1616  0.0832  0.0355
 3972TIP3    H136111   4.177   6.582   8.556 -0.4073  1.1934 -0.5048
 3972TIP3    H236112   4.082   6.688   8.608 -2.5872 -0.6250 -0.6444
 3973TIP3   OH236113   4.101   1.152   8.377 -0.2833  0.5307  0.1959
 3973TIP3    H136114   4.037   1.115   8.437 -0.6173  0.3536 -0.2639
 3973TIP3    H236115   4.166   1.194   8.434 -0.4532  0.1399  0.6877
 3974TIP3   OH236116   4.188   5.961   8.580 -0.0068 -0.5707  0.1497
 3974TIP3    H136117   4.097   5.956   8.607  0.0455 -2.5336  0.0835
 3974TIP3    H236118   4.234   5.901   8.638  1.2719  0.4095  0.2041
 3975TIP3   OH236119   2.165   6.225   7.734  0.2680 -0.6449 -0.2595
 3975TIP3    H136120   2.167   6.193   7.824  0.5844  0.3010  0.0825
 3975TIP3    H236121   2.095   6.175   7.692  0.0765 -1.0518  0.5224
 3976TIP3   OH236122   0.689   5.211   8.288 -0.5816 -0.1764 -0.3044
 3976TIP3    H136123   0.728   5.221   8.374 -1.0095  2.3795 -0.3327
 3976TIP3    H236124   0.763   5.206   8.228 -0.2917 -1.1802  0.1197
 3977TIP3   OH236125   3.096   6.657   7.984  0.0459 -0.8944  0.0971
 3977TIP3    H136126   3.123   6.601   7.911  0.2798 -0.4115 -0.1905
 3977TIP3    H236127   3.004   6.635   7.998 -0.1360 -0.6324 -0.6728
 3978TIP3   OH236128   0.793   6.986   6.913  0.3763  0.5090 -0.0433
 3978TIP3    H136129   0.733   6.992   6.839  0.5282  1.8308 -0.0897
 3978TIP3    H236130   0.747   6.934   6.979 -0.6222  1.1050 -0.2600
 3979TIP3   OH236131   0.334   0.471   7.871 -0.1529  0.1778  0.1663
 3979TIP3    H136132   0.320   0.451   7.963  1.2697 -2.5060 -0.0929
 3979TIP3    H236133   0.248   0.459   7.830 -0.4999  0.0405  0.9249
 3980TIP3   OH236134   3.327   7.154   8.628 -0.4129  0.7165 -0.3325
 3980TIP3    H136135   3.334   7.059   8.620 -0.0118  0.7247 -0.0923
 3980TIP3    H236136   3.234   7.170   8.646 -0.4830  0.3736 -0.3927
 3981TIP3   OH236137   2.668   4.769   7.343 -0.4561 -0.3445  0.5157
 3981TIP3    H136138   2.681   4.826   7.419  0.8736 -1.2799  1.0328
 3981TIP3    H236139   2.675   4.681   7.379  2.4798 -0.8200 -0.9907
 3982TIP3   OH236140   6.489   0.081   8.204 -0.1331 -0.1277  0.5144
 3982TIP3    H136141   6.410   0.027   8.201 -0.0311 -0.2276 -0.7634
 3982TIP3    H236142   6.457   0.171   8.212 -0.3953 -0.1235 -0.5459
 3983TIP3   OH236143   7.142   3.709   9.162 -0.0605 -0.0069 -0.0093
 3983TIP3    H136144   7.066   3.671   9.206 -0.0898  0.5634  0.4534
 3983TIP3    H236145   7.108   3.787   9.118 -0.2512 -1.1711 -2.0022
 3984TIP3   OH236146   5.241   3.337   8.307  0.9447  0.1702  0.0795
 3984TIP3    H136147   5.246   3.346   8.212  1.0652 -2.0074 -0.1750
 3984TIP3    H236148   5.152   3.366   8.329  0.3355 -0.8625 -0.9281
 3985TIP3   OH236149   1.085   7.330   8.222 -0.4036  0.3145 -0.1098
 3985TIP3    H136150   1.151   7.260   8.220 -0.5187  0.2105 -2.2193
 3985TIP3    H236151   1.126   7.402   8.175 -0.9326  1.1040  0.6110
 3986TIP3   OH236152   0.064   1.444   7.626  0.0048 -0.6786 -0.3191
 3986TIP3    H136153  -0.027   1.433   7.654  0.3862 -0.2336  1.2055
 3986TIP3    H236154   0.112   1.457   7.708  1.4977 -1.2588 -1.0800
 3987TIP3   OH236155   4.165   6.318   8.262  0.1195 -0.4611 -0.0357
 3987TIP3    H136156   4.082   6.339   8.304  0.1403  0.2670 -0.3330
 3987TIP3    H236157   4.142   6.261   8.189 -0.0419 -0.8140  0.2899
 3988TIP3   OH236158   7.355   1.475   7.144 -0.0538  0.2586 -0.2831
 3988TIP3    H136159   7.295   1.409   7.112  0.2589 -0.6180  0.8518
 3988TIP3    H236160   7.436   1.460   7.095  0.2350 -0.6893  0.4281
 3989TIP3   OH236161   5.983   5.380   9.137  0.3280 -0.2582  0.1588
 3989TIP3    H136162   6.061   5.339   9.173 -0.0760 -1.6001 -0.4259
 3989TIP3    H236163   6.016   5.436   9.067  0.8577  0.1108  0.6951
 3990TIP3   OH236164   0.781   0.485   8.709  0.2485  0.2317 -0.2684
 3990TIP3    H136165   0.693   0.521   8.722 -0.1196 -0.0712 -1.7252
 3990TIP3    H236166   0.800   0.438   8.790 -1.5813 -1.0059 -0.4943
 3991TIP3   OH236167   7.532   0.444   8.606  0.3199  0.0017 -0.2803
 3991TIP3    H136168   7.503   0.380   8.671 -1.0846  0.4785 -0.4002
 3991TIP3    H236169   7.605   0.489   8.647  0.6564 -0.9656  0.2206
 3992TIP3   OH236170   3.862   6.422   7.689  0.0258  0.0756 -0.7997
 3992TIP3    H136171   3.953   6.430   7.662  0.5845  0.3203  1.0355
 3992TIP3    H236172   3.856   6.335   7.728 -0.2972  0.3695 -0.1741
 3993TIP3   OH236173   2.331   4.901   6.753 -0.5875  0.3187  0.0452
 3993TIP3    H136174   2.321   4.979   6.807 -0.9247  0.4144 -0.1511
 3993TIP3    H236175   2.423   4.900   6.727 -0.7399  1.0423 -0.5464
 3994TIP3   OH236176   5.236   4.677   9.162 -0.0427  0.0494 -0.0402
 3994TIP3    H136177   5.197   4.697   9.248 -0.1903 -1.4068  0.2749
 3994TIP3    H236178   5.189   4.598   9.134  1.3060 -0.5835 -0.5859
 3995TIP3   OH236179   4.077   5.351   7.502 -0.5799 -0.3461  0.1420
 3995TIP3    H136180   4.157   5.322   7.545 -0.0191  1.0695  0.0776
 3995TIP3    H236181   4.087   5.323   7.411 -0.0251  0.0899  0.0674
 3996TIP3   OH236182   6.879   4.351   7.167  0.5565 -0.1963 -0.1257
 3996TIP3    H136183   6.885   4.428   7.224  2.4414 -0.0937 -0.4082
 3996TIP3    H236184   6.939   4.370   7.095  1.0968 -1.9428 -0.1809
 3997TIP3   OH236185   3.264   3.158   9.193  0.4248  0.1034  0.3912
 3997TIP3    H136186   3.250   3.064   9.190  0.8833  0.0005  1.2219
 3997TIP3    H236187   3.355   3.171   9.166  0.4175  0.2890  0.4499
 3998TIP3   OH236188   4.843   5.286   8.295 -0.0357 -0.6666 -0.2103
 3998TIP3    H136189   4.792   5.207   8.277 -0.2318 -0.5166 -0.3025
 3998TIP3    H236190   4.890   5.304   8.214 -1.1663  0.1944 -0.7010
 3999TIP3   OH236191   6.915   6.218   7.373 -0.1287 -0.0886 -0.5562
 3999TIP3    H136192   6.960   6.142   7.336  0.7922  0.7862 -1.2916
 3999TIP3    H236193   6.973   6.249   7.442 -0.1715  0.3453 -0.7144
 4000TIP3   OH236194   4.741   6.219   7.514  0.1361  0.4044 -0.2573
 4000TIP3    H136195   4.759   6.276   7.439 -2.8336 -0.3030 -1.6143
 4000TIP3    H236196   4.794   6.141   7.497  0.7727  0.9151 -0.7142
 4001TIP3   OH236197   6.538   1.000   9.074 -0.8181 -0.3556 -0.3419
 4001TIP3    H136198   6.454   1.031   9.105 -1.0555 -1.0404 -0.2703
 4001TIP3    H236199   6.574   1.072   9.023 -1.1696  0.1643  0.1424
 4002TIP3   OH236200   0.978   1.361   8.003 -0.1789  0.1204 -0.1349
 4002TIP3    H136201   0.933   1.292   8.051  0.4413 -0.3486 -0.2125
 4002TIP3    H236202   1.011   1.420   8.071 -2.3956  1.4391 -0.1372
 4003TIP3   OH236203   4.606   3.461   7.670 -0.0120 -0.8238 -0.3453
 4003TIP3    H136204   4.521   3.455   7.714 -0.9201  0.3273 -1.8313
 4003TIP3    H236205   4.587   3.439   7.579  0.9243  1.0525 -1.0541
 4004TIP3   OH236206   4.135   1.238   8.062  0.0728 -0.0029 -0.1526
 4004TIP3    H136207   4.065   1.266   8.120 -0.5692  0.0174 -0.9286
 4004TIP3    H236208   4.214   1.279   8.098 -0.0120 -1.3485  1.6857
 4005TIP3   OH236209   2.940   4.798   6.909 -0.3804 -0.3290 -0.1790
 4005TIP3    H136210   2.974   4.771   6.995  0.5984  0.6613 -0.2405
 4005TIP3    H236211   3.010   4.775   6.847 -0.6235 -0.0414 -0.5653
 4006TIP3   OH236212   3.117   5.058   8.610 -0.1735  0.2933  0.8252
 4006TIP3    H136213   3.057   5.132   8.622 -0.8319 -0.2966  1.2281
 4006TIP3    H236214   3.086   5.013   8.532  0.4270  0.6135  0.3885
 4007TIP3   OH236215   3.343   5.672   9.290 -0.4853 -0.7905 -0.0813
 4007TIP3    H136216   3.340   5.762   9.257 -2.6655 -0.5183  0.7101
 4007TIP3    H236217   3.271   5.627   9.245 -1.6327 -1.1799  2.0357
 4008TIP3   OH236218   1.344   6.512   8.563  0.1878 -0.0158  0.2772
 4008TIP3    H136219   1.425   6.484   8.607  0.8575 -0.3742 -1.1135
 4008TIP3    H236220   1.287   6.540   8.634  0.6531 -1.9669  1.5039
 4009TIP3   OH236221   2.995   1.452   9.549  0.3323  0.6950  0.1247
 4009TIP3    H136222   2.983   1.472   9.642  0.0167 -0.4561  0.3441
 4009TIP3    H236223   3.087   1.425   9.542 -0.3758 -2.3206  0.7591
 4010TIP3   OH236224   3.343   4.195   7.690  0.1845 -0.3169 -1.0561
 4010TIP3    H136225   3.419   4.143   7.716 -0.2581 -0.7669 -0.6445
 4010TIP3    H236226   3.292   4.137   7.634 -0.4001 -0.3966 -0.4576
 4011TIP3   OH236227   7.103   6.562   8.040  0.8356 -0.6765 -0.3411
 4011TIP3    H136228   7.191   6.575   8.074  1.0431 -0.8204 -0.8119
 4011TIP3    H236229   7.075   6.478   8.077  0.4271 -0.0860  0.7561
 4012TIP3   OH236230   6.284   1.506   9.568 -0.2153 -0.2201  0.0358
 4012TIP3    H136231   6.229   1.436   9.532 -0.4303  0.0136 -0.0923
 4012TIP3    H236232   6.340   1.461   9.632 -0.8153 -0.4081  0.4482
 4013TIP3   OH236233   1.428   4.871   6.791 -0.6187 -0.7041 -0.1993
 4013TIP3    H136234   1.406   4.962   6.773  0.4136 -0.3081  0.4445
 4013TIP3    H236235   1.344   4.829   6.809 -0.9621  0.5897  1.5213
 4014TIP3   OH236236   0.075   5.950   7.289 -0.4134  0.0219  0.2017
 4014TIP3    H136237   0.016   6.022   7.271 -0.8964  0.1808  2.1951
 4014TIP3    H236238   0.135   5.983   7.356 -0.5199 -1.3401  1.0195
 4015TIP3   OH236239   4.855   3.731   8.539 -0.4745 -0.5301 -0.5651
 4015TIP3    H136240   4.902   3.651   8.564 -0.1759 -0.4269 -0.7867
 4015TIP3    H236241   4.783   3.738   8.602 -1.0371 -1.4589 -1.0792
 4016TIP3   OH236242   7.164   4.863   9.517  0.0443  0.0753 -0.4459
 4016TIP3    H136243   7.093   4.894   9.573  2.5017 -0.9137  3.6332
 4016TIP3    H236244   7.206   4.943   9.484  0.3098  0.9061  1.7355
 4017TIP3   OH236245   5.641   4.477   7.092 -0.2178 -0.0806 -0.2738
 4017TIP3    H136246   5.692   4.548   7.053  0.0104  0.5113  1.0667
 4017TIP3    H236247   5.651   4.488   7.186 -2.0188 -0.5509  0.0141
 4018TIP3   OH236248   2.221   6.761   8.907  0.1638  0.0515  1.0087
 4018TIP3    H136249   2.236   6.837   8.964 -0.7148  1.3003 -0.3609
 4018TIP3    H236250   2.254   6.687   8.958  1.4504  1.3766  2.2172
 4019TIP3   OH236251   3.430   1.418   6.965  0.3784  0.1416 -0.0488
 4019TIP3    H136252   3.364   1.480   6.934 -0.3211 -0.5343  0.0612
 4019TIP3    H236253   3.417   1.340   6.910 -1.1279 -1.2312  2.1121
 4020TIP3   OH236254   2.321   5.411   7.040 -0.4684 -0.0141  0.3690
 4020TIP3    H136255   2.325   5.476   7.110 -0.5240  0.6799 -0.2556
 4020TIP3    H236256   2.395   5.433   6.983 -0.5330 -0.4501  0.1115
 4021TIP3   OH236257   1.583   0.476   7.226  0.4845  0.2930  0.4033
 4021TIP3    H136258   1.619   0.496   7.140  0.1155  0.4878  0.2958
 4021TIP3    H236259   1.660   0.474   7.284  0.7463  0.0330  0.0498
 4022TIP3   OH236260   4.825   1.100   9.267 -0.3493  0.4491  0.0922
 4022TIP3    H136261   4.847   1.032   9.331 -0.0118  0.2353 -0.2520
 4022TIP3    H236262   4.770   1.055   9.203 -1.0048  0.7538  0.4306
 4023TIP3   OH236263   6.238   7.656   8.183  0.7673  0.2953  0.1709
 4023TIP3    H136264   6.209   7.643   8.273  2.2094  1.8285  0.9084
 4023TIP3    H236265   6.162   7.692   8.137  0.1397 -0.1292  0.8652
 4024TIP3   OH236266   4.970   2.900   7.948 -0.0439 -0.9142  0.1298
 4024TIP3    H136267   4.876   2.895   7.968 -0.0185 -1.2206  0.1770
 4024TIP3    H236268   5.013   2.886   8.032  0.0398 -0.0785  0.2329
 4025TIP3   OH236269   4.409   1.678   7.035 -0.6333 -0.4228  0.4774
 4025TIP3    H136270   4.448   1.634   6.961 -0.7717 -1.0306  0.7611
 4025TIP3    H236271   4.320   1.701   7.005 -0.2511  0.5081  0.0108
 4026TIP3   OH236272   3.630   2.493   6.925  0.7849  0.2249 -0.0267
 4026TIP3    H136273   3.680   2.416   6.950  1.2783  0.5222 -0.0770
 4026TIP3    H236274   3.577   2.465   6.851  0.4863 -0.2391  0.3641
 4027TIP3   OH236275   7.365   5.073   9.496  0.3933 -0.3080  0.1494
 4027TIP3    H136276   7.434   5.009   9.479 -0.5757 -1.1046 -1.0203
 4027TIP3    H236277   7.410   5.149   9.531  1.6078 -1.5641  1.4247
 4028TIP3   OH236278   4.558   0.348   9.035 -0.1447  0.1242  0.4107
 4028TIP3    H136279   4.518   0.299   9.107  0.3693 -1.1001 -0.1000
 4028TIP3    H236280   4.624   0.404   9.077  0.5220 -0.9686  0.8590
 4029TIP3   OH236281   5.062   3.942   6.622  0.0744 -0.7153  0.7838
 4029TIP3    H136282   5.070   3.896   6.706 -0.1007 -1.6011  0.3357
 4029TIP3    H236283   5.039   3.873   6.560  1.4682 -0.3042 -0.2365
 4030TIP3   OH236284   1.087   6.508   9.313 -0.3349  0.0464 -0.4965
 4030TIP3    H136285   0.997   6.485   9.335 -0.2216  1.1909  1.3494
 4030TIP3    H236286   1.140   6.441   9.355 -0.2146  1.1839  1.2839
 4031TIP3   OH236287   0.101   0.822   6.825  0.1062  0.0244 -0.0352
 4031TIP3    H136288   0.190   0.849   6.846 -0.2832  0.3444  1.3763
 4031TIP3    H236289   0.049   0.902   6.833 -0.2327 -0.0490 -1.3875
 4032TIP3   OH236290   3.730   3.817   8.521 -0.1171  0.7497 -0.1100
 4032TIP3    H136291   3.706   3.906   8.546  0.7649  0.7966  0.6491
 4032TIP3    H236292   3.682   3.800   8.440 -2.7949  0.7280  1.3983
 4033TIP3   OH236293   5.474   3.717   7.387  0.4838 -0.1324  0.0814
 4033TIP3    H136294   5.439   3.699   7.475  3.2953  0.1773  1.3777
 4033TIP3    H236295   5.505   3.632   7.356  0.1209 -0.1154 -0.3435
 4034TIP3   OH236296   4.214   7.454   7.428 -0.6283 -0.1201 -0.0663
 4034TIP3    H136297   4.225   7.543   7.463 -0.2011 -0.3086  0.2872
 4034TIP3    H236298   4.134   7.422   7.469 -2.9740  1.4476 -3.0309
 4035TIP3   OH236299   6.155   2.265   6.701  0.4762  0.0927  0.1141
 4035TIP3    H136300   6.184   2.349   6.736  0.8263 -0.1005  0.2944
 4035TIP3    H236301   6.105   2.225   6.772  2.5070 -0.9871  0.9972
 4036TIP3   OH236302   4.034   4.819   7.833 -0.0952 -0.0873  0.4227
 4036TIP3    H136303   4.109   4.828   7.892 -0.7792 -0.2749  1.3484
 4036TIP3    H236304   4.059   4.750   7.772  0.7058  0.2459  0.3654
 4037TIP3   OH236305   0.043   2.614   6.734  0.3932  0.0586 -0.0031
 4037TIP3    H136306   0.082   2.526   6.727  0.9687  0.1283  1.6815
 4037TIP3    H236307   0.083   2.664   6.663  0.0134 -1.0326 -1.0289
 4038TIP3   OH236308   5.070   7.674   7.816  0.0437 -0.0166  0.3155
 4038TIP3    H136309   5.152   7.667   7.768 -0.1715  0.4739 -0.1277
 4038TIP3    H236310   5.077   7.757   7.863 -1.3143  1.3984 -1.8617
 4039TIP3   OH236311   4.660   1.946   8.934 -0.7618 -0.2332 -0.2410
 4039TIP3    H136312   4.571   1.910   8.939 -0.4573 -0.9338  0.3330
 4039TIP3    H236313   4.717   1.871   8.954 -0.1336  0.6299  1.4033
 4040TIP3   OH236314   1.788   0.411   8.299 -0.9004  1.0876 -0.0674
 4040TIP3    H136315   1.851   0.461   8.246  0.3278  0.3528  0.6426
 4040TIP3    H236316   1.843   0.359   8.358 -2.1932  0.3603  0.5307
 4041TIP3   OH236317   0.519   3.146   8.591  0.4231  0.0329 -0.4067
 4041TIP3    H136318   0.493   3.116   8.678  0.8869 -1.4666 -0.7480
 4041TIP3    H236319   0.465   3.095   8.531  1.3959 -0.3247 -1.0202
 4042TIP3   OH236320   5.648   2.349   9.600  0.4383 -0.0350 -0.1387
 4042TIP3    H136321   5.687   2.429   9.564 -0.5119  0.3182 -0.4342
 4042TIP3    H236322   5.713   2.281   9.584  0.7443  0.4406 -1.0239
 4043TIP3   OH236323   2.208   2.159   9.052  0.1188 -0.5262  0.5060
 4043TIP3    H136324   2.179   2.203   8.972  1.0241 -0.1487  0.3744
 4043TIP3    H236325   2.181   2.218   9.123  0.7625 -0.0531  0.3688
 4044TIP3   OH236326   6.674   5.710   9.153  0.1797 -0.0255 -0.2089
 4044TIP3    H136327   6.723   5.778   9.107  2.5518 -0.6846  1.1895
 4044TIP3    H236328   6.589   5.750   9.170  0.4019  1.4253 -2.1476
 4045TIP3   OH236329   4.223   0.864   7.946  0.5871 -0.1119 -0.1340
 4045TIP3    H136330   4.198   0.852   7.854 -0.3409  0.9020 -0.0343
 4045TIP3    H236331   4.162   0.808   7.995 -0.2603  0.8807 -0.0203
 4046TIP3   OH236332   4.997   3.453   8.364  0.0719  0.0849 -0.4397
 4046TIP3    H136333   4.996   3.472   8.457  0.6366  2.0948 -0.7966
 4046TIP3    H236334   4.931   3.384   8.352  0.1640 -0.3757  1.4438
 4047TIP3   OH236335   4.880   7.150   7.088  1.0749  0.1221 -0.0234
 4047TIP3    H136336   4.952   7.142   7.152 -0.4525 -0.4672  1.7064
 4047TIP3    H236337   4.833   7.067   7.095  1.5642 -0.4902 -2.9123
 4048TIP3   OH236338   0.853   0.166   7.845  0.4995  0.0842  0.2397
 4048TIP3    H136339   0.943   0.169   7.876 -0.1174  0.2517  2.1866
 4048TIP3    H236340   0.821   0.079   7.871 -0.6929  1.0263  2.1658
 4049TIP3   OH236341   2.303   6.764   9.246 -0.4557  0.3416 -0.3340
 4049TIP3    H136342   2.319   6.858   9.240  1.4014  0.2427  1.7257
 4049TIP3    H236343   2.374   6.724   9.197  0.8187  0.0166  1.6729
 4050TIP3   OH236344   6.820   2.210   8.605 -0.0940  0.0531  0.3226
 4050TIP3    H136345   6.833   2.126   8.560 -0.1595  0.8971 -1.3146
 4050TIP3    H236346   6.889   2.211   8.672 -1.5237 -2.3264  2.0023
 4051TIP3   OH236347   4.629   0.976   8.371  0.0785  0.0276  0.2982
 4051TIP3    H136348   4.636   0.965   8.466  0.3812  0.0465  0.2794
 4051TIP3    H236349   4.652   1.067   8.355  2.0901 -0.4678  0.0167
 4052TIP3   OH236350   2.562   2.709   9.624 -0.9715 -0.2446 -0.2463
 4052TIP3    H136351   2.599   2.674   9.543 -0.9739  0.5591 -0.6100
 4052TIP3    H236352   2.468   2.694   9.616 -0.7865 -2.0286  0.5499
 4053TIP3   OH236353   4.266   6.504   8.439  0.3892  0.1073  0.2260
 4053TIP3    H136354   4.349   6.541   8.411  0.3488 -0.6619 -0.9860
 4053TIP3    H236355   4.239   6.448   8.366 -1.9774  1.5599 -0.0948
 4054TIP3   OH236356   6.062   3.364   9.056  0.0190 -0.4153  0.0440
 4054TIP3    H136357   6.104   3.377   9.142 -1.2086 -0.6410  0.7007
 4054TIP3    H236358   6.048   3.269   9.051 -2.2972 -0.1841  0.8061
 4055TIP3   OH236359   7.236   2.363   8.928 -0.1584 -0.5770 -0.6312
 4055TIP3    H136360   7.229   2.404   8.842 -3.2406  0.7090  0.0790
 4055TIP3    H236361   7.198   2.427   8.988 -0.3443 -2.4159  1.3329
 4056TIP3   OH236362   0.101   6.368   9.155  0.5822  0.1817 -0.0774
 4056TIP3    H136363   0.066   6.280   9.169 -1.3463  0.9467  0.2753
 4056TIP3    H236364   0.172   6.356   9.092 -0.7856 -1.4277 -1.4209
 4057TIP3   OH236365   5.248   3.258   6.717 -0.0168 -0.1778 -0.2213
 4057TIP3    H136366   5.257   3.331   6.656 -1.7303 -1.6351 -2.3546
 4057TIP3    H236367   5.308   3.192   6.684 -0.9700 -0.9842 -0.3881
 4058TIP3   OH236368   4.632   1.121   8.078  0.2223 -0.2956 -0.1083
 4058TIP3    H136369   4.547   1.086   8.104  1.3561 -2.1192  1.3907
 4058TIP3    H236370   4.643   1.199   8.134 -0.8365  0.5539 -1.0274
 4059TIP3   OH236371   7.171   6.919   8.164 -0.2146 -0.6109 -0.9060
 4059TIP3    H136372   7.227   6.985   8.203  0.8452 -0.5850 -2.4114
 4059TIP3    H236373   7.192   6.838   8.211 -0.0347 -0.3003 -0.4489
 4060TIP3   OH236374   5.347   4.347   7.576  0.4616 -0.0542 -0.1619
 4060TIP3    H136375   5.321   4.343   7.668 -1.8605 -0.4039 -0.7662
 4060TIP3    H236376   5.392   4.431   7.568 -0.7032  0.7325  0.9913
 4061TIP3   OH236377   0.358   1.748   7.996 -0.0177 -0.7206  0.5921
 4061TIP3    H136378   0.448   1.757   7.965  0.3384  0.2354  1.8036
 4061TIP3    H236379   0.366   1.751   8.091 -1.4018  0.1067  0.7002
 4062TIP3   OH236380   6.801   7.406   9.294 -0.5001  0.4742 -0.4319
 4062TIP3    H136381   6.810   7.403   9.199  0.6794 -0.6463 -0.3126
 4062TIP3    H236382   6.727   7.348   9.313 -0.8424  0.8291 -0.6653
 4063TIP3   OH236383   1.257   2.577   7.662  0.0300 -0.4169 -0.2211
 4063TIP3    H136384   1.279   2.662   7.699  1.2104 -1.1968  0.9450
 4063TIP3    H236385   1.291   2.580   7.573  1.6792 -0.2735  0.3784
 4064TIP3   OH236386   1.084   2.909   9.947 -0.4477  0.0615  0.3819
 4064TIP3    H136387   1.085   2.865  10.032  0.2505  0.7638  0.7522
 4064TIP3    H236388   1.144   2.982   9.957 -1.2232  0.8320 -0.3700
 4065TIP3   OH236389   5.827   4.264   8.781 -0.0385  0.0045 -0.3274
 4065TIP3    H136390   5.746   4.229   8.819 -0.5900  1.2666 -0.2908
 4065TIP3    H236391   5.797   4.329   8.718  0.9488  2.7476  1.8683
 4066TIP3   OH236392   4.556   5.620   8.199 -0.2499 -0.4401 -0.0124
 4066TIP3    H136393   4.505   5.542   8.219  0.5393 -0.8051  0.6481
 4066TIP3    H236394   4.569   5.617   8.104 -0.4641 -0.9663 -0.0294
 4067TIP3   OH236395   5.517   2.342   7.455  0.7567 -0.6599 -0.2543
 4067TIP3    H136396   5.451   2.294   7.405 -0.6404  1.6769 -0.7903
 4067TIP3    H236397   5.593   2.344   7.397  0.5858 -1.5604 -0.5219
 4068TIP3   OH236398   4.955   1.242   9.086 -0.5561 -0.1297  0.1703
 4068TIP3    H136399   4.920   1.194   9.161 -0.4869 -2.1151 -0.9982
 4068TIP3    H236400   4.916   1.200   9.010 -0.7031  1.8974 -0.9408
 4069TIP3   OH236401   2.988   3.446   7.465 -0.2022 -0.1808  0.1549
 4069TIP3    H136402   3.013   3.498   7.541 -0.7880  1.2610 -0.5893
 4069TIP3    H236403   2.894   3.465   7.453 -0.1795 -0.5854 -0.7594
 4070TIP3   OH236404   2.247   0.493   8.010  0.3559  0.3913  0.5990
 4070TIP3    H136405   2.175   0.494   8.073 -0.2977 -1.0421 -0.0690
 4070TIP3    H236406   2.255   0.584   7.981 -0.1838  0.8351  1.7902
 4071TIP3   OH236407   4.011   6.381   7.963 -0.1141 -0.1160 -1.3144
 4071TIP3    H136408   4.074   6.448   7.987  1.2134 -2.3488  2.0498
 4071TIP3    H236409   4.061   6.316   7.913 -1.0693  0.5760 -3.2956
 4072TIP3   OH236410   5.953   2.112   8.617 -0.2784  0.0667  0.1618
 4072TIP3    H136411   5.985   2.034   8.662  2.4922  0.1229 -1.4762
 4072TIP3    H236412   5.968   2.184   8.679  1.1104 -0.1894  0.1480
 4073TIP3   OH236413   1.756   2.767   8.264  0.3937  0.2006 -0.1816
 4073TIP3    H136414   1.825   2.832   8.280  2.2436 -1.7734  0.3459
 4073TIP3    H236415   1.719   2.749   8.350  0.7103 -0.2771 -0.1390
 4074TIP3   OH236416   3.543   6.694   8.402 -0.0190  0.1552 -0.1021
 4074TIP3    H136417   3.539   6.617   8.346 -0.3106 -0.8810  1.2966
 4074TIP3    H236418   3.630   6.690   8.441 -0.5703 -0.3097  1.1096
 4075TIP3   OH236419   1.603   4.827   8.613 -0.4572  0.1228 -0.7416
 4075TIP3    H136420   1.624   4.804   8.522  0.2852 -1.6925 -0.1501
 4075TIP3    H236421   1.516   4.866   8.608 -1.2712 -1.7087 -2.0511
 4076TIP3   OH236422   3.228   4.770   8.401  0.2656  0.1466 -1.0232
 4076TIP3    H136423   3.150   4.827   8.402  1.1845  1.5216  1.1443
 4076TIP3    H236424   3.195   4.685   8.373 -2.4059  0.2604  1.3173
 4077TIP3   OH236425   7.595   7.005   7.210 -0.2960 -0.3136 -0.6723
 4077TIP3    H136426   7.644   7.087   7.202 -0.3861 -0.4278 -3.4522
 4077TIP3    H236427   7.653   6.938   7.172 -1.0241 -1.1730 -0.3102
 4078TIP3   OH236428   5.530   2.872   8.587 -0.2006  0.1295  0.2265
 4078TIP3    H136429   5.518   2.868   8.682  0.2418  0.1723  0.2854
 4078TIP3    H236430   5.601   2.811   8.569  0.1837  0.6310  0.0117
 4079TIP3   OH236431   5.505   0.846   8.217  0.1228  0.0437 -0.6511
 4079TIP3    H136432   5.591   0.824   8.180 -0.0420 -0.5861 -0.6691
 4079TIP3    H236433   5.465   0.761   8.237 -0.4087  0.3397 -0.4409
 4080TIP3   OH236434   7.300   0.466   6.748  0.6003  0.3745 -0.4331
 4080TIP3    H136435   7.287   0.553   6.710 -0.0415  0.9692  1.0962
 4080TIP3    H236436   7.259   0.407   6.685  1.5507  1.0801 -1.7849
 4081TIP3   OH236437   1.393   4.734   9.548 -0.8148  0.2447 -0.0077
 4081TIP3    H136438   1.471   4.780   9.516 -0.8063  0.8489  0.8637
 4081TIP3    H236439   1.331   4.804   9.569 -1.7116 -0.2382 -0.9684
 4082TIP3   OH236440   2.244   2.918   9.437 -0.1413 -0.1006  0.1081
 4082TIP3    H136441   2.149   2.914   9.444 -0.3351  0.1978 -1.8184
 4082TIP3    H236442   2.267   3.006   9.465 -0.8524  1.0649 -2.6400
 4083TIP3   OH236443   1.936   7.209   8.418  0.0376  0.1228 -0.3958
 4083TIP3    H136444   1.963   7.122   8.446  0.5687  0.5289  0.3574
 4083TIP3    H236445   2.010   7.243   8.368 -1.3106 -1.0635 -3.4910
 4084TIP3   OH236446   5.677   4.685   8.105  0.7001 -0.3905  0.2700
 4084TIP3    H136447   5.638   4.700   8.019  0.7831  0.5309  0.3773
 4084TIP3    H236448   5.609   4.711   8.167  1.2699  0.7333  0.4602
 4085TIP3   OH236449   2.750   6.298   8.110 -0.3551  0.5475  0.5145
 4085TIP3    H136450   2.800   6.327   8.034 -0.3618  0.3165  0.4221
 4085TIP3    H236451   2.783   6.353   8.182  1.0042 -0.5021  0.7400
 4086TIP3   OH236452   5.846   1.934   7.893  0.2920 -0.4675  0.6455
 4086TIP3    H136453   5.797   1.854   7.875 -1.0875  0.2454  1.0874
 4086TIP3    H236454   5.823   1.956   7.983  0.1785  0.7461  0.3324
 4087TIP3   OH236455   7.132   0.658   8.190 -0.2361 -0.0234  0.1032
 4087TIP3    H136456   7.078   0.726   8.231  2.3138  1.0824  1.8852
 4087TIP3    H236457   7.201   0.641   8.254  0.8817 -2.2125 -1.5689
 4088TIP3   OH236458   6.741   1.980   9.348 -0.7569 -0.1442 -0.1500
 4088TIP3    H136459   6.802   1.907   9.339  0.8153  0.7803  2.0760
 4088TIP3    H236460   6.677   1.949   9.413  0.0847  0.5034  1.0230
 4089TIP3   OH236461   4.527   6.675   6.894  0.1535 -0.6189 -0.7637
 4089TIP3    H136462   4.578   6.639   6.966  0.3802 -0.2059 -0.7202
 4089TIP3    H236463   4.446   6.624   6.895  0.4020 -1.0171 -0.5964
 4090TIP3   OH236464   4.452   6.426   8.681  0.0662  0.1252 -0.5679
 4090TIP3    H136465   4.387   6.361   8.655  0.8559 -0.8830 -0.1061
 4090TIP3    H236466   4.401   6.501   8.712 -1.0153 -1.7843  2.7772
 4091TIP3   OH236467   3.085   5.124   7.589  0.2190  0.1121 -0.1717
 4091TIP3    H136468   3.098   5.039   7.632  1.6020 -0.2640 -1.2629
 4091TIP3    H236469   3.009   5.162   7.633  0.5114 -1.0175  1.3719
 4092TIP3   OH236470   4.060   0.090   8.700  0.2063 -0.2196 -0.1984
 4092TIP3    H136471   4.095   0.172   8.665 -1.1559  0.2808 -0.4699
 4092TIP3    H236472   3.981   0.074   8.649 -0.9021 -0.3818  1.4738
 4093TIP3   OH236473   4.891   4.106   9.017 -0.0518  0.8533  0.1498
 4093TIP3    H136474   4.918   4.144   9.101  1.3027 -0.0490  0.1484
 4093TIP3    H236475   4.833   4.034   9.041  0.1037  0.7800  0.3126
 4094TIP3   OH236476   6.261   6.980   7.539  0.0194 -0.1902  0.1791
 4094TIP3    H136477   6.227   7.069   7.531 -0.7389 -0.3881  1.0153
 4094TIP3    H236478   6.341   6.990   7.592 -0.0024 -0.0022  0.1793
 4095TIP3   OH236479   5.324   4.928   8.219  0.1662 -0.1435  0.0411
 4095TIP3    H136480   5.394   4.865   8.201  0.4667 -0.4933  2.1619
 4095TIP3    H236481   5.368   5.002   8.260 -0.5188  0.2631  0.0528
 4096TIP3   OH236482   2.794   3.443   9.086  0.5687  0.0847  0.3165
 4096TIP3    H136483   2.851   3.409   9.155  0.8082  0.7597  0.4595
 4096TIP3    H236484   2.802   3.538   9.093 -0.0864  0.1754 -0.0768
 4097TIP3   OH236485   4.454   4.393   8.948 -0.0245  0.2926 -0.5289
 4097TIP3    H136486   4.517   4.375   8.878  0.3923  2.2648 -0.7126
 4097TIP3    H236487   4.506   4.433   9.018 -0.0784 -3.2576  1.8054
 4098TIP3   OH236488   3.921   1.096   8.568 -0.1294  0.3391  0.1467
 4098TIP3    H136489   3.844   1.088   8.625 -0.0929  0.9709  0.2931
 4098TIP3    H236490   3.946   1.006   8.549  2.3939 -0.1738  4.5185
 4099TIP3   OH236491   5.608   4.832   7.210  0.8747 -0.2528  0.0798
 4099TIP3    H136492   5.520   4.809   7.241  1.0035 -1.9288 -0.6800
 4099TIP3    H236493   5.666   4.769   7.252  1.1572 -2.0085 -2.6323
 4100TIP3   OH236494   4.425   3.061   8.985  0.2269 -0.1976 -0.1603
 4100TIP3    H136495   4.456   2.984   8.937 -2.0037 -0.3931 -1.4160
 4100TIP3    H236496   4.342   3.034   9.025  0.3328  1.0106  0.9840
 4101TIP3   OH236497   6.956   6.367   9.226 -0.0731  0.1165  0.2516
 4101TIP3    H136498   6.991   6.446   9.267  0.5470  0.6229 -1.1764
 4101TIP3    H236499   7.033   6.315   9.203 -0.4476 -0.5762  0.5330
 4102TIP3   OH236500   4.585   1.407   8.161 -0.2878 -0.0322 -0.3618
 4102TIP3    H136501   4.626   1.469   8.221 -1.4674  0.7874 -0.3676
 4102TIP3    H236502   4.636   1.414   8.080 -0.3404  0.8802 -0.3291
 4103TIP3   OH236503   3.152   2.509   9.455 -0.3512  0.5623  0.4726
 4103TIP3    H136504   3.247   2.522   9.453 -0.4450  1.8885  2.2416
 4103TIP3    H236505   3.119   2.583   9.506 -2.6495  1.6418 -2.3006
 4104TIP3   OH236506   5.177   0.183   6.946  0.4191 -0.3582 -0.0601
 4104TIP3    H136507   5.202   0.272   6.922  1.9693 -1.0077 -1.0401
 4104TIP3    H236508   5.186   0.133   6.865 -0.0221 -1.4987  0.5635
 4105TIP3   OH236509   1.057   2.774   8.188  0.1797 -0.0976  0.0052
 4105TIP3    H136510   0.991   2.843   8.193 -0.0145 -0.3699  2.0962
 4105TIP3    H236511   1.007   2.692   8.197  0.6113 -0.4075 -0.3890
 4106TIP3   OH236512   3.467   1.189   8.755  0.0853 -1.2661  0.0488
 4106TIP3    H136513   3.468   1.252   8.827 -0.4871 -0.8183 -0.3231
 4106TIP3    H236514   3.379   1.152   8.756 -0.1197 -0.8355 -0.7666
 4107TIP3   OH236515   2.184   4.325   7.803 -0.1777 -0.1853 -0.1889
 4107TIP3    H136516   2.124   4.268   7.852 -0.0025  1.6161  2.3294
 4107TIP3    H236517   2.134   4.352   7.726 -1.7691 -0.5522  0.6681
 4108TIP3   OH236518   6.773   7.373   7.554 -0.5073 -0.0251 -0.1016
 4108TIP3    H136519   6.761   7.441   7.489  0.4799 -1.1073 -1.4857
 4108TIP3    H236520   6.690   7.369   7.602 -0.8415  1.5793 -0.5155
 4109TIP3   OH236521   0.873   3.683   9.154 -0.0784  0.0857  0.0688
 4109TIP3    H136522   0.960   3.687   9.113  0.4243  1.4012  1.1750
 4109TIP3    H236523   0.830   3.765   9.127 -1.0502 -0.6045 -0.5584
 4110TIP3   OH236524   2.476   6.351   7.058 -0.6195 -0.0365 -0.0762
 4110TIP3    H136525   2.425   6.270   7.064  2.1460 -1.9139  0.3047
 4110TIP3    H236526   2.521   6.358   7.142 -0.1270  1.4284 -0.4297
 4111TIP3   OH236527   7.054   1.283   7.683 -0.3432  0.9057 -0.3791
 4111TIP3    H136528   7.102   1.366   7.675  2.1703 -0.4125 -0.1722
 4111TIP3    H236529   7.025   1.263   7.594  3.3722 -0.2755 -1.5208
 4112TIP3   OH236530   6.154   2.304   9.325  0.7065  0.1898 -0.1230
 4112TIP3    H136531   6.240   2.337   9.297  0.6147  1.3495  0.8802
 4112TIP3    H236532   6.170   2.213   9.350  2.1492  0.9636  2.1103
 4113TIP3   OH236533   5.049   1.002   8.578 -0.0596  0.3195  0.3057
 4113TIP3    H136534   5.089   0.950   8.647  1.3507  1.7475  0.6256
 4113TIP3    H236535   5.061   0.950   8.499  0.9113 -0.0632  0.6885
 4114TIP3   OH236536   2.926   6.512   8.934 -0.6021 -0.4298 -0.1978
 4114TIP3    H136537   2.909   6.604   8.952 -0.5984 -0.1247 -1.6488
 4114TIP3    H236538   3.018   6.509   8.908 -0.8505 -0.6783 -1.0902
 4115TIP3   OH236539   5.854   3.222   8.664 -0.4062 -0.3916  0.4772
 4115TIP3    H136540   5.772   3.262   8.691 -0.2197  0.5696 -0.3024
 4115TIP3    H236541   5.863   3.246   8.571  0.0448 -1.7097  0.1510
 4116TIP3   OH236542   2.917   0.413   9.400 -0.4693  0.3766  0.0283
 4116TIP3    H136543   3.006   0.385   9.376  0.1070  1.8906  0.2577
 4116TIP3    H236544   2.866   0.333   9.400  0.9134 -0.5442 -0.0671
 4117TIP3   OH236545   0.689   4.968   9.260 -0.9945  0.2852  0.3892
 4117TIP3    H136546   0.718   5.059   9.266 -0.0531  0.1039 -0.9413
 4117TIP3    H236547   0.633   4.966   9.182  0.5559 -0.6137 -0.7715
 4118TIP3   OH236548   3.185   6.133   7.607  0.5125  0.2136 -0.0966
 4118TIP3    H136549   3.220   6.214   7.645  1.2622 -1.1330  2.2829
 4118TIP3    H236550   3.224   6.130   7.520  3.7597  0.5242  1.1675
 4119TIP3   OH236551   4.420   2.629   8.627 -0.4192 -0.3079 -0.0528
 4119TIP3    H136552   4.451   2.539   8.622 -0.7202 -0.3445 -3.3922
 4119TIP3    H236553   4.325   2.620   8.640 -0.2600 -0.4052  1.1261
 4120TIP3   OH236554   1.170   5.578   6.831  0.9500  0.7523 -0.3042
 4120TIP3    H136555   1.179   5.483   6.823  2.2389  0.8859 -0.7781
 4120TIP3    H236556   1.083   5.592   6.867  0.8833 -0.6258  0.0985
 4121TIP3   OH236557   4.042   6.456   8.900  0.3533 -0.4892  0.2704
 4121TIP3    H136558   4.011   6.522   8.962  0.6531  0.5570 -0.6622
 4121TIP3    H236559   4.079   6.507   8.827  2.0978 -1.6914  0.2747
 4122TIP3   OH236560   5.804   5.098   6.836  0.2090  0.3712 -0.2610
 4122TIP3    H136561   5.818   5.033   6.767  1.1858 -1.3953  1.5260
 4122TIP3    H236562   5.726   5.067   6.882 -0.2038  1.3219 -0.2946
 4123TIP3   OH236563   1.408   4.337   8.372  0.1815  0.2643 -0.2226
 4123TIP3    H136564   1.348   4.305   8.439 -0.4744 -0.5302 -1.1730
 4123TIP3    H236565   1.357   4.402   8.323 -0.1498 -0.8976 -1.4563
 4124TIP3   OH236566   2.643   1.546   7.954 -0.4722 -0.0739 -0.2868
 4124TIP3    H136567   2.597   1.557   7.870  0.8736  0.1234 -1.0206
 4124TIP3    H236568   2.681   1.458   7.948  0.0742  0.1500 -0.1079
 4125TIP3   OH236569   3.725   2.868   9.675  0.2513 -0.5436  0.9788
 4125TIP3    H136570   3.666   2.939   9.698  1.5897  1.0012 -0.0786
 4125TIP3    H236571   3.671   2.805   9.627 -0.5996  0.6831  0.2934
 4126TIP3   OH236572   6.505   3.002   7.529 -0.0180  0.2543  0.1117
 4126TIP3    H136573   6.478   2.922   7.486 -0.5586  0.8162 -0.6285
 4126TIP3    H236574   6.545   3.055   7.460 -0.4129  0.9513  0.3991
 4127TIP3   OH236575   3.873   0.075   8.503 -0.3605 -0.3681  0.2030
 4127TIP3    H136576   3.903   0.161   8.473  0.5790 -0.6338  0.3218
 4127TIP3    H236577   3.924   0.013   8.450 -0.5623 -0.8458  0.5613
 4128TIP3   OH236578   1.831   3.471   7.696  0.4131  0.0168 -0.4023
 4128TIP3    H136579   1.759   3.462   7.633 -0.4307 -1.3509  0.6705
 4128TIP3    H236580   1.801   3.421   7.772  1.7000  1.0302  0.8157
 4129TIP3   OH236581   6.144   5.920   7.521  0.1247  0.2798  0.1674
 4129TIP3    H136582   6.188   5.989   7.571  5.1167 -1.7160 -0.9497
 4129TIP3    H236583   6.136   5.956   7.433  0.2304  0.3581  0.1897
 4130TIP3   OH236584   6.112   0.861   8.535  0.7249  0.5366  0.4575
 4130TIP3    H136585   6.042   0.922   8.511 -0.9327 -1.5660 -0.4211
 4130TIP3    H236586   6.098   0.844   8.628 -1.6424 -1.7147 -0.1807
 4131TIP3   OH236587   3.716   1.501   8.354  0.4388  0.0009 -0.2006
 4131TIP3    H136588   3.769   1.457   8.422  0.0476 -0.3287 -0.1055
 4131TIP3    H236589   3.776   1.565   8.316  0.6179  0.3185  0.5773
 4132TIP3   OH236590   0.676   6.618   8.475 -0.3429 -0.2257 -0.0606
 4132TIP3    H136591   0.621   6.563   8.419 -1.3712  0.2617  0.4430
 4132TIP3    H236592   0.643   6.602   8.563  0.4212 -0.0201  0.2695
 4133TIP3   OH236593   4.400   4.504   8.513  0.1497 -0.0347  0.2615
 4133TIP3    H136594   4.410   4.476   8.422  0.3701 -0.1300  0.3143
 4133TIP3    H236595   4.361   4.592   8.507 -2.2517 -1.0421  0.1344
 4134TIP3   OH236596   1.398   4.980   7.086  0.4166  0.0595  0.1350
 4134TIP3    H136597   1.377   4.981   6.992  0.9508  1.2653  0.0105
 4134TIP3    H236598   1.491   5.003   7.090  0.0337  1.6137  1.0131
 4135TIP3   OH236599   5.287   4.557   7.175 -0.1561  0.4880  0.0576
 4135TIP3    H136600   5.280   4.625   7.109  0.7002  0.8754  0.3544
 4135TIP3    H236601   5.212   4.499   7.158 -0.9374  1.5363 -0.1359
 4136TIP3   OH236602   7.090   4.440   8.532 -0.2825  0.1553 -1.0598
 4136TIP3    H136603   7.048   4.525   8.528 -1.2713 -0.2175  0.5287
 4136TIP3    H236604   7.184   4.459   8.532 -0.4968  1.2937  0.0768
 4137TIP3   OH236605   5.040   3.761   8.814 -0.3532  0.1673  0.1672
 4137TIP3    H136606   5.024   3.673   8.779  0.8115  0.0469 -0.0988
 4137TIP3    H236607   5.062   3.747   8.906  0.8210  0.0658 -0.1129
 4138TIP3   OH236608   7.261   1.146   9.291 -0.3578  0.1192 -0.0158
 4138TIP3    H136609   7.208   1.226   9.302  0.1240  0.5931 -0.9725
 4138TIP3    H236610   7.229   1.108   9.209  1.1938  0.7816 -0.9871
 4139TIP3   OH236611   2.285   2.397   7.512 -0.2440 -0.0200 -0.1768
 4139TIP3    H136612   2.278   2.357   7.426 -0.0771 -0.2616 -0.0792
 4139TIP3    H236613   2.351   2.465   7.503 -0.4496  0.1633 -0.3157
 4140TIP3   OH236614   1.544   6.943   7.413 -0.0415  0.3678  0.0816
 4140TIP3    H136615   1.455   6.914   7.431  0.0949 -0.5078 -0.5903
 4140TIP3    H236616   1.540   6.981   7.325  0.4365 -0.6349 -0.3975
 4141TIP3   OH236617   2.503   0.401   7.786 -0.5747  0.2917 -0.0350
 4141TIP3    H136618   2.570   0.371   7.848 -0.6194 -1.3824 -0.7374
 4141TIP3    H236619   2.513   0.496   7.784  0.7416  0.2058  1.0427
 4142TIP3   OH236620   3.159   1.760   8.065  0.0153  0.2561  0.5522
 4142TIP3    H136621   3.122   1.762   7.977 -0.2222  2.1873  0.6664
 4142TIP3    H236622   3.082   1.755   8.123  0.1713 -1.0783  0.6801
 4143TIP3   OH236623   4.531   5.009   8.480 -0.0915  0.0886 -0.3486
 4143TIP3    H136624   4.582   5.077   8.523 -1.3101  1.3084 -0.7302
 4143TIP3    H236625   4.557   4.928   8.523  0.5330  0.9454  0.9520
 4144TIP3   OH236626   6.463   6.467   7.770 -0.0374  0.1897 -0.1014
 4144TIP3    H136627   6.373   6.491   7.791  0.5867  1.8034  0.8998
 4144TIP3    H236628   6.500   6.544   7.729  0.9793 -0.3478 -0.2304
 4145TIP3   OH236629   2.391   3.097   9.811 -0.1889  0.3795  0.1040
 4145TIP3    H136630   2.419   3.108   9.902  0.6916  2.5920 -0.3668
 4145TIP3    H236631   2.467   3.060   9.767  0.4894  2.1351 -0.2790
 4146TIP3   OH236632   0.117   5.770   7.689  0.3382 -0.3118  0.3786
 4146TIP3    H136633   0.187   5.737   7.745 -0.7417 -1.1337  1.3083
 4146TIP3    H236634   0.104   5.860   7.717  0.4523 -0.4224  0.7955
 4147TIP3   OH236635   0.384   5.032   7.532 -0.5551 -0.5428 -0.0749
 4147TIP3    H136636   0.424   4.946   7.549 -0.5733 -0.2678  1.4992
 4147TIP3    H236637   0.455   5.094   7.544 -0.6525 -0.2888 -0.7661
 4148TIP3   OH236638   6.559   1.606   7.847  0.5837  0.2301  0.4645
 4148TIP3    H136639   6.612   1.661   7.789  1.3073 -0.0879  0.8134
 4148TIP3    H236640   6.491   1.665   7.879  0.9988  0.7738  0.3753
 4149TIP3   OH236641   2.470   2.619   8.484  0.0167 -0.4214 -0.0279
 4149TIP3    H136642   2.521   2.576   8.552  1.9550  0.1384 -1.0565
 4149TIP3    H236643   2.514   2.597   8.402 -0.8459  0.8446 -0.8882
 4150TIP3   OH236644   3.255   2.625   8.377 -0.1777 -0.3054 -0.2209
 4150TIP3    H136645   3.242   2.531   8.382 -0.1006 -0.3217 -0.3224
 4150TIP3    H236646   3.291   2.649   8.463 -2.1699 -0.0460  0.6119
 4151TIP3   OH236647   2.067   0.558   9.108  0.0168  0.1812 -0.1460
 4151TIP3    H136648   1.979   0.591   9.127  0.1054  0.4801 -0.2573
 4151TIP3    H236649   2.116   0.635   9.081  0.5032  0.1351  0.5879
 4152TIP3   OH236650   7.016   3.591   7.435  0.3482  0.3269 -0.5175
 4152TIP3    H136651   7.092   3.535   7.416  0.2557  0.0354 -0.0583
 4152TIP3    H236652   6.955   3.574   7.364 -0.8364 -2.2519  0.9846
 4153TIP3   OH236653   7.008   6.142   7.807  0.5618  0.5062 -0.4030
 4153TIP3    H136654   7.078   6.091   7.847 -0.4580  0.2483  1.1753
 4153TIP3    H236655   6.928   6.099   7.836 -0.4016  3.4454  1.8337
 4154TIP3   OH236656   4.889   6.974   7.409 -0.8400 -0.1450 -0.4484
 4154TIP3    H136657   4.958   7.005   7.351  1.1324 -1.6168  0.9949
 4154TIP3    H236658   4.866   7.050   7.462  0.0635  0.2196 -0.5694
 4155TIP3   OH236659   4.424   6.919   7.863 -0.8221  0.1762 -0.3264
 4155TIP3    H136660   4.333   6.916   7.893 -1.5305  0.2083 -2.3602
 4155TIP3    H236661   4.427   6.992   7.801  1.1622  1.6172  1.3179
 4156TIP3   OH236662   3.699   1.991   8.528  0.3357  0.7320 -0.3738
 4156TIP3    H136663   3.764   2.027   8.468  0.4552 -0.3282 -0.9059
 4156TIP3    H236664   3.662   1.916   8.482  0.0557  0.2079  0.6634
 4157TIP3   OH236665   6.709   0.939   8.590  0.0629 -0.7380  0.5129
 4157TIP3    H136666   6.684   0.955   8.499  0.0113 -0.4557  0.5769
 4157TIP3    H236667   6.628   0.948   8.640 -0.4552 -3.5288  0.2905
 4158TIP3   OH236668   1.463   2.053   7.628  0.2036 -0.3295  0.0079
 4158TIP3    H136669   1.444   2.084   7.540 -0.1177  0.1556  0.2409
 4158TIP3    H236670   1.385   2.076   7.679 -0.3893 -2.2431  0.0243
 4159TIP3   OH236671   6.224   2.260   9.032  0.1389  0.0578  0.1031
 4159TIP3    H136672   6.306   2.279   8.985 -0.7542  1.4398 -0.9953
 4159TIP3    H236673   6.199   2.343   9.071 -0.5136 -0.4605  0.8109
 4160TIP3   OH236674   1.300   1.514   8.439  0.5011 -0.1138  0.3336
 4160TIP3    H136675   1.349   1.504   8.357  0.4497 -0.3294  0.3311
 4160TIP3    H236676   1.238   1.442   8.439  0.9945 -0.5509  0.9095
 4161TIP3   OH236677   4.300   2.391   7.296 -0.2166 -0.1595  0.0290
 4161TIP3    H136678   4.231   2.327   7.313  1.4144 -1.4452  2.3366
 4161TIP3    H236679   4.373   2.339   7.260  0.8261  0.5031  1.1203
 4162TIP3   OH236680   6.121   3.874   9.506  0.2904  0.3595 -0.5812
 4162TIP3    H136681   6.150   3.859   9.416 -0.9014  2.3991 -1.3781
 4162TIP3    H236682   6.190   3.929   9.544  0.8008 -0.5138 -0.2077
 4163TIP3   OH236683   4.275   4.891   7.096  0.0332 -0.7153  0.1242
 4163TIP3    H136684   4.313   4.893   7.008 -2.4909  0.1749 -1.0163
 4163TIP3    H236685   4.307   4.971   7.137 -1.6623  0.7895 -1.3382
 4164TIP3   OH236686   0.033   4.114   7.778 -0.4209  0.0839 -0.2949
 4164TIP3    H136687   0.093   4.039   7.774  1.8048  1.6975  0.4007
 4164TIP3    H236688   0.063   4.164   7.855 -1.5597  1.8752 -0.9595
 4165TIP3   OH236689   4.016   3.575   7.886 -0.0340  0.0188 -0.0986
 4165TIP3    H136690   3.964   3.653   7.907 -0.0653  0.3369 -1.2394
 4165TIP3    H236691   3.968   3.533   7.814  0.2072 -0.8257  0.2234
 4166TIP3   OH236692   2.222   4.842   9.126 -0.1944 -0.7955  0.2491
 4166TIP3    H136693   2.156   4.779   9.097 -1.9781  1.1069 -0.1125
 4166TIP3    H236694   2.181   4.886   9.201  0.1262  1.1839 -0.6570
 4167TIP3   OH236695   0.068   3.547   6.600  0.1516  0.0804 -0.6088
 4167TIP3    H136696   0.080   3.536   6.695  1.4105 -0.1780 -0.7801
 4167TIP3    H236697   0.067   3.457   6.566  0.5905  0.1931 -0.9306
 4168TIP3   OH236698   3.504   4.138   9.086  0.2541  0.1197  0.4404
 4168TIP3    H136699   3.593   4.124   9.120  0.0041 -0.5279  0.8466
 4168TIP3    H236700   3.447   4.106   9.156 -0.2917  0.0067 -0.0556
 4169TIP3   OH236701   4.099   2.967   8.181  0.5843  0.7694 -0.4535
 4169TIP3    H136702   4.075   2.901   8.247  0.7888  0.2617 -0.8757
 4169TIP3    H236703   4.154   3.029   8.229  0.0639  0.8541  0.0440
 4170TIP3   OH236704   5.127   3.091   8.157 -0.0897 -0.1351  0.1783
 4170TIP3    H136705   5.222   3.107   8.152 -0.0534  1.1010  3.0755
 4170TIP3    H236706   5.109   3.083   8.250 -2.7437 -1.3084 -0.3445
 4171TIP3   OH236707   1.858   7.465   8.286 -0.0855  0.0821 -1.0864
 4171TIP3    H136708   1.944   7.423   8.278  0.8863  1.8058 -0.2222
 4171TIP3    H236709   1.859   7.536   8.223 -1.4994 -0.7840 -2.1427
 4172TIP3   OH236710   7.610   7.658   7.907  0.3312  0.7214  0.6166
 4172TIP3    H136711   7.553   7.735   7.901  0.0017  0.4219 -0.2836
 4172TIP3    H236712   7.550   7.584   7.912  0.6235  0.4034 -0.3314
 4173TIP3   OH236713   0.146   5.529   7.523  0.1402  0.3648  0.0378
 4173TIP3    H136714   0.131   5.553   7.431 -1.1454 -0.5414 -0.0226
 4173TIP3    H236715   0.119   5.606   7.573  0.7355  0.8215 -0.3300
 4174TIP3   OH236716   1.060   2.330   9.551  0.2898  0.0005 -0.1596
 4174TIP3    H136717   0.966   2.327   9.537  0.0902  0.6234  0.9118
 4174TIP3    H236718   1.070   2.334   9.646  1.4098 -0.4377 -0.2461
 4175TIP3   OH236719   7.266   1.497   8.056  0.0368  0.6233 -0.0869
 4175TIP3    H136720   7.315   1.579   8.059 -0.4818  0.9637 -0.5555
 4175TIP3    H236721   7.223   1.499   7.970  1.0952 -0.7818 -0.6755
 4176TIP3   OH236722   3.940   4.702   7.457  0.2083 -0.1565 -0.1957
 4176TIP3    H136723   3.995   4.689   7.380  1.1597  0.8361  0.2820
 4176TIP3    H236724   3.912   4.614   7.481  0.1144 -0.5031 -1.5090
 4177TIP3   OH236725   6.750   4.352   9.187 -0.2524  0.2628  0.4607
 4177TIP3    H136726   6.810   4.320   9.254  0.9109  2.3384  0.5163
 4177TIP3    H236727   6.667   4.365   9.233 -0.0597 -0.3172  0.9783
 4178TIP3   OH236728   1.612   5.133   8.382 -0.3351  0.3713  0.1733
 4178TIP3    H136729   1.576   5.210   8.337 -0.0324  0.6381  0.3861
 4178TIP3    H236730   1.687   5.167   8.430 -0.9277  0.1921  1.2571
 4179TIP3   OH236731   3.051   2.262   9.443 -0.0452  0.0736  0.1373
 4179TIP3    H136732   3.052   2.276   9.348  0.8353 -0.8615 -0.0177
 4179TIP3    H236733   3.080   2.345   9.480 -1.0253  0.6587 -0.3734
 4180TIP3   OH236734   6.660   7.647   7.122  0.3091 -0.0317 -0.6848
 4180TIP3    H136735   6.595   7.695   7.173  0.0505 -0.6044 -0.4643
 4180TIP3    H236736   6.616   7.627   7.040  0.5049  0.3297 -0.8795
 4181TIP3   OH236737   2.013   6.001   7.118 -0.3395 -0.1430 -0.4563
 4181TIP3    H136738   2.004   6.063   7.046  1.4718 -0.9073 -1.4286
 4181TIP3    H236739   1.956   5.928   7.095  0.5189 -0.5573 -1.3776
 4182TIP3   OH236740   4.473   2.205   7.247 -0.4899 -0.7649  0.4545
 4182TIP3    H136741   4.450   2.114   7.231 -0.2269 -0.7558 -0.0020
 4182TIP3    H236742   4.559   2.216   7.207  0.5942 -0.9410  2.5718
 4183TIP3   OH236743   1.884   5.055   9.335 -0.2169  0.4241 -0.6480
 4183TIP3    H136744   1.975   5.026   9.326 -0.0558  0.9550 -0.7544
 4183TIP3    H236745   1.890   5.141   9.377 -0.5325  1.3796 -2.4537
 4184TIP3   OH236746   3.586   4.063   7.734  0.5557  0.5311 -0.2839
 4184TIP3    H136747   3.614   3.972   7.744  0.9487  0.8759  2.4330
 4184TIP3    H236748   3.651   4.114   7.783 -2.2334  1.7765  2.4963
 4185TIP3   OH236749   7.217   4.250   8.204  0.1976 -0.3238  0.1709
 4185TIP3    H136750   7.163   4.255   8.125 -1.1040  0.8202  1.0782
 4185TIP3    H236751   7.178   4.179   8.254 -2.6366  2.3966  2.2323
 4186TIP3   OH236752   1.561   0.948   8.202  0.2479 -0.2599 -0.4356
 4186TIP3    H136753   1.637   0.890   8.210 -2.4245 -4.1265 -0.4515
 4186TIP3    H236754   1.577   0.997   8.122  2.9025 -0.5327 -0.1710
 4187TIP3   OH236755   2.156   5.121   8.034  0.2130  0.0493 -0.2059
 4187TIP3    H136756   2.128   5.062   8.103 -0.2569  2.4358  1.7813
 4187TIP3    H236757   2.076   5.166   8.007  0.5866 -0.0223 -1.5026
 4188TIP3   OH236758   3.909   4.814   8.584  0.0799 -0.5999 -0.2598
 4188TIP3    H136759   3.921   4.896   8.633 -1.2303 -1.6116  1.9166
 4188TIP3    H236760   3.867   4.841   8.503  2.3358  1.1609 -0.9641
 4189TIP3   OH236761   0.844   7.259   8.487  0.2625 -0.5905 -0.0648
 4189TIP3    H136762   0.839   7.257   8.391 -1.3610  0.4041 -0.0431
 4189TIP3    H236763   0.761   7.300   8.514  0.7759 -0.6858  1.7561
 4190TIP3   OH236764   1.030   5.304   8.271  0.0486  0.1037 -0.2101
 4190TIP3    H136765   1.005   5.218   8.238  0.1756 -0.0449  0.0833
 4190TIP3    H236766   0.974   5.366   8.224 -1.5513 -0.2760  1.1378
 4191TIP3   OH236767   6.729   6.081   7.624  0.4166  0.4674 -0.3748
 4191TIP3    H136768   6.783   6.004   7.639  2.7476  1.8722 -0.9425
 4191TIP3    H236769   6.689   6.099   7.709  0.9352 -0.5870  0.1094
 4192TIP3   OH236770   1.817   4.889   8.888  0.7078  0.6445 -0.0488
 4192TIP3    H136771   1.728   4.857   8.874  0.3619  1.3872  0.3909
 4192TIP3    H236772   1.870   4.810   8.894  0.1972  0.2102 -1.0467
 4193TIP3   OH236773   4.357   5.895   6.876  0.6648 -0.0895  0.6198
 4193TIP3    H136774   4.329   5.807   6.848 -0.0659 -0.0988  1.3362
 4193TIP3    H236775   4.451   5.886   6.893  0.9706 -0.2669 -1.0561
 4194TIP3   OH236776   0.358   2.968   8.709  0.5565  0.7834 -0.3906
 4194TIP3    H136777   0.279   2.923   8.677  1.1805 -0.6510  0.0000
 4194TIP3    H236778   0.325   3.035   8.769 -0.3488 -0.1521  0.1881
 4195TIP3   OH236779   7.457   2.309   6.814  0.5115  0.2268 -0.4930
 4195TIP3    H136780   7.494   2.223   6.835  0.6447  0.3178 -0.3516
 4195TIP3    H236781   7.368   2.305   6.849  1.1043  0.7996  1.1997
 4196TIP3   OH236782   6.760   1.568   8.145 -0.0528 -0.3133 -0.0264
 4196TIP3    H136783   6.681   1.610   8.110  1.0996  1.6560 -0.4111
 4196TIP3    H236784   6.759   1.480   8.108 -1.3833  0.1106 -1.0788
 4197TIP3   OH236785   6.647   1.071   8.276 -0.0225  0.4398 -0.7301
 4197TIP3    H136786   6.558   1.103   8.293 -0.3593 -1.1102  0.6044
 4197TIP3    H236787   6.646   1.047   8.183 -0.9137  0.6535 -0.7885
 4198TIP3   OH236788   3.760   1.578   8.745  0.2017 -0.2414 -0.4935
 4198TIP3    H136789   3.679   1.529   8.755 -0.0647  0.1918 -0.5234
 4198TIP3    H236790   3.732   1.669   8.729  0.5645 -0.5552 -3.5982
 4199TIP3   OH236791   7.390   5.708   8.093  0.5845  0.3628  0.2878
 4199TIP3    H136792   7.462   5.660   8.135  0.8737  0.5070 -0.0389
 4199TIP3    H236793   7.431   5.789   8.061  0.6186 -0.2306 -1.2528
 4200TIP3   OH236794   5.481   4.607   9.436 -0.6292 -0.0352  0.0829
 4200TIP3    H136795   5.407   4.640   9.385 -0.7402  1.2531  1.0316
 4200TIP3    H236796   5.557   4.622   9.380 -0.2601  4.5725  1.4354
 4201TIP3   OH236797   3.681   3.324   7.960 -0.7335 -0.2290  0.3977
 4201TIP3    H136798   3.689   3.417   7.977 -2.4445 -0.0908  0.5788
 4201TIP3    H236799   3.662   3.285   8.045 -0.1351 -0.7487  0.3055
 4202TIP3   OH236800   0.577   7.004   6.743 -0.3965 -0.2637 -0.3877
 4202TIP3    H136801   0.508   7.032   6.802  0.2933 -0.6897  0.6552
 4202TIP3    H236802   0.560   7.050   6.661 -0.7142  1.2393  0.4993
 4203TIP3   OH236803   4.890   5.874   7.730  0.0134 -0.4079  0.1325
 4203TIP3    H136804   4.886   5.879   7.635  1.5467  0.9392  0.0874
 4203TIP3    H236805   4.813   5.921   7.761 -1.4488 -2.3546 -0.4006
 4204TIP3   OH236806   5.218   5.791   8.585 -0.3247  0.3040 -0.5375
 4204TIP3    H136807   5.313   5.781   8.588 -0.2221  1.4626  0.9205
 4204TIP3    H236808   5.203   5.884   8.596 -1.6302  0.2609 -1.6701
 4205TIP3   OH236809   6.925   1.690   8.362 -0.0317 -0.3280 -0.3229
 4205TIP3    H136810   6.882   1.668   8.279 -0.1071  0.0211 -0.3781
 4205TIP3    H236811   6.976   1.612   8.383  2.6585  0.7352 -2.3750
 4206TIP3   OH236812   5.895   6.936   7.991  0.6924  0.0059  0.5459
 4206TIP3    H136813   5.823   6.999   7.987  0.2812 -0.5271 -1.0821
 4206TIP3    H236814   5.963   6.973   7.935  0.4649 -0.9445 -0.3930
 4207TIP3   OH236815   5.021   0.885   8.338 -0.2124 -0.2188  0.0769
 4207TIP3    H136816   5.006   0.885   8.243  0.8937 -0.1780 -0.1195
 4207TIP3    H236817   4.980   0.804   8.368  0.2354 -0.7148 -0.5960
 4208TIP3   OH236818   2.828   7.452   8.622 -0.7754  0.3954 -0.2044
 4208TIP3    H136819   2.890   7.519   8.595  1.8669 -1.4853  0.8021
 4208TIP3    H236820   2.790   7.420   8.540 -0.9457  2.0016 -0.7924
 4209TIP3   OH236821   4.469   2.629   7.291  0.5207 -0.0618 -0.4245
 4209TIP3    H136822   4.424   2.545   7.286 -1.9044  1.0109  1.2808
 4209TIP3    H236823   4.538   2.615   7.356  1.3624 -1.1726 -1.5057
 4210TIP3   OH236824   5.131   6.263   7.637 -0.0404  0.2632  0.5459
 4210TIP3    H136825   5.092   6.182   7.670 -2.2819  0.8456 -0.4644
 4210TIP3    H236826   5.103   6.330   7.699  1.5809  0.3447  1.2269
 4211TIP3   OH236827   4.099   2.544   8.754 -0.7315  0.4688  0.5722
 4211TIP3    H136828   4.011   2.552   8.789 -0.6741 -0.9040  1.0919
 4211TIP3    H236829   4.156   2.550   8.832 -0.5676 -1.9093  0.7136
 4212TIP3   OH236830   5.606   3.476   9.345  0.2369 -0.0615 -0.0854
 4212TIP3    H136831   5.651   3.411   9.291  0.1498 -0.4536  0.3146
 4212TIP3    H236832   5.516   3.443   9.353 -0.3402  1.0663 -1.4695
 4213TIP3   OH236833   4.702   4.585   9.109 -0.0649  0.4594 -0.2472
 4213TIP3    H136834   4.767   4.654   9.098  0.5471 -0.1982 -0.8760
 4213TIP3    H236835   4.727   4.541   9.190 -1.1202  1.6430  0.7784
 4214TIP3   OH236836   6.751   6.879   6.797  0.1196 -0.7158 -0.3345
 4214TIP3    H136837   6.769   6.938   6.724 -0.2469 -0.2357 -0.0436
 4214TIP3    H236838   6.658   6.891   6.815  0.4107 -0.0853  0.8554
 4215TIP3   OH236839   3.933   0.432   7.440  0.0442 -0.4054 -0.0958
 4215TIP3    H136840   3.934   0.368   7.512 -0.0571  1.6165  1.8055
 4215TIP3    H236841   4.025   0.454   7.427  0.0800 -0.9358 -0.7581
 4216TIP3   OH236842   3.246   5.547   8.862  0.1577 -0.3254 -0.9107
 4216TIP3    H136843   3.334   5.509   8.867  0.6902  0.9053 -0.5811
 4216TIP3    H236844   3.218   5.556   8.953  1.2830  2.7726 -0.7581
 4217TIP3   OH236845   3.826   1.116   9.437 -0.1619  0.7664  0.0091
 4217TIP3    H136846   3.816   1.074   9.522  2.0871  3.4892  1.8155
 4217TIP3    H236847   3.917   1.098   9.413 -0.2371  1.5415 -0.9008
 4218TIP3   OH236848   4.243   6.665   9.294  0.1254  0.2966  0.0437
 4218TIP3    H136849   4.292   6.583   9.290 -0.2011  0.1350 -1.7318
 4218TIP3    H236850   4.294   6.721   9.352  1.8138 -0.2458 -0.8433
 4219TIP3   OH236851   5.691   0.686   9.507  0.0785 -0.0379 -0.2457
 4219TIP3    H136852   5.650   0.772   9.496 -2.1137 -0.5393  2.5627
 4219TIP3    H236853   5.783   0.700   9.485 -0.4165  2.7303 -0.9565
 4220TIP3   OH236854   7.649   1.676   8.530  0.0005  0.1158 -0.1153
 4220TIP3    H136855   7.661   1.685   8.436  0.1512 -1.1330 -0.2411
 4220TIP3    H236856   7.573   1.730   8.551 -0.9364 -0.7451 -1.2048
 4221TIP3   OH236857   0.071   3.180   9.042  0.1516  0.3087 -0.1708
 4221TIP3    H136858  -0.006   3.144   8.997 -0.2144  1.1813 -0.2542
 4221TIP3    H236859   0.138   3.188   8.973  1.7156 -4.0291  0.5205
 4222TIP3   OH236860   4.914   2.306   9.403 -0.0338  0.4008 -0.1782
 4222TIP3    H136861   4.825   2.274   9.422 -0.1002  1.3644  1.2815
 4222TIP3    H236862   4.971   2.251   9.456  0.0372  1.1650  0.5654
 4223TIP3   OH236863   1.534   1.987   8.272  0.3097 -0.1353 -0.0226
 4223TIP3    H136864   1.500   1.897   8.270  1.2193 -0.4723 -1.9512
 4223TIP3    H236865   1.496   2.028   8.195  0.5843  0.8924  0.3822
 4224TIP3   OH236866   2.664   5.704   7.760  0.1785 -0.0754  0.7195
 4224TIP3    H136867   2.749   5.684   7.720  0.0833 -0.6272  0.7807
 4224TIP3    H236868   2.680   5.782   7.814  0.4290  0.3610  0.0217
 4225TIP3   OH236869   0.294   4.140   8.877 -0.1599  0.2362 -0.4069
 4225TIP3    H136870   0.247   4.216   8.912  0.7579  0.0695  1.2950
 4225TIP3    H236871   0.228   4.092   8.828 -1.2790  1.0489  0.2516
 4226TIP3   OH236872   7.135   1.614   9.251  0.8907 -0.0721 -0.1512
 4226TIP3    H136873   7.174   1.701   9.261  1.1727 -0.1269 -0.7393
 4226TIP3    H236874   7.173   1.580   9.169 -1.0308  0.2131 -1.2074
 4227TIP3   OH236875   5.911   6.094   7.392  0.3800 -0.1792  0.1726
 4227TIP3    H136876   5.876   6.057   7.310  0.1934  0.6800 -0.1418
 4227TIP3    H236877   5.952   6.019   7.435 -3.4741 -1.7697  1.5113
 4228TIP3   OH236878   6.017   5.869   7.237 -0.3574 -0.4847  0.2989
 4228TIP3    H136879   6.068   5.805   7.188  1.3783  1.4481 -0.5320
 4228TIP3    H236880   6.010   5.945   7.179 -0.3864  0.9489  2.0784
 4229TIP3   OH236881   0.910   5.173   9.103 -0.7123 -0.4515 -0.2134
 4229TIP3    H136882   0.856   5.119   9.046 -0.9857 -0.7538  0.3297
 4229TIP3    H236883   1.000   5.150   9.080 -0.7107  1.5578 -2.6075
 4230TIP3   OH236884   4.604   3.798   8.667 -0.0564  0.1325 -0.3552
 4230TIP3    H136885   4.555   3.750   8.733  0.0914  0.1009 -0.2676
 4230TIP3    H236886   4.571   3.888   8.672  1.5025  0.6667  1.3046
 4231TIP3   OH236887   0.318   5.826   8.286 -0.2065  0.3593 -0.4292
 4231TIP3    H136888   0.387   5.804   8.350  0.7324  0.3064 -1.4343
 4231TIP3    H236889   0.347   5.785   8.205 -0.9260  1.1897 -1.1182
 4232TIP3   OH236890   1.849   7.103   9.125  0.1210  0.2150  0.5234
 4232TIP3    H136891   1.852   7.014   9.160 -0.6373  0.0019  0.0726
 4232TIP3    H236892   1.820   7.092   9.034 -1.7533  1.0387  0.9734
 4233TIP3   OH236893   2.124   3.289   8.341 -0.3423 -0.4766  0.3017
 4233TIP3    H136894   2.205   3.289   8.391 -0.3521  1.2416  0.3711
 4233TIP3    H236895   2.055   3.276   8.406 -0.4671  3.0627  1.0905
 4234TIP3   OH236896   6.223   3.956   7.833 -0.5005  0.2633 -0.2847
 4234TIP3    H136897   6.290   3.888   7.825 -1.5772 -0.6881 -1.6786
 4234TIP3    H236898   6.267   4.036   7.804  0.8690  0.2884  1.6574
 4235TIP3   OH236899   4.601   7.143   9.285  0.6550  0.4148 -0.1445
 4235TIP3    H136900   4.691   7.175   9.284  0.2563  1.5418 -0.3856
 4235TIP3    H236901   4.548   7.220   9.304 -0.3142 -0.1039 -0.6894
 4236TIP3   OH236902   3.650   4.691   8.053 -0.3523 -0.5043  0.4389
 4236TIP3    H136903   3.582   4.642   8.006 -0.7433  0.9110 -0.5346
 4236TIP3    H236904   3.732   4.659   8.015 -0.6549  0.5943 -1.2869
 4237TIP3   OH236905   1.721   2.575   7.737 -0.5258 -0.2702 -0.3640
 4237TIP3    H136906   1.737   2.525   7.817 -3.3676 -1.1362 -0.2221
 4237TIP3    H236907   1.775   2.654   7.747  0.1390 -0.9129  1.8138
 4238TIP3   OH236908   4.795   6.526   8.380 -0.2675  0.3669 -0.2802
 4238TIP3    H136909   4.849   6.469   8.434 -0.2222  0.2941 -0.4009
 4238TIP3    H236910   4.828   6.615   8.397 -1.1782  0.5109  0.9029
 4239TIP3   OH236911   5.823   1.092   8.106 -0.4621  0.3832  0.3050
 4239TIP3    H136912   5.851   1.112   8.195 -0.5902 -0.7695  0.6258
 4239TIP3    H236913   5.731   1.117   8.104 -0.4231  0.5391  0.4552
 4240TIP3   OH236914   7.386   1.526   7.441 -0.0215 -0.3887 -0.3065
 4240TIP3    H136915   7.311   1.561   7.392 -0.6236 -1.6168 -0.3096
 4240TIP3    H236916   7.407   1.444   7.397 -0.0256 -1.0968  0.9598
 4241TIP3   OH236917   5.557   0.957   8.479 -0.0285  0.4266 -0.0642
 4241TIP3    H136918   5.545   0.921   8.391 -1.4711  1.5397 -0.3513
 4241TIP3    H236919   5.468   0.969   8.512  0.4863 -0.7363  1.8975
 4242TIP3   OH236920   2.368   0.059   9.092 -0.3619 -0.6248 -0.0716
 4242TIP3    H136921   2.346   0.146   9.061  0.7380 -0.1373  0.4424
 4242TIP3    H236922   2.460   0.066   9.120 -0.7428 -1.4839  1.5562
 4243TIP3   OH236923   2.073   7.018   7.479  0.1560  0.2590 -0.8998
 4243TIP3    H136924   1.986   7.013   7.440 -0.1953  2.2938 -0.5007
 4243TIP3    H236925   2.068   6.963   7.557 -0.2262 -0.9956 -1.7888
 4244TIP3   OH236926   6.760   6.902   9.473  0.2400 -0.0188  0.0727
 4244TIP3    H136927   6.754   6.875   9.565 -0.6926  0.8056  0.2675
 4244TIP3    H236928   6.696   6.847   9.428  0.6701 -0.3965 -0.0830
 4245TIP3   OH236929   4.534   0.246   8.782  0.1636 -0.0169  0.2335
 4245TIP3    H136930   4.521   0.263   8.875 -0.8028 -0.9143  0.2883
 4245TIP3    H236931   4.598   0.311   8.754 -0.2956  0.9203  1.2949
 4246TIP3   OH236932   4.142   6.403   7.602 -0.4519 -0.0474  0.4554
 4246TIP3    H136933   4.127   6.316   7.638 -1.3918 -0.1296 -0.1103
 4246TIP3    H236934   4.145   6.390   7.508  1.8341  0.1900  0.4338
 4247TIP3   OH236935   3.195   7.003   7.132 -0.0994  0.5243 -0.2575
 4247TIP3    H136936   3.167   6.916   7.104 -2.0945  1.3744 -1.0821
 4247TIP3    H236937   3.153   7.015   7.217  0.4741  0.5485  0.0253
 4248TIP3   OH236938   3.220   3.856   8.067 -0.2608  0.2249 -0.2383
 4248TIP3    H136939   3.245   3.884   8.155  0.8089 -1.8141  0.1710
 4248TIP3    H236940   3.296   3.876   8.012 -0.0036 -0.5767 -0.1983
 4249TIP3   OH236941   3.563   1.931   9.006  0.0891 -0.1219  0.8367
 4249TIP3    H136942   3.530   1.971   9.086  0.4065 -0.1424  0.9796
 4249TIP3    H236943   3.484   1.904   8.959 -0.0954 -2.3076  2.2607
 4250TIP3   OH236944   5.744   5.447   8.962 -0.3173  0.2278 -0.4970
 4250TIP3    H136945   5.669   5.502   8.985  0.5788  1.4589 -0.4243
 4250TIP3    H236946   5.779   5.418   9.047  1.1904  2.3156 -0.3308
 4251TIP3   OH236947   0.120   1.961   9.421 -0.7427  0.1677 -0.1237
 4251TIP3    H136948   0.153   1.890   9.366 -1.4276  0.5358 -1.0423
 4251TIP3    H236949   0.025   1.950   9.420 -0.7981  0.5460  0.4924
 4252TIP3   OH236950   3.585   3.070   7.668  0.7655  0.0640  0.5467
 4252TIP3    H136951   3.519   3.122   7.714 -1.9764 -1.2333 -1.6755
 4252TIP3    H236952   3.609   3.001   7.729 -1.6964 -0.7718  0.6568
 4253TIP3   OH236953   7.519   1.508   9.106  0.4741  0.7660  0.2027
 4253TIP3    H136954   7.494   1.416   9.114 -1.7852  1.4622  2.4869
 4253TIP3    H236955   7.585   1.509   9.037  1.2464 -2.6610  0.7131
 4254TIP3   OH236956   0.451   4.622   7.650 -0.1535  0.2900 -0.2719
 4254TIP3    H136957   0.507   4.687   7.609  2.2470 -0.3491  1.7431
 4254TIP3    H236958   0.413   4.667   7.725  1.3948 -0.4832  1.0401
 4255TIP3   OH236959   3.517   1.034   9.034 -0.5058  0.5018 -0.2677
 4255TIP3    H136960   3.430   1.073   9.025 -1.4753 -1.1969  0.9326
 4255TIP3    H236961   3.500   0.939   9.037  1.6187 -0.0158 -2.1440
 4256TIP3   OH236962   3.597   2.832   8.084  0.1235 -0.0731 -0.4951
 4256TIP3    H136963   3.575   2.749   8.042  0.9028 -0.6689  0.2349
 4256TIP3    H236964   3.679   2.860   8.043  0.7411 -0.5174  0.3902
 4257TIP3   OH236965   5.124   1.005   8.864  0.2506 -0.1387  0.2203
 4257TIP3    H136966   5.187   0.938   8.836  0.8830  0.2538  0.6677
 4257TIP3    H236967   5.159   1.037   8.947 -1.4180 -1.0533  1.3236
 4258TIP3   OH236968   1.858   2.431   7.135  0.0861  0.4391  0.2822
 4258TIP3    H136969   1.889   2.345   7.164 -2.7021 -0.1751  1.8457
 4258TIP3    H236970   1.854   2.425   7.040  0.6221 -0.9180  0.3244
 4259TIP3   OH236971   6.989   5.516   8.545  0.1868 -0.3544 -0.1508
 4259TIP3    H136972   6.968   5.591   8.601 -0.1256 -0.1820 -0.4915
 4259TIP3    H236973   7.071   5.541   8.502  0.5853 -0.6145  0.4524
 4260TIP3   OH236974   2.254   2.539   8.124 -0.5162 -0.4537  0.2741
 4260TIP3    H136975   2.338   2.537   8.170 -0.6495 -1.7487  0.5111
 4260TIP3    H236976   2.223   2.629   8.134  0.1199 -0.3522  1.5091
 4261TIP3   OH236977   0.050   3.608   7.237 -0.3805 -0.4678  0.0659
 4261TIP3    H136978   0.076   3.533   7.183 -0.0772  0.7523 -1.5580
 4261TIP3    H236979  -0.045   3.600   7.245 -0.5960 -0.0585 -1.6769
 4262TIP3   OH236980   4.487   5.772   7.966 -0.2582 -0.3155  0.3456
 4262TIP3    H136981   4.486   5.763   7.871  0.6239 -0.5469  0.3456
 4262TIP3    H236982   4.397   5.755   7.993 -0.4337 -0.6470 -0.4139
 4263TIP3   OH236983   7.399   0.999   8.235 -0.0494  0.3091 -0.4611
 4263TIP3    H136984   7.477   0.944   8.227 -0.0775  0.4179 -1.6666
 4263TIP3    H236985   7.345   0.954   8.300  1.2121  0.4975  0.7670
 4264TIP3   OH236986   7.100   4.203   7.369  0.0577  0.4856  0.3672
 4264TIP3    H136987   7.124   4.275   7.427  1.4744 -0.1285  0.5816
 4264TIP3    H236988   7.019   4.232   7.328  0.3256  1.9894  0.8241
 4265TIP3   OH236989   7.031   6.601   8.957  0.7264 -0.0930 -0.7952
 4265TIP3    H136990   6.982   6.619   9.037  0.9605 -1.5304 -0.3039
 4265TIP3    H236991   6.987   6.653   8.890 -0.4487 -0.0749 -0.0365
 4266TIP3   OH236992   0.931   3.797   8.162  0.3146 -0.3898  0.1603
 4266TIP3    H136993   1.006   3.838   8.204  0.3267 -0.0696 -0.1707
 4266TIP3    H236994   0.964   3.713   8.130 -0.4055 -2.0169  3.3550
 4267TIP3   OH236995   2.080   5.742   9.098 -0.1996 -0.5957  0.1242
 4267TIP3    H136996   2.144   5.698   9.154  0.9362  0.0687 -0.6202
 4267TIP3    H236997   2.046   5.672   9.042  1.4267 -0.6383 -0.8974
 4268TIP3   OH236998   5.594   5.157   7.145 -0.6396  0.4689  0.1674
 4268TIP3    H136999   5.556   5.115   7.223 -1.0254  1.1427  0.3430
 4268TIP3    H237000   5.580   5.093   7.075  0.3037 -0.4349  0.7674
 4269TIP3   OH237001   5.049   1.774   8.840  0.1809 -0.2913  0.3363
 4269TIP3    H137002   5.054   1.699   8.780  0.3620  1.3080 -1.7309
 4269TIP3    H237003   5.134   1.816   8.832 -1.2936  2.5998 -1.9937
 4270TIP3   OH237004   3.768   5.904   9.000  0.2837  0.2392 -0.0916
 4270TIP3    H137005   3.764   5.945   9.087 -3.0470  0.5850 -0.2939
 4270TIP3    H237006   3.825   5.828   9.012  1.2792  1.2238  1.9408
 4271TIP3   OH237007   7.414   6.336   7.956 -0.7510 -0.3899  0.3278
 4271TIP3    H137008   7.381   6.294   8.034  0.4715 -0.6961  0.7082
 4271TIP3    H237009   7.372   6.422   7.955 -0.9959 -0.4943  1.1639
 4272TIP3   OH237010   1.411   3.258   8.760  0.2201 -0.9829 -0.1974
 4272TIP3    H137011   1.494   3.306   8.754  0.3883 -1.0930  1.0947
 4272TIP3    H237012   1.411   3.220   8.848 -2.2219  0.9012  0.7290
 4273TIP3   OH237013   0.242   6.527   9.357  0.1648 -0.8876 -0.3597
 4273TIP3    H137014   0.250   6.472   9.435 -1.2307 -1.6844 -0.7536
 4273TIP3    H237015   0.198   6.471   9.293 -3.5216  1.3325 -0.0443
 4274TIP3   OH237016   2.214   0.369   7.774  0.2045  0.0649 -0.3745
 4274TIP3    H137017   2.308   0.356   7.764  0.3138 -2.0066  2.1111
 4274TIP3    H237018   2.206   0.428   7.849 -0.5072  1.0929 -1.2360
 4275TIP3   OH237019   3.195   6.416   8.433  0.0584  0.4082 -0.5153
 4275TIP3    H137020   3.252   6.467   8.490  1.1455 -0.9015 -0.3839
 4275TIP3    H237021   3.255   6.365   8.378 -0.9817  0.1773 -1.4837
 4276TIP3   OH237022   0.698   4.405   7.611 -0.0947 -0.0652  0.1168
 4276TIP3    H137023   0.700   4.351   7.532 -0.6163  0.8240 -0.5283
 4276TIP3    H237024   0.642   4.356   7.672 -0.7406 -0.1599 -0.5330
 4277TIP3   OH237025   3.212   2.683   7.583 -0.1153 -0.4514  0.3709
 4277TIP3    H137026   3.160   2.668   7.662  0.7937  0.9193  1.2852
 4277TIP3    H237027   3.213   2.599   7.538 -2.9106 -0.5945  0.4104
 4278TIP3   OH237028   0.670   5.807   8.382 -0.1090  0.4703  0.8059
 4278TIP3    H137029   0.728   5.747   8.429  1.8624  0.9260 -0.8892
 4278TIP3    H237030   0.683   5.785   8.290  0.5012  3.2851  0.1310
 4279TIP3   OH237031   4.173   5.888   8.878 -0.3865 -0.0088 -0.1931
 4279TIP3    H137032   4.135   5.963   8.924 -0.6604 -0.6542  0.6515
 4279TIP3    H237033   4.102   5.854   8.824  0.1635  1.2542 -1.7859
 4280TIP3   OH237034   0.853   6.761   9.295  0.0309  0.1765 -0.0142
 4280TIP3    H137035   0.909   6.774   9.372 -0.1371  0.1113  0.1199
 4280TIP3    H237036   0.855   6.667   9.280 -0.0047  0.1803 -0.0399
 4281TIP3   OH237037   5.048   2.009   8.393 -0.2239  0.5268 -0.2579
 4281TIP3    H137038   4.971   1.956   8.370  0.3247  0.2295 -1.5013
 4281TIP3    H237039   5.078   2.045   8.309  2.8916 -1.9632 -0.3858
 4282TIP3   OH237040   3.455   0.308   7.238 -0.3403 -0.1198 -0.6175
 4282TIP3    H137041   3.496   0.292   7.154  3.6316  1.7907  0.7074
 4282TIP3    H237042   3.489   0.240   7.296 -0.8515  0.1824  0.0698
 4283TIP3   OH237043   3.781   4.237   7.879  0.0162  0.0408 -0.1166
 4283TIP3    H137044   3.867   4.257   7.841  0.1223 -0.5049 -0.1700
 4283TIP3    H237045   3.801   4.184   7.956 -0.2656  0.0053 -0.0683
 4284TIP3   OH237046   7.631   7.539   8.296 -0.7975 -0.1923 -0.4648
 4284TIP3    H137047   7.723   7.558   8.315 -0.9164 -1.0910  1.1599
 4284TIP3    H237048   7.633   7.494   8.211  0.4304 -1.4982  0.2219
 4285TIP3   OH237049   3.103   7.527   8.486  0.0917 -0.6294 -0.0195
 4285TIP3    H137050   3.081   7.600   8.543  1.7301  2.7493 -3.3006
 4285TIP3    H237051   3.035   7.527   8.420 -0.1956 -2.5615  0.2111
 4286TIP3   OH237052   1.712   1.203   6.814  0.0421 -0.2344  0.0174
 4286TIP3    H137053   1.633   1.150   6.822 -0.2666  0.0341 -1.1369
 4286TIP3    H237054   1.783   1.140   6.803 -0.3540 -0.4284 -1.6162
 4287TIP3   OH237055   4.296   1.681   8.176 -0.3403  0.3217 -0.2204
 4287TIP3    H137056   4.225   1.740   8.150 -0.9028 -0.8737 -1.5550
 4287TIP3    H237057   4.374   1.717   8.135 -0.7825 -0.1358 -1.5219
 4288TIP3   OH237058   3.820   4.832   8.318  0.3553  0.1696  0.0975
 4288TIP3    H137059   3.840   4.824   8.225  1.0660  0.6189  0.2081
 4288TIP3    H237060   3.727   4.855   8.320  0.5106  0.8860 -0.5248
 4289TIP3   OH237061   6.588   6.717   9.391 -0.4770  0.3899  0.1994
 4289TIP3    H137062   6.496   6.706   9.366 -0.7087  0.5137  0.9860
 4289TIP3    H237063   6.628   6.632   9.373 -0.4636  0.6656 -1.2515
 4290TIP3   OH237064   0.172   7.332   9.386  0.1388 -0.1457  0.4391
 4290TIP3    H137065   0.156   7.245   9.349  2.0310 -0.0069 -0.8550
 4290TIP3    H237066   0.110   7.389   9.342  1.2768 -0.2687 -1.4450
 4291TIP3   OH237067   3.959   2.322   7.578 -0.1702  0.3925 -0.0965
 4291TIP3    H137068   4.007   2.308   7.660  0.1303 -0.5123 -0.4131
 4291TIP3    H237069   3.932   2.414   7.581  1.4305  0.8801  0.1631
 4292TIP3   OH237070   1.778   1.470   7.983 -0.3935  0.3728 -0.4271
 4292TIP3    H137071   1.693   1.476   8.028 -0.8320  0.5737 -1.2630
 4292TIP3    H237072   1.814   1.386   8.012  0.0161  1.1348  1.4358
 4293TIP3   OH237073   6.472   4.655   7.882  0.0223 -0.1326  0.6935
 4293TIP3    H137074   6.453   4.616   7.797 -1.9192 -0.0076  1.0059
 4293TIP3    H237075   6.559   4.623   7.904  0.3552 -0.5782 -1.1018
 4294TIP3   OH237076   7.121   6.497   7.726  0.0007 -0.2974 -0.0003
 4294TIP3    H137077   7.155   6.587   7.723 -1.6550  0.3741  0.2914
 4294TIP3    H237078   7.107   6.481   7.820 -1.1989 -0.2557 -0.1652
 4295TIP3   OH237079   4.380   2.348   8.745 -0.0488  0.1662  0.4421
 4295TIP3    H137080   4.448   2.305   8.798 -0.2637 -0.6260  0.1005
 4295TIP3    H237081   4.341   2.412   8.803  1.3530  1.0199  0.4772
 4296TIP3   OH237082   0.847   7.611   7.571 -0.6329 -0.4898 -0.0260
 4296TIP3    H137083   0.833   7.528   7.616 -3.1982  0.7827  1.7788
 4296TIP3    H237084   0.767   7.661   7.587  0.5386  2.1021 -1.5863
 4297TIP3   OH237085   5.792   6.059   7.745 -0.0864  0.0663  0.5384
 4297TIP3    H137086   5.775   5.968   7.722  0.2984  0.1222  0.0166
 4297TIP3    H237087   5.737   6.110   7.686  0.8361  0.2075 -0.2288
 4298TIP3   OH237088   2.204   0.578   6.985  0.0542  0.0654 -0.0115
 4298TIP3    H137089   2.207   0.558   6.891 -2.2490  0.0514 -0.1241
 4298TIP3    H237090   2.294   0.562   7.015  0.6375 -0.7978 -2.0219
 4299TIP3   OH237091   1.606   3.615   7.986 -0.1923  0.0601  0.2084
 4299TIP3    H137092   1.674   3.581   7.928 -0.4536 -0.4679  0.1962
 4299TIP3    H237093   1.525   3.572   7.955 -0.3140 -0.3275  1.0330
 4300TIP3   OH237094   2.052   3.511   9.280  0.0616  0.0520  0.2965
 4300TIP3    H137095   2.050   3.482   9.372  0.2298 -0.5011  0.1296
 4300TIP3    H237096   1.971   3.476   9.242  0.2125 -0.1069  0.1212
 4301TIP3   OH237097   0.937   4.859   9.167  0.0852 -0.6129  0.1733
 4301TIP3    H137098   0.848   4.896   9.165  0.3538  0.0434 -0.0825
 4301TIP3    H237099   0.924   4.764   9.163 -0.5720 -0.4962 -1.2713
 4302TIP3   OH237100   2.277   5.281   9.227 -0.3882  0.3652 -0.2766
 4302TIP3    H137101   2.305   5.373   9.229 -0.6821  0.4571 -0.3896
 4302TIP3    H237102   2.199   5.281   9.172 -0.1470 -0.0189 -0.6261
 4303TIP3   OH237103   3.439   2.922   9.393 -0.3627  0.1976  0.2620
 4303TIP3    H137104   3.350   2.934   9.360 -0.1982  1.9199  0.3520
 4303TIP3    H237105   3.432   2.945   9.486  0.3761  1.4086  0.0276
 4304TIP3   OH237106   3.907   5.643   8.129  0.3604 -0.7359 -0.1005
 4304TIP3    H137107   3.860   5.580   8.074 -0.6249 -0.4842  0.4288
 4304TIP3    H237108   3.891   5.614   8.219  1.7787 -1.0204  0.0830
 4305TIP3   OH237109   6.035   6.075   7.056  0.3417  0.0335 -0.0475
 4305TIP3    H137110   6.095   6.037   6.992  1.8105 -0.2281  1.4289
 4305TIP3    H237111   5.960   6.104   7.004  0.5107 -2.0886 -1.6135
 4306TIP3   OH237112   6.784   4.678   7.829  0.3045 -0.3873 -0.0129
 4306TIP3    H137113   6.772   4.584   7.838 -0.5128 -0.1936  1.1952
 4306TIP3    H237114   6.858   4.699   7.886  1.6558 -0.5220 -1.6555
 4307TIP3   OH237115   1.932   3.088   7.304 -0.5656  0.2109  0.1426
 4307TIP3    H137116   1.845   3.073   7.267 -0.6725 -0.8796  0.8163
 4307TIP3    H237117   1.991   3.080   7.229 -0.8767 -0.9830  0.0120
 4308TIP3   OH237118   0.408   7.473   7.345 -0.1436 -0.4612 -0.1869
 4308TIP3    H137119   0.327   7.440   7.384 -0.8600  1.1045 -0.2886
 4308TIP3    H237120   0.405   7.442   7.254  0.1101 -1.6346  0.1819
 4309TIP3   OH237121   3.798   5.474   8.944 -0.4736 -0.5571  0.4327
 4309TIP3    H137122   3.815   5.480   9.038  0.2857  1.0010  0.2276
 4309TIP3    H237123   3.705   5.495   8.935 -0.1846  0.9522  0.7178
 4310TIP3   OH237124   6.335   2.931   8.230 -0.7830 -0.2200  0.2942
 4310TIP3    H137125   6.351   3.026   8.232 -0.6924 -0.2413  0.6857
 4310TIP3    H237126   6.372   2.903   8.146 -0.3094  0.0049  0.4215
 4311TIP3   OH237127   0.029   0.731   8.993 -0.6742 -0.3352 -0.3223
 4311TIP3    H137128   0.112   0.777   9.004 -1.2456  0.3755  1.2787
 4311TIP3    H237129   0.046   0.668   8.923  1.0059  0.2579 -0.4947
 4312TIP3   OH237130   6.559   6.197   7.830  0.2102 -0.6471 -0.2203
 4312TIP3    H137131   6.614   6.223   7.904  1.0858 -0.2285 -0.9980
 4312TIP3    H237132   6.539   6.280   7.785 -0.5020 -0.8705 -0.3347
 4313TIP3   OH237133   1.489   1.160   7.477 -0.4041 -0.7186 -0.6181
 4313TIP3    H137134   1.564   1.175   7.419 -1.2563 -1.5411 -1.9763
 4313TIP3    H237135   1.421   1.217   7.443 -0.8073 -0.9578 -0.2154
 4314TIP3   OH237136   5.076   2.988   8.929  0.2424 -0.1158 -0.4075
 4314TIP3    H137137   5.066   2.912   8.987  1.1636 -0.2405 -0.3919
 4314TIP3    H237138   4.987   3.015   8.909 -0.1392  0.5963  1.9278
 4315TIP3   OH237139   0.381   5.510   8.824 -0.2451 -0.0054 -0.3356
 4315TIP3    H137140   0.442   5.532   8.895  0.4966  0.4301 -1.0775
 4315TIP3    H237141   0.433   5.456   8.765 -0.7763 -0.1374 -0.6851
 4316TIP3   OH237142   5.008   5.018   8.842  0.2053 -0.1954 -0.5369
 4316TIP3    H137143   5.041   5.049   8.757 -1.6729  0.5166 -1.0698
 4316TIP3    H237144   5.086   5.001   8.894  1.4017 -0.6038 -2.3952
 4317TIP3   OH237145   2.745   6.639   8.025 -0.2161 -0.1708 -0.1437
 4317TIP3    H137146   2.711   6.723   7.996 -2.0949 -1.4440 -1.8541
 4317TIP3    H237147   2.668   6.584   8.038  0.9933 -2.0030 -0.2370
 4318TIP3   OH237148   5.083   0.193   8.022 -0.1926  0.1576  0.5292
 4318TIP3    H137149   5.165   0.227   7.984 -0.6902 -0.7985 -1.5524
 4318TIP3    H237150   5.112   0.130   8.087  0.8000 -0.9231 -0.8858
 4319TIP3   OH237151   1.031   0.194   8.854 -0.0813 -0.0381  0.0891
 4319TIP3    H137152   0.966   0.244   8.904  0.1870 -1.0944  1.5418
 4319TIP3    H237153   0.995   0.105   8.851  1.3552 -0.6791  1.0830
 4320TIP3   OH237154   6.609   4.871   9.093 -0.1969 -0.1237 -0.4360
 4320TIP3    H137155   6.629   4.780   9.114 -0.7841  0.2248  1.9125
 4320TIP3    H237156   6.686   4.920   9.120 -1.6935  0.5633  3.2084
 4321TIP3   OH237157   1.009   1.091   7.806  0.3917 -0.1904 -0.3508
 4321TIP3    H137158   1.059   1.018   7.841 -2.0578 -1.7967  0.0748
 4321TIP3    H237159   1.006   1.154   7.878 -0.2214 -1.1795  0.5273
 4322TIP3   OH237160   7.325   5.754   9.235 -0.7722 -0.0179  0.4846
 4322TIP3    H137161   7.360   5.819   9.173 -0.1661  0.2573  1.1121
 4322TIP3    H237162   7.256   5.802   9.282 -0.6170  0.0426  0.6503
 4323TIP3   OH237163   6.422   2.166   6.866  0.2546 -0.3265  0.3049
 4323TIP3    H137164   6.436   2.190   6.775 -1.4303 -0.4220 -0.0080
 4323TIP3    H237165   6.493   2.209   6.914  0.9562  0.0040 -1.0024
 4324TIP3   OH237166   1.910   2.069   7.879  0.5773 -0.3839 -0.0989
 4324TIP3    H137167   1.956   1.996   7.839  0.5195 -0.9002  0.7579
 4324TIP3    H237168   1.823   2.034   7.901  0.2175  0.2114 -0.5399
 4325TIP3   OH237169   3.110   6.918   8.041  0.0329  0.2357 -0.5760
 4325TIP3    H137170   3.093   6.911   8.135 -0.1278 -1.8551 -0.7267
 4325TIP3    H237171   3.132   6.829   8.013 -0.5564  0.6803 -2.6532
 4326TIP3   OH237172   6.455   2.347   9.292 -0.3283  0.2814 -0.4456
 4326TIP3    H137173   6.475   2.351   9.198 -0.5290 -0.7304 -0.5450
 4326TIP3    H237174   6.511   2.277   9.325  1.5768  2.2251  0.7079
 4327TIP3   OH237175   1.977   7.355   8.004  0.2237 -0.1046 -0.1240
 4327TIP3    H137176   2.020   7.355   8.090  0.3986 -0.1684 -0.2120
 4327TIP3    H237177   1.991   7.443   7.970 -1.2757  0.4668  0.6254
 4328TIP3   OH237178   4.900   6.123   9.038  0.0151  0.0194 -0.8628
 4328TIP3    H137179   4.841   6.079   8.977 -1.5543  1.5814 -0.5479
 4328TIP3    H237180   4.928   6.202   8.992  1.4635 -0.4089 -0.7841
 4329TIP3   OH237181   5.997   7.256   8.838 -0.0683 -0.0250 -0.0586
 4329TIP3    H137182   5.971   7.266   8.746  0.2028  0.5048 -0.0840
 4329TIP3    H237183   5.960   7.172   8.865 -0.1250 -0.1957 -0.6625
 4330TIP3   OH237184   4.193   6.937   8.032 -0.0531  0.6768 -0.0011
 4330TIP3    H137185   4.106   6.906   8.006  0.7409 -0.6253 -1.2671
 4330TIP3    H237186   4.176   7.001   8.102 -2.0147  0.5269 -0.2796
 4331TIP3   OH237187   5.847   2.967   8.783 -0.0590 -0.0215  0.3173
 4331TIP3    H137188   5.863   3.050   8.738 -0.2131 -0.4887 -0.6240
 4331TIP3    H237189   5.796   2.991   8.861 -1.3429  0.6234 -0.6833
 4332TIP3   OH237190   0.977   3.866   9.489  0.3416  0.1101 -0.1628
 4332TIP3    H137191   0.983   3.864   9.393  0.6212 -0.6338 -0.1332
 4332TIP3    H237192   1.063   3.896   9.517 -0.2590  2.0080 -0.1863
 4333TIP3   OH237193   7.255   1.510   9.035 -0.4694 -0.9160 -0.0632
 4333TIP3    H137194   7.343   1.489   9.066 -0.8622 -0.3018  1.6174
 4333TIP3    H237195   7.265   1.530   8.942  1.0659 -1.3664 -0.0138
 4334TIP3   OH237196   1.306   6.661   7.262  0.4586 -0.0139  0.2094
 4334TIP3    H137197   1.356   6.584   7.290 -0.4506 -0.8446 -0.3911
 4334TIP3    H237198   1.259   6.632   7.184 -0.2897  0.9983  0.2687
 4335TIP3   OH237199   3.889   2.223   8.571  0.2774  0.0460  0.4306
 4335TIP3    H137200   3.819   2.276   8.533  0.9695  1.5051  1.1320
 4335TIP3    H237201   3.844   2.167   8.634 -0.4336 -0.0276 -0.1310
 4336TIP3   OH237202   4.796   2.596   9.604 -0.3243 -0.2389 -0.2692
 4336TIP3    H137203   4.877   2.546   9.595  0.8837  1.1721  1.9638
 4336TIP3    H237204   4.729   2.531   9.625  0.6749 -1.1953  0.0068
 4337TIP3   OH237205   6.042   4.277   8.957  1.0902 -0.0407  0.0585
 4337TIP3    H137206   5.957   4.289   8.915  1.2007 -0.7779 -0.3866
 4337TIP3    H237207   6.068   4.187   8.934  1.4134 -0.2596  1.2205
 4338TIP3   OH237208   6.851   0.910   9.181 -0.2512  0.6713 -0.3263
 4338TIP3    H137209   6.828   0.978   9.118 -1.1520  1.4002  0.7464
 4338TIP3    H237210   6.810   0.938   9.263 -0.1112 -0.8445  0.3045
 4339TIP3   OH237211   5.743   2.573   9.428 -0.2777 -0.5042 -0.0071
 4339TIP3    H137212   5.811   2.637   9.450 -0.2746 -1.0938  1.8244
 4339TIP3    H237213   5.790   2.503   9.383  0.0226 -0.1155 -0.3095
 4340TIP3   OH237214   4.102   5.345   9.499  0.6479 -0.0440 -0.3542
 4340TIP3    H137215   4.069   5.273   9.444  0.1864  0.1795 -0.3701
 4340TIP3    H237216   4.029   5.407   9.504  0.7473  0.0184  0.3719
 4341TIP3   OH237217   0.628   2.955   7.648  1.0759  0.5231 -0.8842
 4341TIP3    H137218   0.710   2.910   7.669 -0.2215 -0.9122  1.6767
 4341TIP3    H237219   0.581   2.895   7.591  0.3816 -0.3462  0.5399
 4342TIP3   OH237220   1.124   7.437   8.609  0.0598  0.0917 -0.1154
 4342TIP3    H137221   1.054   7.497   8.633 -0.5230 -0.5653 -0.1527
 4342TIP3    H237222   1.148   7.464   8.520  1.2494  1.6036  0.6130
 4343TIP3   OH237223   4.610   3.375   7.179  0.0456  0.1021  0.3248
 4343TIP3    H137224   4.647   3.441   7.122  1.3727 -0.4598  0.4983
 4343TIP3    H237225   4.593   3.300   7.121 -2.0025  0.7318  0.0102
 4344TIP3   OH237226   6.138   4.820   8.066  0.6078  0.6066 -0.4377
 4344TIP3    H137227   6.180   4.734   8.075  0.2349  0.6009  2.0654
 4344TIP3    H237228   6.147   4.841   7.973  1.3795 -1.7856 -0.9994
 4345TIP3   OH237229   3.909   0.069   8.942 -0.3105  0.5464 -0.2209
 4345TIP3    H137230   3.997   0.083   8.907  0.3073  0.3428  1.2104
 4345TIP3    H237231   3.861   0.030   8.869  1.4944 -1.7632 -0.3029
 4346TIP3   OH237232   3.046   6.879   8.605  0.4305 -0.2212  0.2775
 4346TIP3    H137233   2.954   6.898   8.623 -0.0999 -1.6270 -0.7872
 4346TIP3    H237234   3.048   6.784   8.590  1.6936  0.0858 -1.7270
 4347TIP3   OH237235   6.178   1.561   7.816  0.2509 -0.2604 -0.2224
 4347TIP3    H137236   6.140   1.585   7.731 -0.8450  1.8485  0.7808
 4347TIP3    H237237   6.226   1.639   7.844 -1.2390 -0.0288  2.0205
 4348TIP3   OH237238   4.111   3.537   9.367  0.2308  0.6382  0.1981
 4348TIP3    H137239   4.168   3.460   9.364 -0.0098  0.3497  1.9629
 4348TIP3    H237240   4.167   3.609   9.338  0.5373 -0.1234 -1.2069
 4349TIP3   OH237241   6.085   3.089   8.964 -0.4444 -0.1053  0.3698
 4349TIP3    H137242   6.001   3.044   8.976 -0.8965  0.7343  0.4790
 4349TIP3    H237243   6.138   3.062   9.039 -0.6324 -0.6042  0.3279
 4350TIP3   OH237244   7.498   4.329   7.067  0.4627  0.6179  0.2183
 4350TIP3    H137245   7.433   4.376   7.120  0.2670  0.8878 -0.2481
 4350TIP3    H237246   7.460   4.328   6.979  0.4084 -0.5451  0.2508
 4351TIP3   OH237247   5.441   6.354   8.307 -0.3563  0.2448  0.1825
 4351TIP3    H137248   5.370   6.299   8.275 -2.1364  2.3191  0.3341
 4351TIP3    H237249   5.434   6.350   8.402 -0.0989  0.2657  0.2034
 4352TIP3   OH237250   2.201   1.326   7.373 -0.0765  0.1642  0.2353
 4352TIP3    H137251   2.167   1.342   7.284 -0.6004  2.4181  0.7818
 4352TIP3    H237252   2.202   1.230   7.381 -0.2355 -0.0974 -2.1095
 4353TIP3   OH237253   1.458   7.220   8.952  0.2716 -0.0584 -0.4220
 4353TIP3    H137254   1.407   7.165   8.893 -3.6341  0.4820  2.0671
 4353TIP3    H237255   1.461   7.305   8.909  0.5606 -0.5340 -1.3661
 4354TIP3   OH237256   1.389   3.613   8.900 -0.2479  0.4499 -0.3120
 4354TIP3    H137257   1.416   3.542   8.842 -1.3620 -1.0305  0.8888
 4354TIP3    H237258   1.471   3.647   8.936  0.3048 -2.5667  1.6776
 4355TIP3   OH237259   6.494   4.082   6.769 -0.4428 -0.1371  0.0971
 4355TIP3    H137260   6.443   4.099   6.849 -1.2592  0.0434 -0.4504
 4355TIP3    H237261   6.434   4.103   6.698 -0.0078 -1.1088 -0.5782
 4356TIP3   OH237262   0.841   3.383   9.025 -0.5537  0.1612 -0.0708
 4356TIP3    H137263   0.909   3.410   8.963 -1.0442  2.4762  0.2910
 4356TIP3    H237264   0.759   3.397   8.977 -0.8937 -3.4603 -0.8306
 4357TIP3   OH237265   2.189   2.474   7.040  0.4459 -0.3625 -0.2103
 4357TIP3    H137266   2.187   2.416   7.116  2.6168 -0.4797 -0.1572
 4357TIP3    H237267   2.262   2.441   6.987 -2.5314 -1.9158 -3.7651
 4358TIP3   OH237268   0.925   0.278   7.308  0.1146 -0.0408  0.2180
 4358TIP3    H137269   0.875   0.359   7.302 -3.5286 -2.0150  1.0357
 4358TIP3    H237270   0.934   0.261   7.401  4.5103  1.2696  0.2528
 4359TIP3   OH237271   6.091   6.827   6.762  0.1351  0.7852  0.3881
 4359TIP3    H137272   6.160   6.800   6.702 -0.8574 -2.2145  0.4480
 4359TIP3    H237273   6.011   6.827   6.709 -0.2350  1.6284  0.9230
 4360TIP3   OH237274   2.791   0.984   8.726 -0.0284  0.1293 -0.2242
 4360TIP3    H137275   2.807   0.908   8.671 -0.0851  0.5241 -0.8016
 4360TIP3    H237276   2.695   0.989   8.734 -0.1348  1.2445 -1.8089
 4361TIP3   OH237277   6.350   4.529   7.276 -0.4456  0.3628 -0.5158
 4361TIP3    H137278   6.272   4.583   7.286 -0.0112  1.1047 -1.1023
 4361TIP3    H237279   6.348   4.499   7.185  0.7945  1.7328 -1.0312
 4362TIP3   OH237280   2.492   6.522   8.071  0.2234  0.8015 -0.2651
 4362TIP3    H137281   2.448   6.485   7.995  1.3073  0.1517 -0.6083
 4362TIP3    H237282   2.460   6.471   8.145 -0.8334  1.4344 -0.2703
 4363TIP3   OH237283   3.883   4.013   7.464 -0.6734 -0.3997  0.3521
 4363TIP3    H137284   3.903   4.044   7.552 -0.8739 -1.4565  0.7808
 4363TIP3    H237285   3.837   3.930   7.477  0.5213 -1.2858 -0.7551
 4364TIP3   OH237286   5.108   3.926   7.541  0.1280  0.7830 -0.1488
 4364TIP3    H137287   5.115   3.855   7.477  2.0559 -0.3134  1.1321
 4364TIP3    H237288   5.176   3.988   7.515  0.4313  0.6806  0.3650
 4365TIP3   OH237289   6.278   6.660   8.664  0.0701 -0.5045 -0.0396
 4365TIP3    H137290   6.250   6.581   8.618 -0.3579 -1.1197  1.2228
 4365TIP3    H237291   6.198   6.710   8.676  0.2989  0.0109 -0.6006
 4366TIP3   OH237292   3.419   7.066   7.634  0.1290 -0.4854 -0.1379
 4366TIP3    H137293   3.431   6.991   7.691 -0.5158 -0.9152 -0.5566
 4366TIP3    H237294   3.406   7.029   7.547 -0.6234  0.0863 -0.2837
 4367TIP3   OH237295   0.611   3.882   7.093 -0.1414  0.1003 -0.0498
 4367TIP3    H137296   0.519   3.892   7.119  0.1856 -0.2396  1.3143
 4367TIP3    H237297   0.627   3.788   7.100  0.4844  0.2342  0.3258
 4368TIP3   OH237298   0.994   0.235   8.596  0.6364 -0.0318 -0.0253
 4368TIP3    H137299   1.024   0.213   8.685  0.4570  0.6264  0.2035
 4368TIP3    H237300   1.064   0.289   8.560 -0.2820  1.6298  0.5599
 4369TIP3   OH237301   2.710   5.236   8.472  0.5666 -0.9498  0.3898
 4369TIP3    H137302   2.719   5.289   8.392  0.5464  3.5885  3.0649
 4369TIP3    H237303   2.619   5.206   8.470  0.7814 -1.6233 -1.5908
 4370TIP3   OH237304   6.306   2.181   7.369  0.3049 -0.3688 -0.1377
 4370TIP3    H137305   6.296   2.222   7.283 -0.4386 -0.0681  0.0862
 4370TIP3    H237306   6.397   2.198   7.393 -0.0355  1.3630  0.0401
 4371TIP3   OH237307   1.191   6.207   7.702  0.8230 -0.5489 -0.0895
 4371TIP3    H137308   1.213   6.298   7.682  0.1087 -0.4985 -0.7045
 4371TIP3    H237309   1.213   6.196   7.794 -3.3051  1.6392  1.4310
 4372TIP3   OH237310   1.240   2.855   9.259 -0.1401 -0.2273  0.0175
 4372TIP3    H137311   1.290   2.936   9.255 -0.6373  0.0838  0.1074
 4372TIP3    H237312   1.149   2.882   9.251 -0.2920 -0.8001 -0.2122
 4373TIP3   OH237313   5.260   6.048   8.578  0.6215 -0.2606 -0.0704
 4373TIP3    H137314   5.195   6.117   8.569 -1.0965 -1.7454  0.5041
 4373TIP3    H237315   5.333   6.090   8.624 -0.3446  1.1657  0.2310
 4374TIP3   OH237316   6.322   5.364   7.103 -0.2252 -0.6094  0.5248
 4374TIP3    H137317   6.276   5.448   7.107 -1.1082 -0.8937 -2.1507
 4374TIP3    H237318   6.265   5.304   7.151  0.5866  0.2823  2.7884
 4375TIP3   OH237319   2.096   4.714   8.414 -0.1588 -0.1763 -0.3156
 4375TIP3    H137320   2.125   4.661   8.340  1.5013  0.0793  0.1235
 4375TIP3    H237321   2.175   4.730   8.465 -1.5366 -2.1739  2.7438
 4376TIP3   OH237322   6.853   4.911   8.093  0.2178  0.3477  0.3793
 4376TIP3    H137323   6.916   4.867   8.036 -0.7953 -0.6896  0.0237
 4376TIP3    H237324   6.845   4.854   8.169 -0.2301  0.5025  0.4520
 4377TIP3   OH237325   3.330   6.094   7.360 -0.2382 -0.6107  0.5252
 4377TIP3    H137326   3.352   6.184   7.335  2.9347 -1.1301  1.0262
 4377TIP3    H237327   3.354   6.042   7.284 -0.4848 -1.1882  0.8404
 4378TIP3   OH237328   3.282   1.204   7.112  0.2711  0.2592  0.6229
 4378TIP3    H137329   3.256   1.114   7.092  0.3897 -0.0982  1.9649
 4378TIP3    H237330   3.201   1.255   7.103 -0.1219 -0.2375  1.2327
 4379TIP3   OH237331   2.604   4.322   8.033 -0.4799  0.3990 -0.4699
 4379TIP3    H137332   2.698   4.305   8.037 -0.8936 -1.9895  0.7461
 4379TIP3    H237333   2.591   4.365   7.948  1.3886 -1.4195 -1.7665
 4380TIP3   OH237334   7.353   3.121   7.130  0.5641 -0.2040  0.0421
 4380TIP3    H137335   7.276   3.174   7.105  2.3568  2.6068  0.0193
 4380TIP3    H237336   7.340   3.103   7.223 -0.5577 -0.6294 -0.1724
 4381TIP3   OH237337   0.956   2.167   8.745  0.3034 -0.1985  0.5812
 4381TIP3    H137338   1.048   2.187   8.759  0.0018  2.8760 -0.8604
 4381TIP3    H237339   0.913   2.197   8.825  0.3845  0.2551  0.4595
 4382TIP3   OH237340   2.070   0.629   8.219 -0.1164  0.5362  0.3630
 4382TIP3    H137341   2.123   0.697   8.179 -0.6323  0.5843 -0.2570
 4382TIP3    H237342   2.014   0.675   8.282  1.5664  0.3111  2.1199
 4383TIP3   OH237343   7.280   6.767   7.579  0.4360  0.1491 -0.0171
 4383TIP3    H137344   7.320   6.821   7.647  0.6489 -0.2248  0.1602
 4383TIP3    H237345   7.214   6.824   7.538  0.0422  0.2510  0.7470
 4384TIP3   OH237346   3.183   6.696   8.291  0.5450 -0.2185 -0.1704
 4384TIP3    H137347   3.225   6.686   8.205  0.0944 -0.5042 -0.3599
 4384TIP3    H237348   3.171   6.606   8.322  1.4950 -0.1021  0.5835
 4385TIP3   OH237349   1.287   3.891   8.261  0.4461  0.1062 -0.0271
 4385TIP3    H137350   1.362   3.940   8.294 -1.3893  3.3001 -0.1780
 4385TIP3    H237351   1.251   3.945   8.191 -1.2408 -1.9625 -0.8943
 4386TIP3   OH237352   6.700   5.957   8.388 -0.5128  0.0204 -0.3208
 4386TIP3    H137353   6.750   5.985   8.464 -2.0019 -0.0076  0.7268
 4386TIP3    H237354   6.683   5.863   8.402  0.2247 -0.2827 -1.3122
 4387TIP3   OH237355   2.217   3.980   7.401 -0.0479  0.0237  0.3611
 4387TIP3    H137356   2.226   3.890   7.369  0.4749  0.4384 -0.7122
 4387TIP3    H237357   2.123   3.995   7.405 -0.1932 -1.0481  2.0056
 4388TIP3   OH237358   6.539   2.236   7.501  0.1376  0.0196  0.0807
 4388TIP3    H137359   6.576   2.276   7.580  2.0828 -1.0370 -0.2356
 4388TIP3    H237360   6.505   2.151   7.531 -0.3094  0.1799  0.0244
 4389TIP3   OH237361   1.647   6.879   9.139  0.0874 -0.1024  0.0237
 4389TIP3    H137362   1.576   6.836   9.092  1.0394 -0.1297 -1.4304
 4389TIP3    H237363   1.664   6.822   9.214 -1.1303 -0.3150  0.1533
 4390TIP3   OH237364   6.631   6.187   7.175 -0.0441  0.2929  0.0208
 4390TIP3    H137365   6.632   6.150   7.087 -1.3129 -1.2303  0.5973
 4390TIP3    H237366   6.538   6.200   7.195  0.0571 -1.2683  1.8248
 4391TIP3   OH237367   2.469   2.707   8.191  0.6881 -0.0764  0.6937
 4391TIP3    H137368   2.537   2.748   8.245  2.8641 -2.0463 -0.3380
 4391TIP3    H237369   2.514   2.685   8.109 -1.2100 -1.5010 -0.0377
 4392TIP3   OH237370   0.184   3.667   7.495 -0.9936 -0.2820 -0.5452
 4392TIP3    H137371   0.189   3.652   7.590 -0.5751  1.4443 -0.2639
 4392TIP3    H237372   0.197   3.581   7.457 -1.2995 -1.0377  0.9737
 4393TIP3   OH237373   0.783   6.006   7.939  0.4726 -0.5464  0.2692
 4393TIP3    H137374   0.821   6.090   7.914 -1.1497  0.2065  0.2253
 4393TIP3    H237375   0.822   5.943   7.877 -0.7046  0.7001 -1.8493
 4394TIP3   OH237376   1.283   3.020   8.955 -0.0402 -0.1094  0.0441
 4394TIP3    H137377   1.338   2.987   8.884 -0.6054 -1.4535  0.1848
 4394TIP3    H237378   1.338   3.083   9.001  1.5369 -1.6813  0.4100
 4395TIP3   OH237379   0.656   2.123   8.175 -0.2312  0.5066  0.0745
 4395TIP3    H137380   0.670   2.185   8.247 -1.4420 -0.0540  0.8233
 4395TIP3    H237381   0.605   2.172   8.111 -0.6899  0.4703  0.4070
 4396TIP3   OH237382   2.170   6.737   7.277  0.3251 -1.1494 -0.4599
 4396TIP3    H137383   2.203   6.650   7.302  1.0316 -0.5824  0.6832
 4396TIP3    H237384   2.105   6.758   7.344 -0.7800 -1.3131 -1.4550
 4397TIP3   OH237385   5.523   4.104   8.156 -0.4617 -0.0551  0.1105
 4397TIP3    H137386   5.470   4.026   8.175  0.1542 -0.5438 -0.1375
 4397TIP3    H237387   5.556   4.132   8.241  1.7666 -1.8613 -0.0716
 4398TIP3   OH237388   5.124   0.087   8.288  0.1210  0.1411  0.4602
 4398TIP3    H137389   5.143   0.031   8.363  3.1274  0.3929  0.0095
 4398TIP3    H237390   5.131   0.176   8.322 -2.4732  0.3270  0.6853
 4399TIP3   OH237391   1.684   1.658   8.983  0.3031  0.2571 -0.1656
 4399TIP3    H137392   1.752   1.653   9.049 -0.3173 -0.0802  0.4588
 4399TIP3    H237393   1.707   1.590   8.919 -1.1185 -2.1339  1.6701
 4400TIP3   OH237394   0.074   5.165   8.034 -0.4892  0.5192 -0.5006
 4400TIP3    H137395   0.116   5.244   8.069 -0.4111  0.8673 -1.3707
 4400TIP3    H237396   0.078   5.175   7.939 -2.4642  0.5269 -0.6193
 4401TIP3   OH237397   3.313   7.382   7.894 -0.0725  0.3783  0.5233
 4401TIP3    H137398   3.293   7.313   7.957 -1.3520  0.9268  0.7480
 4401TIP3    H237399   3.368   7.443   7.943  1.5083 -0.6875  0.1728
 4402TIP3   OH237400   7.105   7.451   7.120  0.5983 -0.5336 -0.4885
 4402TIP3    H137401   7.124   7.512   7.049 -0.9227  1.2170  0.5126
 4402TIP3    H237402   7.015   7.421   7.103  0.4449 -0.5741  0.3384
 4403TIP3   OH237403   2.022   5.339   7.861 -0.0658  0.5572 -0.1516
 4403TIP3    H137404   1.939   5.335   7.813  0.0820  0.8898 -0.4428
 4403TIP3    H237405   2.008   5.408   7.926 -0.2803  0.0781  0.3165
 4404TIP3   OH237406   1.611   6.160   9.125 -0.5728  0.3924  0.7028
 4404TIP3    H137407   1.604   6.240   9.177  0.6138  1.7013 -1.0119
 4404TIP3    H237408   1.705   6.144   9.118 -0.7649 -2.6299  3.0208
 4405TIP3   OH237409   0.562   1.059   8.026  0.3205  0.0311 -0.0229
 4405TIP3    H137410   0.590   1.111   7.950  1.5510 -0.6634 -0.0855
 4405TIP3    H237411   0.579   1.115   8.101  1.8697 -0.3241 -0.0701
 4406TIP3   OH237412   2.614   1.716   7.615  0.2452  0.0952 -0.0514
 4406TIP3    H137413   2.520   1.703   7.599  0.1554 -0.5308  0.8883
 4406TIP3    H237414   2.619   1.790   7.675  0.4117  0.5955 -0.6636
 4407TIP3   OH237415   7.138   6.476   6.699 -0.2540 -0.4032  0.5536
 4407TIP3    H137416   7.137   6.388   6.737 -0.9642 -0.2846  0.8128
 4407TIP3    H237417   7.231   6.499   6.695  0.0455 -1.6417 -0.6301
 4408TIP3   OH237418   0.120   2.716   8.944  0.0734 -0.2380  0.1448
 4408TIP3    H137419   0.162   2.633   8.919  0.5256 -0.2848  1.0231
 4408TIP3    H237420   0.104   2.707   9.038 -2.4606 -0.4701 -0.2148
 4409TIP3   OH237421   6.818   3.514   7.238 -0.2504 -0.1938 -0.3736
 4409TIP3    H137422   6.869   3.531   7.158 -0.9579 -0.6642 -0.9438
 4409TIP3    H237423   6.727   3.521   7.210 -0.5445 -1.9666  0.0038
 4410TIP3   OH237424   6.415   2.294   8.305 -0.1809  0.3395 -0.7417
 4410TIP3    H137425   6.357   2.264   8.375 -1.5356  0.7106 -1.6661
 4410TIP3    H237426   6.412   2.389   8.311 -0.1642  0.3691 -1.1941
 4411TIP3   OH237427   0.053   0.607   8.206  0.1848  0.0785 -0.4905
 4411TIP3    H137428   0.109   0.683   8.188 -1.0807  0.8588 -1.2857
 4411TIP3    H237429   0.114   0.538   8.233  1.4160  1.2112 -0.2684
 4412TIP3   OH237430   1.288   2.260   9.449 -0.2318 -0.4476  0.2621
 4412TIP3    H137431   1.277   2.258   9.354  0.0566  2.9374  0.0439
 4412TIP3    H237432   1.204   2.290   9.483  0.2021  0.0741  0.9031
 4413TIP3   OH237433   1.996   5.275   9.168 -0.0118 -0.3456  0.1985
 4413TIP3    H137434   1.945   5.346   9.128  1.0616  0.0961 -0.4444
 4413TIP3    H237435   1.933   5.205   9.183 -1.0356  0.6241  0.5409
 4414TIP3   OH237436   4.796   5.635   8.358 -0.2925 -0.3161  0.3293
 4414TIP3    H137437   4.785   5.540   8.359  1.2321 -0.5352 -0.5597
 4414TIP3    H237438   4.745   5.665   8.283 -1.2598 -0.3275  0.9546
 4415TIP3   OH237439   4.134   5.665   7.833  0.4827 -0.2805 -0.5346
 4415TIP3    H137440   4.143   5.760   7.827 -1.9916  0.0184 -0.4111
 4415TIP3    H237441   4.156   5.645   7.924  0.8166  0.1926 -0.5067
 4416TIP3   OH237442   1.268   2.001   8.617 -0.3684  0.3474  0.3111
 4416TIP3    H137443   1.220   1.998   8.700 -1.0248 -0.2769 -0.0742
 4416TIP3    H237444   1.258   2.091   8.586 -1.7274  0.1096  0.0015
 4417TIP3   OH237445   0.021   1.117   8.605 -0.2018  0.3086 -0.0925
 4417TIP3    H137446  -0.035   1.040   8.599  0.1552  0.1433 -2.2067
 4417TIP3    H237447   0.091   1.091   8.665 -0.6246 -0.6681 -0.0032
 4418TIP3   OH237448   4.716   0.955   7.711 -1.3062  0.4805 -0.1369
 4418TIP3    H137449   4.810   0.948   7.697 -1.3115  1.4729 -0.7106
 4418TIP3    H237450   4.679   0.878   7.668 -0.6897 -0.5026  1.0154
 4419TIP3   OH237451   5.700   2.804   8.232  0.3658  0.5869  0.0187
 4419TIP3    H137452   5.754   2.818   8.309 -1.4111  1.4995  1.1612
 4419TIP3    H237453   5.663   2.717   8.243  1.4467  0.0213 -0.6911
 4420TIP3   OH237454   6.868   7.040   8.977 -0.0225 -0.1297  0.1031
 4420TIP3    H137455   6.787   6.988   8.968  0.4560 -0.9255  0.3034
 4420TIP3    H237456   6.915   7.024   8.896  0.6264 -0.8959  0.6170
 4421TIP3   OH237457   2.251   0.750   9.381 -0.0015 -0.3552  0.1105
 4421TIP3    H137458   2.262   0.684   9.449  1.3732 -1.6266 -1.2703
 4421TIP3    H237459   2.156   0.757   9.368 -0.1668 -2.1882  0.1868
 4422TIP3   OH237460   5.747   3.931   7.157  0.3579 -0.2889 -0.0236
 4422TIP3    H137461   5.839   3.902   7.159  0.3937 -0.1501  1.1103
 4422TIP3    H237462   5.719   3.926   7.248 -0.5556  0.3571 -0.2591
 4423TIP3   OH237463   0.492   2.096   8.487  0.1027  0.0589  0.1787
 4423TIP3    H137464   0.435   2.139   8.550  0.1667 -0.9367  0.9300
 4423TIP3    H237465   0.575   2.083   8.534 -0.4786 -2.5093  0.6194
 4424TIP3   OH237466   2.739   7.414   8.044  0.4678 -0.1201  0.5522
 4424TIP3    H137467   2.834   7.421   8.055  0.4419 -0.0246  0.7300
 4424TIP3    H237468   2.707   7.504   8.056  0.5376  0.2163 -1.4354
 4425TIP3   OH237469   6.023   5.564   8.903  0.1874  0.2953 -0.1995
 4425TIP3    H137470   5.931   5.537   8.903  0.0757  0.6113 -1.5154
 4425TIP3    H237471   6.022   5.653   8.866  1.2515 -0.6539 -2.6963
 4426TIP3   OH237472   6.435   1.690   8.158  0.0804  0.4134  0.0170
 4426TIP3    H137473   6.472   1.684   8.246  1.4556 -0.2476 -0.5700
 4426TIP3    H237474   6.503   1.733   8.106 -0.5096  0.3593 -0.8140
 4427TIP3   OH237475   4.301   0.300   9.430  0.6103 -0.5100  0.3385
 4427TIP3    H137476   4.223   0.247   9.412  0.7245  0.3471 -3.3404
 4427TIP3    H237477   4.268   0.389   9.434  1.4998  0.1541 -3.6392
 4428TIP3   OH237478   1.360   3.582   6.985 -0.2474 -0.9150 -0.0307
 4428TIP3    H137479   1.455   3.575   6.987 -0.2099 -0.5612 -0.3890
 4428TIP3    H237480   1.342   3.639   6.910 -0.5692  1.6009  1.7989
 4429TIP3   OH237481   0.540   5.376   7.939 -0.5222 -0.1290 -0.6378
 4429TIP3    H137482   0.538   5.447   8.004 -0.1869 -1.1323  0.5001
 4429TIP3    H237483   0.558   5.420   7.856  0.0699  1.0843  0.1065
 4430TIP3   OH237484   0.118   2.825   8.437 -0.1460  0.3096 -0.1465
 4430TIP3    H137485   0.122   2.838   8.531 -2.2074 -2.6236  0.4710
 4430TIP3    H237486   0.199   2.779   8.416 -0.1981 -0.0548  0.4236
 4431TIP3   OH237487   6.901   0.248   7.813 -0.2059  0.4218  0.4487
 4431TIP3    H137488   6.931   0.339   7.821 -1.1369  0.7930 -0.0893
 4431TIP3    H237489   6.924   0.208   7.897  1.1445  0.8590  0.3089
 4432TIP3   OH237490   3.600   3.522   7.724  0.1102 -0.3542  0.4350
 4432TIP3    H137491   3.691   3.513   7.696  0.0460 -0.4535  0.2585
 4432TIP3    H237492   3.550   3.531   7.643  0.0213  0.2226  0.5507
 4433TIP3   OH237493   3.486   7.113   7.984  0.1702  0.3594 -0.2719
 4433TIP3    H137494   3.461   7.132   8.075  0.8648 -1.2420  0.2905
 4433TIP3    H237495   3.568   7.161   7.972  0.2904  0.2532  0.0886
 4434TIP3   OH237496   0.190   0.296   7.066 -0.6444  0.1554  0.3531
 4434TIP3    H137497   0.139   0.372   7.038 -0.9751 -0.0451  0.4107
 4434TIP3    H237498   0.233   0.266   6.986 -0.5238  0.3903  0.3267
 4435TIP3   OH237499   5.600   7.256   9.217  0.0257  0.2609 -0.0871
 4435TIP3    H137500   5.685   7.218   9.236 -0.5436 -0.3640  1.4074
 4435TIP3    H237501   5.546   7.182   9.189 -0.9031 -0.0187  2.1925
 4436TIP3   OH237502   4.660   5.276   7.732 -0.0636 -0.0309  0.2921
 4436TIP3    H137503   4.684   5.294   7.641  1.0804 -0.9094  0.4063
 4436TIP3    H237504   4.692   5.188   7.749 -1.3680 -0.3659  1.1836
 4437TIP3   OH237505   4.445   1.073   8.856  0.5560  0.4025  0.0404
 4437TIP3    H137506   4.407   1.160   8.846  0.6120  0.3171 -0.9708
 4437TIP3    H237507   4.384   1.014   8.813  0.6473 -0.0373  0.4981
 4438TIP3   OH237508   0.587   2.541   8.249  0.5985 -0.0419 -0.2956
 4438TIP3    H137509   0.604   2.471   8.312 -1.7044  0.2868  0.8141
 4438TIP3    H237510   0.517   2.507   8.193  0.7960  0.6539 -0.9909
 4439TIP3   OH237511   0.109   4.767   7.486 -0.5309  0.3674 -0.0186
 4439TIP3    H137512   0.065   4.839   7.530 -1.8809 -0.4398 -0.0057
 4439TIP3    H237513   0.142   4.712   7.557 -0.5963  0.3221 -0.0233
 4440TIP3   OH237514   6.504   3.704   7.561 -0.3187 -0.2162 -0.2118
 4440TIP3    H137515   6.441   3.673   7.496 -0.9383 -1.9472  1.1304
 4440TIP3    H237516   6.570   3.635   7.566 -0.1027  0.0435  0.7500
 4441TIP3   OH237517   2.782   0.895   7.001  0.0270 -0.3307 -0.2189
 4441TIP3    H137518   2.757   0.952   6.928  0.5078  0.1370 -0.0171
 4441TIP3    H237519   2.874   0.875   6.986  1.2387  2.7213  2.1612
 4442TIP3   OH237520   1.976   3.676   7.632 -0.0204  0.3894 -0.5135
 4442TIP3    H137521   1.972   3.674   7.536 -1.3494  2.0026 -0.5378
 4442TIP3    H237522   1.920   3.604   7.660  1.3772 -0.9111 -0.8973
 4443TIP3   OH237523   7.581   3.202   8.365  0.0375  0.2188 -0.2787
 4443TIP3    H137524   7.614   3.168   8.448 -1.0275  1.7726  0.8171
 4443TIP3    H237525   7.544   3.125   8.321 -0.5772 -0.4075  1.2664
 4444TIP3   OH237526   3.220   0.212   8.717  0.4399  0.5206  0.2986
 4444TIP3    H137527   3.298   0.266   8.703 -1.2199  2.7315 -1.1958
 4444TIP3    H237528   3.194   0.184   8.630 -0.9531  0.6412  0.6490
 4445TIP3   OH237529   6.877   6.700   8.021 -0.2431  0.2530 -0.2743
 4445TIP3    H137530   6.964   6.662   8.036 -0.0697  0.5598 -0.4828
 4445TIP3    H237531   6.817   6.626   8.031 -0.0086  0.1492  0.4133
 4446TIP3   OH237532   5.802   4.068   9.573 -0.0457  0.1236 -0.1589
 4446TIP3    H137533   5.780   4.059   9.665  2.3367 -0.9917  0.3828
 4446TIP3    H237534   5.748   4.003   9.528 -1.4682  0.9096  0.3627
 4447TIP3   OH237535   1.671   5.668   9.201 -0.6430  0.0134 -0.0918
 4447TIP3    H137536   1.576   5.671   9.217 -0.5945 -0.7860  0.4503
 4447TIP3    H237537   1.686   5.730   9.130 -1.4106  1.0134  0.5933
 4448TIP3   OH237538   0.936   1.013   6.608 -0.5936  0.1036 -0.1930
 4448TIP3    H137539   0.985   0.958   6.669  0.4975  0.4336 -0.7429
 4448TIP3    H237540   0.848   0.975   6.607 -1.3396  1.3913  3.2461
 4449TIP3   OH237541   4.267   5.041   7.950  0.4689  0.1004  0.4869
 4449TIP3    H137542   4.257   4.954   7.987 -0.5931  0.1012  0.2297
 4449TIP3    H237543   4.295   5.026   7.859 -0.4046  0.0021  0.2293
 4450TIP3   OH237544   1.768   5.425   9.078 -0.7139 -0.1467  0.5427
 4450TIP3    H137545   1.705   5.357   9.053 -0.9846  0.8793 -1.8970
 4450TIP3    H237546   1.715   5.490   9.125 -1.8326  1.1588 -2.2813
 4451TIP3   OH237547   1.821   5.661   7.610 -0.2254 -0.3881 -0.4414
 4451TIP3    H137548   1.888   5.650   7.542 -0.8275  0.3058 -1.1726
 4451TIP3    H237549   1.861   5.720   7.674 -0.7272  1.5171 -1.7775
 4452TIP3   OH237550   4.782   0.336   8.325  1.1307  0.1618  0.3783
 4452TIP3    H137551   4.755   0.426   8.304 -1.0411 -0.3745  0.6521
 4452TIP3    H237552   4.813   0.301   8.242  0.8350  0.7804 -0.0072
 4453TIP3   OH237553   2.728   4.916   8.241 -0.1761  0.4433  0.6217
 4453TIP3    H137554   2.678   4.945   8.165 -0.7876 -0.5380  0.6261
 4453TIP3    H237555   2.662   4.879   8.300  0.6221 -1.5880  0.3094
 4454TIP3   OH237556   4.524   6.124   8.005  0.2608  0.1282  0.0054
 4454TIP3    H137557   4.493   6.198   8.057 -2.7958 -1.2960  0.4298
 4454TIP3    H237558   4.507   6.149   7.915  3.7301  1.7881 -0.3298
 4455TIP3   OH237559   5.516   5.112   9.135  0.3532  0.1003  0.1879
 4455TIP3    H137560   5.607   5.092   9.114 -0.0547 -0.5058 -1.0852
 4455TIP3    H237561   5.498   5.063   9.215  1.4158  1.0125  1.0287
 4456TIP3   OH237562   2.862   0.110   7.653 -0.7625 -0.1376 -0.6820
 4456TIP3    H137563   2.951   0.121   7.687 -0.9875 -0.6099  0.0802
 4456TIP3    H237564   2.806   0.126   7.729 -1.3798  1.1738 -1.3924
 4457TIP3   OH237565   3.080   3.000   7.813  0.3898  0.0508  0.0467
 4457TIP3    H137566   3.020   2.966   7.747 -0.3625  2.5580 -0.6602
 4457TIP3    H237567   3.167   2.980   7.779 -0.0012  0.5535 -1.2975
 4458TIP3   OH237568   1.590   1.626   8.424  0.0755 -0.8499  0.1822
 4458TIP3    H137569   1.524   1.630   8.494 -0.4065 -0.0229 -0.2935
 4458TIP3    H237570   1.546   1.665   8.348  0.8542 -1.0142 -0.3620
 4459TIP3   OH237571   1.794   7.434   8.580 -0.5566 -0.3861  0.3471
 4459TIP3    H137572   1.715   7.381   8.590 -1.7885  0.8458 -2.0046
 4459TIP3    H237573   1.829   7.410   8.495 -0.1211  1.2188  0.0362
 4460TIP3   OH237574   4.130   0.564   7.711 -0.0724  0.5501 -0.3037
 4460TIP3    H137575   4.144   0.636   7.650  0.2763  0.3302 -0.4866
 4460TIP3    H237576   4.217   0.526   7.724 -0.5625 -1.2748 -1.9587
 4461TIP3   OH237577   5.241   1.336   9.018  0.3316 -0.0556 -0.1323
 4461TIP3    H137578   5.150   1.364   9.013  0.2981  0.3469  1.9401
 4461TIP3    H237579   5.236   1.241   9.033  0.3149 -0.2436 -1.2170
 4462TIP3   OH237580   1.454   5.750   7.690  0.5398 -0.1917 -0.5009
 4462TIP3    H137581   1.455   5.844   7.671  0.3184 -0.1981 -0.5495
 4462TIP3    H237582   1.435   5.710   7.605  0.3545 -0.2640 -0.4259
 4463TIP3   OH237583   3.193   4.192   8.608  0.0515 -0.4386  0.2670
 4463TIP3    H137584   3.216   4.142   8.687 -2.4058 -0.9693  0.7278
 4463TIP3    H237585   3.159   4.275   8.641 -0.3972 -0.4056 -0.2658
 4464TIP3   OH237586   6.275   1.271   7.487 -0.8738 -0.3885 -0.1530
 4464TIP3    H137587   6.282   1.359   7.450  2.6414  0.2123  1.5182
 4464TIP3    H237588   6.292   1.213   7.412  3.0938  0.6927 -0.3085
 4465TIP3   OH237589   0.338   0.063   8.683 -0.3085  0.3289 -0.0420
 4465TIP3    H137590   0.317   0.153   8.660 -0.1621  0.2253 -0.5830
 4465TIP3    H237591   0.413   0.041   8.628 -0.9972 -0.4674 -0.6874
 4466TIP3   OH237592   4.020   0.617   8.342  0.5039  0.2896  0.2737
 4466TIP3    H137593   4.064   0.533   8.331  1.7066  1.2089 -4.1242
 4466TIP3    H237594   3.931   0.601   8.311  1.3294  0.9165 -2.7522
 4467TIP3   OH237595   6.204   4.968   9.086  0.4098  1.1330  0.4216
 4467TIP3    H137596   6.284   5.021   9.086  0.1339  1.5451  0.5189
 4467TIP3    H237597   6.200   4.931   9.174  1.2421 -0.0256  0.0069
 4468TIP3   OH237598   2.904   7.575   8.959  0.0654 -0.2774  0.4147
 4468TIP3    H137599   2.844   7.503   8.938  0.6069 -0.5130 -0.3676
 4468TIP3    H237600   2.932   7.608   8.873 -0.2852  0.9656  0.7553
 4469TIP3   OH237601   2.818   3.132   7.508  0.2268  0.3669 -0.1091
 4469TIP3    H137602   2.907   3.108   7.484  0.2527  0.7772 -0.4412
 4469TIP3    H237603   2.788   3.188   7.436 -1.4046 -2.1965 -1.5923
 4470TIP3   OH237604   1.303   0.563   8.341 -0.0070  0.2305 -0.0821
 4470TIP3    H137605   1.316   0.638   8.400  0.7820  0.0243  0.0096
 4470TIP3    H237606   1.324   0.597   8.254  1.6597 -0.2196  0.1200
 4471TIP3   OH237607   0.883   5.547   7.656  0.2988  0.1775 -0.2426
 4471TIP3    H137608   0.961   5.523   7.705  0.7026  2.5284  0.3593
 4471TIP3    H237609   0.879   5.482   7.585  2.7241 -0.1000 -0.2238
 4472TIP3   OH237610   6.659   2.186   8.252 -0.5721  0.0908  0.0527
 4472TIP3    H137611   6.680   2.114   8.311 -0.4140  1.0119  1.1666
 4472TIP3    H237612   6.594   2.238   8.300 -0.8495  0.5769 -0.8192
 4473TIP3   OH237613   6.404   4.907   6.716 -0.7660  0.1193  0.3785
 4473TIP3    H137614   6.321   4.871   6.683 -0.4864 -0.8662  0.7436
 4473TIP3    H237615   6.471   4.846   6.685 -0.3326  0.0772  1.3681
 4474TIP3   OH237616   7.551   6.986   8.351  0.9612  0.1942  0.4301
 4474TIP3    H137617   7.596   7.042   8.413 -0.6159  0.0546  1.7708
 4474TIP3    H237618   7.481   7.041   8.315 -0.5517 -0.7989  1.6986
 4475TIP3   OH237619   6.123   6.274   7.244  0.2792  0.2607 -0.1194
 4475TIP3    H137620   6.097   6.195   7.196  1.2957  0.1837 -0.5676
 4475TIP3    H237621   6.044   6.301   7.290 -0.0981 -0.9880  0.0020
 4476TIP3   OH237622   4.884   5.963   8.423  0.1745  0.5113  0.2430
 4476TIP3    H137623   4.803   5.939   8.467  0.4109  1.0420  0.9988
 4476TIP3    H237624   4.911   5.884   8.377 -0.8245  0.3678 -0.1080
 4477TIP3   OH237625   0.904   4.579   9.268  0.1915  0.3609  0.5304
 4477TIP3    H137626   0.899   4.635   9.345  0.5795 -0.5137  1.2014
 4477TIP3    H237627   0.826   4.602   9.217  1.0752  2.5511  0.0451
 4478TIP3   OH237628   0.582   6.882   7.103 -0.2317 -0.2283 -0.8370
 4478TIP3    H137629   0.611   6.954   7.158  0.6532 -0.4383 -1.0113
 4478TIP3    H237630   0.499   6.912   7.065 -1.4185 -0.4759  1.3796
 4479TIP3   OH237631   7.540   2.554   7.284  0.2496  0.4382 -0.4120
 4479TIP3    H137632   7.517   2.480   7.228  0.8740  0.7248 -1.0617
 4479TIP3    H237633   7.634   2.545   7.299  0.0904  0.3635  0.6096
 4480TIP3   OH237634   5.809   5.499   7.492  0.1333  0.1744  0.3654
 4480TIP3    H137635   5.863   5.577   7.480 -1.3340  1.1165 -0.3561
 4480TIP3    H237636   5.731   5.515   7.438 -0.5377 -1.4592  0.7955
 4481TIP3   OH237637   5.685   2.806   7.363 -0.0483  0.2238  0.7275
 4481TIP3    H137638   5.620   2.751   7.405  0.2591 -1.9740 -1.4729
 4481TIP3    H237639   5.675   2.789   7.270  2.7541  0.8335  0.2185
 4482TIP3   OH237640   2.094   4.062   8.221 -0.7670  0.5034  0.1499
 4482TIP3    H137641   2.115   3.987   8.165  0.0008 -0.3605  1.5131
 4482TIP3    H237642   2.131   4.137   8.176  0.3125 -0.2440 -0.2691
 4483TIP3   OH237643   2.539   3.798   9.217  0.5001 -0.0059 -0.3990
 4483TIP3    H137644   2.530   3.744   9.139  0.9085 -0.2708 -0.2689
 4483TIP3    H237645   2.594   3.871   9.190  1.5689 -0.6696 -0.0935
 4484TIP3   OH237646   4.823   6.623   7.467 -0.0005 -0.1512 -0.3926
 4484TIP3    H137647   4.760   6.562   7.505 -2.6773  1.2694 -2.2438
 4484TIP3    H237648   4.850   6.679   7.540 -1.7383 -0.1519  0.2895
 4485TIP3   OH237649   1.002   2.967   9.319 -0.2151 -0.3013 -0.1433
 4485TIP3    H137650   0.963   2.880   9.330 -1.4458 -0.1303 -2.4998
 4485TIP3    H237651   0.978   3.014   9.399 -0.1311 -1.8869  0.8605
 4486TIP3   OH237652   4.406   3.322   9.331  0.0532  0.3936 -0.2959
 4486TIP3    H137653   4.432   3.383   9.401  1.1473 -0.7502  0.3449
 4486TIP3    H237654   4.474   3.332   9.264 -0.0423  0.2509 -0.4141
 4487TIP3   OH237655   0.111   0.262   8.944  0.5693  0.5056  0.2968
 4487TIP3    H137656   0.027   0.242   8.901 -0.6768  0.0741  2.7465
 4487TIP3    H237657   0.130   0.185   8.997  0.3980  2.0846  2.8611
 4488TIP3   OH237658   1.228   0.149   8.240  0.5480 -0.3043  0.3363
 4488TIP3    H137659   1.241   0.214   8.310  1.1254  2.9746 -2.5590
 4488TIP3    H237660   1.317   0.124   8.214  0.3377 -1.4358  0.6328
 4489TIP3   OH237661   7.456   4.182   8.328 -0.0230 -0.4022  0.0509
 4489TIP3    H137662   7.428   4.144   8.411  0.1556 -0.1908  0.2046
 4489TIP3    H237663   7.374   4.206   8.284 -0.0913  2.6228  1.5900
 4490TIP3   OH237664   6.637   3.101   6.589  0.2821  0.3576 -0.2972
 4490TIP3    H137665   6.567   3.054   6.635  1.9524 -1.7515  0.2105
 4490TIP3    H237666   6.660   3.045   6.515  1.6515  0.8493 -0.2724
 4491TIP3   OH237667   3.466   4.019   8.591  0.4099  0.2698 -0.2012
 4491TIP3    H137668   3.556   4.051   8.599 -0.2714  1.9632  1.0845
 4491TIP3    H237669   3.420   4.056   8.665 -0.6737 -3.2032  1.0778
 4492TIP3   OH237670   7.317   3.018   7.368  0.0831  0.5585  0.3490
 4492TIP3    H137671   7.334   3.085   7.434  2.4231  0.2984  0.0962
 4492TIP3    H237672   7.377   2.948   7.389  1.5468  0.8074 -2.5081
 4493TIP3   OH237673   0.212   5.431   7.250 -0.4243  0.5079 -0.5312
 4493TIP3    H137674   0.277   5.454   7.184  0.6589 -0.1261  0.3014
 4493TIP3    H237675   0.219   5.336   7.259 -0.8234  0.5436  0.2372
 4494TIP3   OH237676   6.564   2.598   9.145  0.4585  0.1156  0.2664
 4494TIP3    H137677   6.517   2.577   9.064  2.1642  0.8587 -0.9615
 4494TIP3    H237678   6.514   2.670   9.184 -1.5874 -1.6061  1.0476
 4495TIP3   OH237679   1.602   4.890   8.278  0.2915 -0.0355 -0.1809
 4495TIP3    H137680   1.664   4.838   8.329 -0.3334 -1.0064 -0.3900
 4495TIP3    H237681   1.615   4.979   8.309  0.0666 -0.5683  1.5530
 4496TIP3   OH237682   4.758   4.182   8.784 -0.2871  0.0619 -0.6236
 4496TIP3    H137683   4.809   4.124   8.727  0.9434 -1.0338  1.4807
 4496TIP3    H237684   4.793   4.167   8.871 -1.9633  1.8314  0.4339
 4497TIP3   OH237685   1.675   7.129   7.194  0.3864  0.2211 -0.2188
 4497TIP3    H137686   1.620   7.177   7.133  0.5547  1.8975  0.8834
 4497TIP3    H237687   1.729   7.072   7.139 -1.5302 -0.5278 -1.4014
 4498TIP3   OH237688   6.255   6.449   8.299 -0.0638  0.0158  0.4894
 4498TIP3    H137689   6.315   6.394   8.248 -1.0356 -0.2151 -0.4401
 4498TIP3    H237690   6.301   6.532   8.309  0.5949 -0.3038  0.1801
 4499TIP3   OH237691   5.337   1.006   8.668  0.3229 -0.5461  0.4443
 4499TIP3    H137692   5.366   1.077   8.726 -1.2343 -0.8798  1.6769
 4499TIP3    H237693   5.269   1.046   8.614 -0.3158 -0.9925  0.9075
 4500TIP3   OH237694   5.422   7.106   9.079  0.2172  0.1006  0.0330
 4500TIP3    H137695   5.363   7.140   9.146 -0.2273  0.5729 -0.5806
 4500TIP3    H237696   5.366   7.056   9.020  0.4342  0.5011 -0.5238
 4501TIP3   OH237697   0.825   6.229   7.810 -0.3534  0.0634  0.0633
 4501TIP3    H137698   0.832   6.325   7.812 -2.8521  0.3261 -0.4397
 4501TIP3    H237699   0.843   6.206   7.719  0.4550  0.0084  0.2286
 4502TIP3   OH237700   4.352   6.917   8.316  0.3064 -0.2542  0.0414
 4502TIP3    H137701   4.268   6.943   8.354 -0.4250 -1.3774 -0.7651
 4502TIP3    H237702   4.383   6.847   8.373  0.6718  0.0987  0.2864
 4503TIP3   OH237703   6.949   3.240   7.594 -0.6961  0.0602 -0.0022
 4503TIP3    H137704   6.953   3.220   7.500 -1.2208 -3.5869  0.6143
 4503TIP3    H237705   6.857   3.257   7.611 -0.5781  0.8770 -0.1479
 4504TIP3   OH237706   0.402   0.153   8.329  0.5087  0.3079  0.1773
 4504TIP3    H137707   0.486   0.137   8.287  0.2131  2.3279 -1.3324
 4504TIP3    H237708   0.346   0.187   8.259 -1.6008 -0.9395  1.1284
 4505TIP3   OH237709   1.255   5.990   8.372 -0.2769 -0.3286 -0.0807
 4505TIP3    H137710   1.275   5.917   8.313 -0.8363 -1.0232  0.5616
 4505TIP3    H237711   1.337   6.008   8.417 -0.4883 -1.6248  0.8852
 4506TIP3   OH237712   5.188   2.367   8.986  0.5702  0.2541 -0.1667
 4506TIP3    H137713   5.141   2.393   8.907 -1.8254 -1.3651  0.6006
 4506TIP3    H237714   5.188   2.272   8.984  0.2092  0.1622  1.8612
 4507TIP3   OH237715   4.108   0.847   7.665  0.3177  0.9109  0.0783
 4507TIP3    H137716   4.131   0.829   7.574  1.6334 -2.1314  0.9024
 4507TIP3    H237717   4.014   0.829   7.670  0.7186 -1.6253 -0.1840
 4508TIP3   OH237718   4.714   3.154   9.311  0.4994  0.5534 -0.0793
 4508TIP3    H137719   4.809   3.139   9.309  0.7387  1.8324  0.1221
 4508TIP3    H237720   4.690   3.139   9.403  0.6689  0.9997  0.0451
 4509TIP3   OH237721   7.534   1.894   9.387 -0.1071  0.0750  0.2603
 4509TIP3    H137722   7.520   1.942   9.305  0.0616 -0.3081  0.0064
 4509TIP3    H237723   7.543   1.802   9.360  0.1672 -0.0246  0.6862
 4510TIP3   OH237724   5.852   1.202   7.728 -0.3274  0.3922  0.0570
 4510TIP3    H137725   5.810   1.116   7.735 -0.4074  0.5236  1.4271
 4510TIP3    H237726   5.944   1.182   7.709 -0.2327 -0.0214  0.9056
 4511TIP3   OH237727   6.738   3.334   6.681 -0.1674  0.1872 -0.1731
 4511TIP3    H137728   6.775   3.387   6.611  0.9229  0.8245  0.8507
 4511TIP3    H237729   6.689   3.265   6.636  0.3629  0.6765 -1.5421
 4512TIP3   OH237730   4.353   5.393   9.286 -0.1858  0.4211  0.1692
 4512TIP3    H137731   4.378   5.392   9.379 -0.7480  1.4493  0.3368
 4512TIP3    H237732   4.430   5.428   9.241  0.1912 -0.3432  0.2072
 4513TIP3   OH237733   3.830   4.292   8.913 -0.3534 -0.3202  0.0541
 4513TIP3    H137734   3.776   4.218   8.886 -0.0718  0.0430 -1.6540
 4513TIP3    H237735   3.920   4.260   8.908 -0.2365  0.0933 -0.5917
 4514TIP3   OH237736   4.466   6.854   9.092 -0.3665  0.1951  0.0858
 4514TIP3    H137737   4.453   6.892   9.179 -1.9693 -1.2170  0.5278
 4514TIP3    H237738   4.462   6.928   9.032  0.3988  1.1484  1.1761
 4515TIP3   OH237739   7.448   1.746   7.239  0.8160  0.9483 -0.2597
 4515TIP3    H137740   7.395   1.669   7.222  0.2213  1.5987 -1.5298
 4515TIP3    H237741   7.537   1.720   7.215  1.3680 -0.4807  2.8666
 4516TIP3   OH237742   2.758   2.660   8.686  0.3639 -0.4331  0.4192
 4516TIP3    H137743   2.796   2.638   8.601  0.2823  0.5250  0.1282
 4516TIP3    H237744   2.696   2.588   8.703 -0.7833  0.1430 -1.0712
 4517TIP3   OH237745   0.780   4.091   9.245  0.1410 -0.0359 -0.8979
 4517TIP3    H137746   0.686   4.100   9.256  0.1402  0.2596 -1.1184
 4517TIP3    H237747   0.795   3.997   9.235  0.0176 -0.2006  0.3906
 4518TIP3   OH237748   7.466   0.970   9.168  0.5567 -0.2030  0.2768
 4518TIP3    H137749   7.376   0.977   9.197 -0.5499 -0.1156 -2.8240
 4518TIP3    H237750   7.498   0.889   9.208 -0.5164  0.2616  2.1919
 4519TIP3   OH237751   4.750   7.523   8.390 -0.1598  0.4654 -0.1320
 4519TIP3    H137752   4.696   7.526   8.469 -0.5502  1.7846 -0.4113
 4519TIP3    H237753   4.709   7.456   8.336 -1.3023  1.1583 -0.1604
 4520TIP3   OH237754   3.313   7.365   8.438 -0.4258  0.5998 -0.6389
 4520TIP3    H137755   3.311   7.324   8.524 -0.9883 -0.6321 -1.2220
 4520TIP3    H237756   3.248   7.435   8.443 -1.6358 -0.5003 -0.5465
 4521TIP3   OH237757   3.622   0.744   9.592  0.3213 -0.0903  0.1363
 4521TIP3    H137758   3.646   0.769   9.681 -1.0911 -1.4990  0.9599
 4521TIP3    H237759   3.555   0.677   9.603 -1.0458  0.8159 -2.0055
 4522TIP3   OH237760   4.091   1.816   8.423  0.2841 -0.0692  0.3364
 4522TIP3    H137761   4.177   1.790   8.456 -0.4374  0.3847  2.8550
 4522TIP3    H237762   4.036   1.739   8.437  0.1626 -0.2149 -0.8689
 4523TIP3   OH237763   5.137   0.975   9.391 -0.1003  0.0709 -0.2580
 4523TIP3    H137764   5.160   1.031   9.465 -0.3009 -0.3473  0.1273
 4523TIP3    H237765   5.045   0.952   9.406  0.5148 -1.9930  0.6903
 4524TIP3   OH237766   0.455   4.198   9.302 -0.2047 -0.1305 -0.4136
 4524TIP3    H137767   0.404   4.218   9.381 -0.5968 -2.7678  0.0759
 4524TIP3    H237768   0.530   4.257   9.307 -1.5592  1.6200  0.5013
 4525TIP3   OH237769   2.431   2.770   7.039 -0.3550  0.0810 -0.1364
 4525TIP3    H137770   2.339   2.772   7.014  0.1233  2.1351 -1.9994
 4525TIP3    H237771   2.471   2.843   6.992  2.2160 -0.6376  0.7470
 4526TIP3   OH237772   4.617   2.556   9.043 -0.1592  0.1424 -0.0178
 4526TIP3    H137773   4.640   2.566   9.135 -0.6725  0.2067  0.1085
 4526TIP3    H237774   4.615   2.645   9.009  0.9629  0.0629 -0.3345
 4527TIP3   OH237775   2.385   0.568   9.593  0.7164 -0.2124  0.1362
 4527TIP3    H137776   2.427   0.510   9.657  1.3662 -0.4905 -0.5167
 4527TIP3    H237777   2.377   0.514   9.514  0.8317  0.4209 -0.3144
 4528TIP3   OH237778   2.134   2.138   7.665  0.0792 -0.0909  0.3419
 4528TIP3    H137779   2.139   2.127   7.570 -2.5343  1.5836 -0.0761
 4528TIP3    H237780   2.103   2.054   7.698  0.4556 -0.5006 -0.3255
 4529TIP3   OH237781   0.190   4.648   8.452  0.5442  0.4373 -0.1775
 4529TIP3    H137782   0.194   4.683   8.541 -1.0433  1.0890 -0.3244
 4529TIP3    H237783   0.199   4.553   8.464 -1.5863  0.3162  0.9059
 4530TIP3   OH237784   3.740   6.695   8.134 -0.2593  0.4953 -0.4616
 4530TIP3    H137785   3.818   6.666   8.181  0.6483  0.4265 -1.9404
 4530TIP3    H237786   3.702   6.763   8.190  1.7416  1.6444 -0.3920
 4531TIP3   OH237787   4.525   6.667   7.853 -0.1034  0.1523  0.1526
 4531TIP3    H137788   4.456   6.620   7.806 -1.0129  2.0622 -0.5419
 4531TIP3    H237789   4.500   6.759   7.845  1.3266  0.7362  1.8697
 4532TIP3   OH237790   4.627   2.738   8.249 -0.4483 -0.1787 -0.3867
 4532TIP3    H137791   4.641   2.644   8.234  0.4019 -0.0389 -0.5046
 4532TIP3    H237792   4.715   2.776   8.246 -0.6723  0.4713  0.7784
 4533TIP3   OH237793   5.534   2.633   7.513  0.2527  0.0319 -0.2940
 4533TIP3    H137794   5.493   2.655   7.597 -1.8472 -0.9764 -0.9693
 4533TIP3    H237795   5.551   2.539   7.519  0.2174 -0.0187 -0.9326
 4534TIP3   OH237796   4.262   7.098   8.683 -0.0511  0.3320  0.4263
 4534TIP3    H137797   4.195   7.069   8.745  1.9228 -1.4489  1.8855
 4534TIP3    H237798   4.320   7.154   8.734  0.4507  0.5696 -0.3834
 4535TIP3   OH237799   7.214   1.074   7.763 -0.2456  0.0015  0.2489
 4535TIP3    H137800   7.165   1.148   7.727 -0.7011  0.0929  1.0472
 4535TIP3    H237801   7.164   1.046   7.839  0.3586 -0.6111  0.4343
 4536TIP3   OH237802   3.818   3.430   8.760  0.3604 -0.0845  0.4814
 4536TIP3    H137803   3.825   3.343   8.721 -1.2009  0.2004 -0.5298
 4536TIP3    H237804   3.724   3.442   8.773  0.5629  1.4148  0.6751
 4537TIP3   OH237805   3.722   1.861   7.478 -0.0404  0.0153 -0.0449
 4537TIP3    H137806   3.733   1.950   7.513  0.4637 -0.1715  0.2783
 4537TIP3    H237807   3.683   1.874   7.392 -1.9066  0.4660  0.8039
 4538TIP3   OH237808   6.449   2.744   7.003 -0.0700  0.2040  0.1621
 4538TIP3    H137809   6.406   2.659   7.007  0.4056 -0.1406 -1.4349
 4538TIP3    H237810   6.542   2.724   7.009  0.0998  0.4975 -1.2195
 4539TIP3   OH237811   6.685   7.532   8.319  0.3175 -0.4639  0.4635
 4539TIP3    H137812   6.767   7.560   8.361  0.2951 -0.3263  0.4162
 4539TIP3    H237813   6.697   7.552   8.226  1.2136 -2.7357  0.0386
 4540TIP3   OH237814   1.583   0.488   7.715 -0.1749 -0.1480  0.1112
 4540TIP3    H137815   1.523   0.486   7.641  0.3889 -0.5699 -0.3379
 4540TIP3    H237816   1.589   0.397   7.744 -0.3647  0.0075  0.6566
 4541TIP3   OH237817   5.293   7.047   8.203  0.4356  0.3860 -0.4360
 4541TIP3    H137818   5.358   7.010   8.263  1.0195  0.6869 -0.8664
 4541TIP3    H237819   5.344   7.068   8.124 -0.5218 -1.1366 -1.5128
 4542TIP3   OH237820   0.212   1.643   9.531  0.5916  0.0451  0.0049
 4542TIP3    H137821   0.253   1.626   9.446  1.7064  0.3057  0.4629
 4542TIP3    H237822   0.284   1.632   9.594  0.3419  2.0293  0.7045
 4543TIP3   OH237823   5.998   4.800   8.615  0.1878 -0.0439 -0.1897
 4543TIP3    H137824   5.908   4.830   8.611  0.5859  1.1677 -0.2553
 4543TIP3    H237825   6.045   4.868   8.664  0.9964 -0.8317  0.1689
 4544TIP3   OH237826   6.795   5.358   7.167  0.0819  0.1497  0.8438
 4544TIP3    H137827   6.834   5.438   7.131  1.3757 -0.2718  1.2594
 4544TIP3    H237828   6.703   5.381   7.183  0.4544  1.5941  1.0516
 4545TIP3   OH237829   5.710   4.341   7.436  0.3065 -0.7563  0.1435
 4545TIP3    H137830   5.704   4.285   7.359 -0.2614  0.0899 -0.4388
 4545TIP3    H237831   5.651   4.301   7.500 -1.1111 -0.1348 -0.7253
 4546TIP3   OH237832   3.736   0.721   8.262  0.5488 -0.2515  0.6971
 4546TIP3    H137833   3.809   0.782   8.256  0.8741 -0.5366  1.6711
 4546TIP3    H237834   3.694   0.741   8.345  0.5388 -1.2065  0.9343
 4547TIP3   OH237835   5.364   6.329   7.277  0.0579 -0.2095  0.4844
 4547TIP3    H137836   5.403   6.414   7.260  1.0416 -0.9701 -1.2866
 4547TIP3    H237837   5.291   6.323   7.216 -0.6747 -0.2305  1.3388
 4548TIP3   OH237838   2.837   1.467   8.207  0.6556 -0.1778 -0.0894
 4548TIP3    H137839   2.824   1.560   8.193  0.8859  0.1060  1.4246
 4548TIP3    H237840   2.786   1.425   8.138 -0.4456  1.0480 -0.0563
 4549TIP3   OH237841   0.063   3.366   7.601  0.2546 -0.1876  0.5953
 4549TIP3    H137842   0.122   3.339   7.530  0.8889 -2.1575  1.7969
 4549TIP3    H237843   0.117   3.421   7.657  0.2182  0.0736  0.3732
 4550TIP3   OH237844   1.195   2.232   8.471 -0.4598  0.6012  0.2514
 4550TIP3    H137845   1.176   2.326   8.467  1.3621  1.0550  0.8127
 4550TIP3    H237846   1.243   2.214   8.390  1.2851  0.7526  1.1836
 4551TIP3   OH237847   6.802   1.488   8.589  0.4118  0.0953 -0.3108
 4551TIP3    H137848   6.857   1.555   8.630 -0.4935  0.4812  0.2988
 4551TIP3    H237849   6.742   1.536   8.533 -0.1972 -0.1940  0.0795
 4552TIP3   OH237850   7.114   4.555   8.140  0.5485  0.2046 -0.5434
 4552TIP3    H137851   7.071   4.553   8.226 -0.7640  2.1155 -1.1146
 4552TIP3    H237852   7.206   4.534   8.160  0.2650  0.5059  1.3214
 4553TIP3   OH237853   5.377   3.206   7.202 -0.1772  0.0755 -0.0235
 4553TIP3    H137854   5.311   3.262   7.160 -0.8893 -0.0430  0.9000
 4553TIP3    H237855   5.409   3.150   7.132 -1.4708 -0.2450 -0.3964
 4554TIP3   OH237856   4.980   3.086   9.617  0.0431 -0.2599  0.4877
 4554TIP3    H137857   4.967   2.997   9.650  1.5774 -0.4020  0.7622
 4554TIP3    H237858   4.937   3.142   9.681  3.6739 -0.4453  3.4421
 4555TIP3   OH237859   1.721   5.153   8.034  0.4971 -0.6302 -0.2672
 4555TIP3    H137860   1.758   5.065   8.038  3.5373  0.5655  0.8291
 4555TIP3    H237861   1.787   5.209   8.076 -1.5430  2.1103 -0.4387
 4556TIP3   OH237862   7.176   4.224   6.885  0.0815  0.0553  0.4743
 4556TIP3    H137863   7.140   4.290   6.944  0.6780  0.9516 -0.1323
 4556TIP3    H237864   7.102   4.197   6.831  0.1801  1.5466 -0.4573
 4557TIP3   OH237865   3.440   4.636   8.564 -0.1578 -0.4910 -1.1417
 4557TIP3    H137866   3.356   4.674   8.588  0.8656  1.4095 -0.3204
 4557TIP3    H237867   3.461   4.674   8.479 -0.1813 -1.0582 -1.4047
 4558TIP3   OH237868   4.381   0.802   9.756 -0.1360 -0.0252  0.2949
 4558TIP3    H137869   4.343   0.780   9.671  2.5383  3.4027 -2.0926
 4558TIP3    H237870   4.392   0.718   9.800 -0.6531 -2.1301 -3.2317
 4559TIP3   OH237871   6.291   0.379   7.661 -0.1087 -0.0722 -0.1794
 4559TIP3    H137872   6.252   0.362   7.576  2.5701 -0.6461 -1.3952
 4559TIP3    H237873   6.311   0.292   7.696  1.0532  0.2188 -0.0998
 4560TIP3   OH237874   5.265   5.497   8.648  0.1671 -0.2012 -0.3234
 4560TIP3    H137875   5.249   5.485   8.554 -1.1363 -2.0753  0.0826
 4560TIP3    H237876   5.203   5.565   8.674  1.2957  1.1367 -0.9774
 4561TIP3   OH237877   6.376   5.132   9.431  0.3458  0.3345  0.1424
 4561TIP3    H137878   6.324   5.204   9.396  1.1683  1.0873  0.4457
 4561TIP3    H237879   6.452   5.174   9.471 -0.1237 -0.5448  2.1009
 4562TIP3   OH237880   0.165   3.169   8.125  0.0743 -0.4540 -0.1314
 4562TIP3    H137881   0.181   3.201   8.214 -1.5830 -2.2175  0.8891
 4562TIP3    H237882   0.110   3.237   8.085  1.2060  0.5688 -0.0227
 4563TIP3   OH237883   2.996   0.388   8.182 -0.1789 -0.1317  0.0536
 4563TIP3    H137884   3.063   0.431   8.235 -0.6845  0.4700  0.2181
 4563TIP3    H237885   3.038   0.374   8.097  0.6288 -1.0963  0.5971
 4564TIP3   OH237886   2.098   2.813   9.144  0.2148 -0.7664 -0.2148
 4564TIP3    H137887   2.034   2.745   9.127 -1.1402  0.5355 -0.5077
 4564TIP3    H237888   2.055   2.872   9.206  1.3890 -0.2066  0.1099
 4565TIP3   OH237889   6.684   1.141   7.868 -0.3607  0.5957  0.6930
 4565TIP3    H137890   6.682   1.189   7.786 -1.7210  0.1291  0.4379
 4565TIP3    H237891   6.757   1.080   7.859 -0.1331  0.9569  0.0805
 4566TIP3   OH237892   1.608   6.549   6.530  0.1595  0.4370  0.7680
 4566TIP3    H137893   1.625   6.498   6.451 -0.5896  1.4096 -0.0547
 4566TIP3    H237894   1.566   6.629   6.498 -1.1369  0.3931  2.2564
 4567TIP3   OH237895   1.740   7.549   7.237  0.5401  1.2908 -0.4308
 4567TIP3    H137896   1.801   7.603   7.187 -0.2119  1.3577 -1.2969
 4567TIP3    H237897   1.688   7.504   7.171  1.5731 -1.0645  0.2286
 4568TIP3   OH237898   6.955   2.693   9.415  0.1064  0.5137  0.1689
 4568TIP3    H137899   6.887   2.629   9.395  1.8784 -1.5592  0.5124
 4568TIP3    H237900   6.924   2.774   9.374 -2.2071 -0.5144 -0.2765
 4569TIP3   OH237901   6.754   3.787   8.892  0.4451  0.9720 -0.2396
 4569TIP3    H137902   6.670   3.787   8.846 -0.2684 -0.0263  0.9736
 4569TIP3    H237903   6.788   3.698   8.881  0.5520  0.8949  0.6133
 4570TIP3   OH237904   4.990   1.406   7.284  0.0977 -0.2246 -0.7018
 4570TIP3    H137905   5.004   1.369   7.371 -1.7067  0.4243 -0.0774
 4570TIP3    H237906   4.895   1.407   7.273  0.2432  0.6127 -2.2935
 4571TIP3   OH237907   5.948   7.030   8.596  0.2395  0.2817 -0.6355
 4571TIP3    H137908   5.973   7.078   8.516  0.4385 -0.3727 -0.9712
 4571TIP3    H237909   5.874   6.977   8.570 -1.5767  2.1902  0.3527
 4572TIP3   OH237910   3.066   3.374   8.153 -0.3363  0.1542 -0.1916
 4572TIP3    H137911   2.995   3.327   8.110 -0.4037 -1.1913  1.2860
 4572TIP3    H237912   3.029   3.402   8.237  0.7906 -0.4137  0.5288
 4573TIP3   OH237913   4.977   4.466   8.165 -0.1006  0.0821 -0.1571
 4573TIP3    H137914   4.957   4.378   8.130 -2.3791  0.9126 -1.1614
 4573TIP3    H237915   4.926   4.472   8.245 -0.4857  0.7197 -0.4454
 4574TIP3   OH237916   4.324   2.990   8.593 -1.0693  0.1793  0.3123
 4574TIP3    H137917   4.384   2.926   8.554 -2.6404 -1.2990  0.1722
 4574TIP3    H237918   4.299   2.951   8.676 -0.1067  1.8777  1.4608
 4575TIP3   OH237919   3.233   5.134   8.878 -0.0716  0.1715 -0.0191
 4575TIP3    H137920   3.246   5.130   8.783  0.7253  1.2995  0.0172
 4575TIP3    H237921   3.277   5.057   8.912 -0.0092 -0.0212 -0.5354
 4576TIP3   OH237922   0.238   0.291   8.545 -0.2089  0.5238  0.7420
 4576TIP3    H137923   0.175   0.264   8.478  0.1713 -0.6573  0.8352
 4576TIP3    H237924   0.321   0.299   8.498  0.1620 -0.7777  1.1280
 4577TIP3   OH237925   5.055   0.552   8.529 -0.0735 -0.2221  0.5720
 4577TIP3    H137926   5.089   0.463   8.527  1.9975  0.4736  2.1324
 4577TIP3    H237927   5.059   0.577   8.622 -0.4063  1.5694  0.1324
 4578TIP3   OH237928   7.637   4.493   9.057  0.6362 -0.6559  0.1086
 4578TIP3    H137929   7.600   4.549   8.989  1.9723  1.7873  1.2913
 4578TIP3    H237930   7.679   4.553   9.118  4.1488 -3.0467  0.3173
 4579TIP3   OH237931   5.055   5.112   7.873 -0.2511 -0.1731 -1.2313
 4579TIP3    H137932   5.027   5.122   7.963 -0.0667 -1.2583 -1.0367
 4579TIP3    H237933   4.976   5.126   7.821 -0.9428 -2.0431 -0.7532
 4580TIP3   OH237934   6.196   0.106   7.131  0.3221 -0.3669  0.5025
 4580TIP3    H137935   6.266   0.070   7.186  0.3984 -0.3832  0.3945
 4580TIP3    H237936   6.115   0.079   7.175  0.3810 -0.5101  0.5249
 4581TIP3   OH237937   1.136   0.906   7.966 -0.1867  0.2812  0.8853
 4581TIP3    H137938   1.139   0.826   8.019  1.0665 -1.3855 -1.4743
 4581TIP3    H237939   1.169   0.879   7.880 -2.5883  2.6560 -0.9770
 4582TIP3   OH237940   6.102   0.492   8.080  0.0124 -0.4416 -0.0998
 4582TIP3    H137941   6.046   0.480   8.157  0.1922 -2.1004 -0.1893
 4582TIP3    H237942   6.171   0.426   8.090  1.0910  0.5440 -0.7662
 4583TIP3   OH237943   6.718   7.254   6.912 -0.2437 -0.1247 -0.5820
 4583TIP3    H137944   6.746   7.170   6.949  1.3796  0.6706  0.0808
 4583TIP3    H237945   6.792   7.284   6.860  0.4792  2.2867  1.6203
 4584TIP3   OH237946   0.929   6.741   8.637  0.2232  0.6620 -0.3962
 4584TIP3    H137947   0.849   6.705   8.600  1.4211 -2.4327 -0.2618
 4584TIP3    H237948   0.900   6.809   8.697 -2.4196 -1.2399  0.6508
 4585TIP3   OH237949   1.983   6.070   7.586 -0.3527  0.3228 -0.0321
 4585TIP3    H137950   1.942   6.000   7.536  0.6238 -0.0583 -0.3382
 4585TIP3    H237951   1.986   6.145   7.526  0.3901  0.0100 -0.3980
 4586TIP3   OH237952   1.290   1.442   8.124  0.0029 -0.0734 -0.3308
 4586TIP3    H137953   1.207   1.466   8.165  0.5670  1.7663 -0.1503
 4586TIP3    H237954   1.297   1.500   8.048 -0.4290 -2.5499 -2.3883
 4587TIP3   OH237955   0.404   1.774   8.381 -0.1597 -0.0730 -0.1857
 4587TIP3    H137956   0.495   1.757   8.356  0.1550 -0.5055  1.1563
 4587TIP3    H237957   0.404   1.767   8.476 -0.8940  3.4120  0.1865
 4588TIP3   OH237958   1.286   1.343   7.343  0.1708  0.2733  0.5872
 4588TIP3    H137959   1.314   1.418   7.291 -0.1243  0.3031  0.4723
 4588TIP3    H237960   1.192   1.336   7.328  0.1242  0.1361  0.9294
 4589TIP3   OH237961   6.761   2.690   8.967  0.4413 -0.1828  0.1135
 4589TIP3    H137962   6.682   2.642   8.991 -0.7918  1.5616 -0.2997
 4589TIP3    H237963   6.749   2.711   8.874  2.1956 -1.3316 -0.4190
 4590TIP3   OH237964   5.827   4.353   7.870 -0.1229 -0.3471  0.3810
 4590TIP3    H137965   5.860   4.274   7.826  0.1778 -1.6213  2.7071
 4590TIP3    H237966   5.732   4.339   7.876 -0.2440  0.1038 -0.3107
 4591TIP3   OH237967   7.300   4.388   7.214  0.3829 -0.3080  0.2210
 4591TIP3    H137968   7.284   4.359   7.304  2.1570 -0.4640  0.5371
 4591TIP3    H237969   7.273   4.479   7.213 -2.1178 -0.9847  0.1468
 4592TIP3   OH237970   0.343   2.397   7.761 -0.3748 -0.5986 -0.2523
 4592TIP3    H137971   0.357   2.488   7.735  0.2399 -0.3992  0.7253
 4592TIP3    H237972   0.427   2.354   7.745 -0.4619 -0.8331 -0.0860
 4593TIP3   OH237973   1.908   6.751   8.187 -0.5727 -0.0289  0.7181
 4593TIP3    H137974   1.815   6.773   8.183 -0.5976  0.0466  1.5810
 4593TIP3    H237975   1.953   6.835   8.183 -0.6068  0.0722  2.0260
 4594TIP3   OH237976   6.028   7.190   6.711  0.4990  0.0492  0.6981
 4594TIP3    H137977   6.024   7.181   6.615  3.3922 -0.6587  0.5656
 4594TIP3    H237978   6.015   7.283   6.726  0.7945  0.3005 -0.4570
 4595TIP3   OH237979   3.837   6.152   9.324 -0.4352 -0.4351 -0.0393
 4595TIP3    H137980   3.847   6.057   9.310 -1.1691 -0.8807  2.1077
 4595TIP3    H237981   3.872   6.191   9.244  1.3353 -2.4670 -0.3625
 4596TIP3   OH237982   0.456   4.098   8.003 -0.0346  0.1479 -0.3543
 4596TIP3    H137983   0.548   4.123   7.990 -0.1832  0.8059 -0.1437
 4596TIP3    H237984   0.460   4.027   8.067  0.2535  0.9477  0.5400
 4597TIP3   OH237985   2.350   0.113   8.585  0.5564  0.6987 -0.4105
 4597TIP3    H137986   2.327   0.203   8.560  0.6340  0.9442  0.3786
 4597TIP3    H237987   2.289   0.092   8.655  0.5677  0.1412 -0.5624
 4598TIP3   OH237988   7.300   6.137   7.169  0.3061 -0.0053  0.2497
 4598TIP3    H137989   7.293   6.070   7.236 -2.8044  0.3609  0.4199
 4598TIP3    H237990   7.235   6.113   7.103  2.1809  0.5049 -1.9433
 4599TIP3   OH237991   7.655   3.460   8.283 -0.0368  0.2897 -0.2512
 4599TIP3    H137992   7.648   3.383   8.339 -0.5457  1.8177  1.8971
 4599TIP3    H237993   7.722   3.514   8.323  1.1075  0.5310 -2.3437
 4600TIP3   OH237994   0.769   3.056   8.460  0.0265  0.2122 -0.5373
 4600TIP3    H137995   0.805   3.045   8.548  0.2217 -0.5841 -0.7053
 4600TIP3    H237996   0.685   3.100   8.474  0.8475  1.6735 -0.1099
 4601TIP3   OH237997   5.960   4.036   8.666 -0.3049 -0.2841  0.6223
 4601TIP3    H137998   5.933   3.998   8.750 -2.5598 -0.2126 -0.0151
 4601TIP3    H237999   5.928   4.126   8.670 -0.5655 -0.3271 -0.3658
 4602TIP3   OH238000   6.607   1.653   8.358  0.2454 -0.1418 -0.2634
 4602TIP3    H138001   6.678   1.619   8.303 -0.1613 -0.8685 -0.3442
 4602TIP3    H238002   6.652   1.700   8.428  0.7950 -0.1908 -0.5772
 4603TIP3   OH238003   6.002   1.731   8.255 -0.1775  0.4338 -0.2420
 4603TIP3    H138004   6.033   1.724   8.346 -2.9343  0.7903  0.8197
 4603TIP3    H238005   6.055   1.802   8.218  0.5110  0.7948  1.3260
 4604TIP3   OH238006   1.226   2.077   6.514 -0.0943  0.8601 -0.8107
 4604TIP3    H138007   1.267   2.038   6.437  0.7809 -0.3400  0.2383
 4604TIP3    H238008   1.243   2.016   6.585 -1.2856  1.7165  0.2647
 4605TIP3   OH238009   0.219   4.369   8.468 -0.0084 -0.0812 -0.0904
 4605TIP3    H138010   0.131   4.359   8.432 -0.3125  0.3981  0.4971
 4605TIP3    H238011   0.264   4.288   8.445 -0.7772 -0.5694  0.0782
 4606TIP3   OH238012   6.297   2.511   6.958 -0.4801 -0.0335 -0.0347
 4606TIP3    H138013   6.289   2.557   6.875  0.0696  1.2063  0.5736
 4606TIP3    H238014   6.206   2.497   6.986 -0.6600 -0.0928 -0.6395
 4607TIP3   OH238015   4.539   5.675   8.574 -0.0143 -0.1784  0.5080
 4607TIP3    H138016   4.444   5.669   8.584  0.1155  0.0049  1.9667
 4607TIP3    H238017   4.553   5.759   8.529 -0.5143  0.0352  0.7394
 4608TIP3   OH238018   0.702   3.866   9.031 -0.4949  0.1703 -0.2083
 4608TIP3    H138019   0.624   3.914   9.060 -0.0919  0.6614  0.0851
 4608TIP3    H238020   0.668   3.794   8.979 -1.3724 -1.7723  2.7877
 4609TIP3   OH238021   1.771   3.671   8.771  0.2643 -0.1620  0.4773
 4609TIP3    H138022   1.744   3.738   8.708 -0.8947 -1.5704 -0.5779
 4609TIP3    H238023   1.867   3.676   8.771  0.2182  1.0369 -0.0694
 4610TIP3   OH238024   4.306   6.999   7.602 -0.0411  0.4568  0.5520
 4610TIP3    H138025   4.391   6.974   7.566 -0.0251  1.3059 -0.0094
 4610TIP3    H238026   4.326   7.066   7.668 -0.2863  0.7545  0.3249
 4611TIP3   OH238027   5.911   6.509   9.161  0.3439  0.1673 -0.1140
 4611TIP3    H138028   5.915   6.474   9.250  2.1583  0.0019 -0.2294
 4611TIP3    H238029   5.881   6.600   9.172  1.8622  0.5970  0.8345
 4612TIP3   OH238030   5.341   7.467   8.572 -0.3464 -0.0461 -0.5648
 4612TIP3    H138031   5.251   7.480   8.541 -0.2209 -0.1533 -0.9797
 4612TIP3    H238032   5.382   7.553   8.560 -0.6856  0.2958  0.6243
 4613TIP3   OH238033   6.493   4.216   8.199  0.2500 -0.6626  0.3200
 4613TIP3    H138034   6.412   4.225   8.149  0.2427 -3.0465 -0.2179
 4613TIP3    H238035   6.559   4.261   8.146 -0.1259 -1.5042 -0.9126
 4614TIP3   OH238036   7.302   2.210   8.565 -0.1115 -0.4474 -0.1851
 4614TIP3    H138037   7.388   2.175   8.588  0.6291  1.1299 -0.4191
 4614TIP3    H238038   7.321   2.296   8.527 -1.8663  0.4134  0.7790
 4615TIP3   OH238039   6.162   5.908   9.039 -0.1216 -0.5225 -0.3813
 4615TIP3    H138040   6.221   5.850   9.087  0.4260 -0.9434 -1.5283
 4615TIP3    H238041   6.150   5.865   8.954 -0.0396  0.8219 -1.1032
 4616TIP3   OH238042   3.448   5.358   8.822 -0.7958  0.0295 -0.1970
 4616TIP3    H138043   3.522   5.395   8.774  0.0814  0.0599  1.1377
 4616TIP3    H238044   3.474   5.268   8.841 -1.6860 -0.3971 -0.8668
 4617TIP3   OH238045   4.347   6.420   9.157  0.2699 -0.2230 -0.2812
 4617TIP3    H138046   4.409   6.348   9.153  0.3850 -0.1874  0.5758
 4617TIP3    H238047   4.338   6.450   9.067  0.8760 -0.7496 -0.5200
 4618TIP3   OH238048   0.887   2.981   7.249  0.1042  0.1898  0.4836
 4618TIP3    H138049   0.825   3.014   7.184 -1.7529 -1.5373  1.2661
 4618TIP3    H238050   0.920   3.059   7.293 -0.6565  1.2218 -0.7140
 4619TIP3   OH238051   5.083   3.155   8.694 -0.0083 -0.1483  0.5435
 4619TIP3    H138052   5.077   3.125   8.784  1.2819 -0.6578  0.4750
 4619TIP3    H238053   5.014   3.222   8.686 -0.6781 -0.6865  1.6516
 4620TIP3   OH238054   4.245   1.525   7.733 -0.3831  0.0890  0.0008
 4620TIP3    H138055   4.213   1.573   7.810  0.3531 -1.6126  1.4220
 4620TIP3    H238056   4.174   1.532   7.670 -2.1215 -0.6014  1.7766
 4621TIP3   OH238057   0.608   7.520   9.335  0.6493  0.0438 -0.1084
 4621TIP3    H138058   0.647   7.438   9.305 -3.1103 -1.1934 -2.2740
 4621TIP3    H238059   0.525   7.494   9.375 -0.7556  2.7420 -1.0216
 4622TIP3   OH238060   0.942   1.303   8.941 -0.3326 -0.2011 -0.4514
 4622TIP3    H138061   0.859   1.286   8.896 -0.7813  1.0942 -0.1551
 4622TIP3    H238062   0.920   1.363   9.012  0.9183  0.4876 -0.6063
 4623TIP3   OH238063   7.428   2.421   9.372 -0.7964  0.3091  0.5601
 4623TIP3    H138064   7.425   2.406   9.278 -1.8380  0.7820  0.5001
 4623TIP3    H238065   7.355   2.481   9.389 -1.2609 -0.5554  1.8033
 4624TIP3   OH238066   1.468   3.111   7.874  0.5786 -0.1443 -0.0749
 4624TIP3    H138067   1.519   3.036   7.842  1.7106 -0.0645  1.4249
 4624TIP3    H238068   1.384   3.074   7.899  1.1129 -0.9285  0.6131
 4625TIP3   OH238069   2.506   1.802   9.099 -0.7692  0.5043 -0.1551
 4625TIP3    H138070   2.595   1.771   9.115 -0.3640  1.1905 -1.0054
 4625TIP3    H238071   2.510   1.896   9.117 -1.3669  0.5107 -0.0364
 4626TIP3   OH238072   3.623   1.722   9.401  0.7639  0.0448 -0.5191
 4626TIP3    H138073   3.543   1.669   9.391  0.2511  0.7147 -0.0455
 4626TIP3    H238074   3.691   1.669   9.361  0.5593 -1.6675  1.2223
 4627TIP3   OH238075   6.923   4.367   8.733  0.2779  0.2331  0.0264
 4627TIP3    H138076   6.980   4.421   8.680  0.2433  1.9649  1.6535
 4627TIP3    H238077   6.835   4.403   8.720  0.0217 -0.3950 -0.0354
 4628TIP3   OH238078   5.501   0.057   8.154  0.0519 -0.1493  0.6659
 4628TIP3    H138079   5.575   0.066   8.214  0.9971  0.0576 -0.4830
 4628TIP3    H238080   5.540   0.064   8.067 -1.2355 -0.7226  0.0126
 4629TIP3   OH238081   1.694   1.688   9.301  0.3371 -0.3917  0.4455
 4629TIP3    H138082   1.707   1.594   9.309 -0.4546 -0.7245 -1.5851
 4629TIP3    H238083   1.599   1.700   9.308  0.4049  0.2331  0.3947
 4630TIP3   OH238084   0.661   2.783   7.133  0.3615  0.9194  0.4718
 4630TIP3    H138085   0.678   2.813   7.044  1.8508  2.7536  1.3218
 4630TIP3    H238086   0.646   2.689   7.124  1.8119  0.8314 -1.5550
 4631TIP3   OH238087   6.617   1.791   7.475 -0.2851 -0.4666  0.0981
 4631TIP3    H138088   6.696   1.738   7.468  0.8168  1.3067 -1.8912
 4631TIP3    H238089   6.646   1.871   7.519 -0.8877  0.2752 -0.8112
 4632TIP3   OH238090   7.608   2.296   9.578  0.0067 -0.0623 -0.2630
 4632TIP3    H138091   7.542   2.350   9.534 -1.4947 -1.0480  0.6918
 4632TIP3    H238092   7.571   2.208   9.578  1.7730 -0.8467 -0.5287
 4633TIP3   OH238093   5.409   0.837   9.153 -0.2929  0.0583  0.0258
 4633TIP3    H138094   5.356   0.814   9.076 -3.3875 -1.5356  2.4040
 4633TIP3    H238095   5.349   0.830   9.226  2.8477  0.0283  2.8355
 4634TIP3   OH238096   3.872   2.097   7.237  0.3387  0.4047 -0.4168
 4634TIP3    H138097   3.803   2.041   7.202  1.0586 -1.3963  0.8890
 4634TIP3    H238098   3.833   2.138   7.314  0.8505 -1.1329  0.7171
 4635TIP3   OH238099   7.544   2.641   7.769  1.2491 -0.4192  0.1252
 4635TIP3    H138100   7.532   2.720   7.823 -0.0232  1.3449 -2.5123
 4635TIP3    H238101   7.495   2.573   7.814  1.3553  0.5980  1.8511
 4636TIP3   OH238102   2.379   4.333   7.429 -0.0110  0.8348  0.2717
 4636TIP3    H138103   2.301   4.362   7.475 -0.1622 -0.0534  0.5932
 4636TIP3    H238104   2.409   4.257   7.478  1.2063  1.3084  0.3084
 4637TIP3   OH238105   1.247   2.238   9.160 -0.0124  0.0821  0.1654
 4637TIP3    H138106   1.254   2.146   9.137  1.4352  0.4356 -0.9910
 4637TIP3    H238107   1.318   2.280   9.112  1.3148  1.3746  3.0082
 4638TIP3   OH238108   3.180   1.034   9.376 -0.0597 -0.4392  0.7362
 4638TIP3    H138109   3.086   1.017   9.378 -0.2346  0.4544  0.0485
 4638TIP3    H238110   3.219   0.954   9.412 -1.0347 -1.1280  0.2944
 4639TIP3   OH238111   3.961   1.806   8.860 -0.2011  0.4698 -0.1357
 4639TIP3    H138112   3.894   1.782   8.797 -0.1540  2.1704 -0.8919
 4639TIP3    H238113   3.913   1.852   8.930  0.2410  2.8532 -1.3051
 4640TIP3   OH238114   0.077   0.537   8.804 -0.2088  0.4104  0.0917
 4640TIP3    H138115   0.127   0.560   8.725 -2.5028  0.9629 -1.3027
 4640TIP3    H238116   0.115   0.455   8.833  2.0124  1.1957 -0.3831
 4641TIP3   OH238117   3.984   6.599   8.313 -0.1953  0.4481 -0.4146
 4641TIP3    H138118   4.058   6.570   8.366  0.1855 -0.1837 -1.2571
 4641TIP3    H238119   3.922   6.637   8.375  0.7303  0.7537  0.3289
 4642TIP3   OH238120   5.916   2.574   7.902 -0.3199  0.0921  0.7660
 4642TIP3    H138121   5.962   2.658   7.891 -0.8854  0.1202 -2.4230
 4642TIP3    H238122   5.825   2.599   7.918 -0.8821  0.2377 -2.1427
 4643TIP3   OH238123   3.658   0.477   8.332 -0.4607 -0.3414 -0.4412
 4643TIP3    H138124   3.656   0.557   8.279  2.4285 -0.3211 -0.7005
 4643TIP3    H238125   3.602   0.497   8.407  0.9762  2.4215  0.0459
 4644TIP3   OH238126   4.752   0.793   7.400 -0.1127 -0.5189 -0.2516
 4644TIP3    H138127   4.779   0.778   7.310 -0.0531 -0.6918 -0.2056
 4644TIP3    H238128   4.763   0.887   7.413  0.7228 -0.6216 -0.1547
 4645TIP3   OH238129   6.455   1.272   8.127 -0.3302 -0.1123  0.1668
 4645TIP3    H138130   6.392   1.247   8.059 -1.2768  0.3929  0.8349
 4645TIP3    H238131   6.518   1.329   8.082 -0.5348 -0.3529 -0.4358
 4646TIP3   OH238132   1.280   3.302   9.593  0.4425 -0.0843  0.6239
 4646TIP3    H138133   1.244   3.338   9.674 -3.6801  0.4319 -1.1657
 4646TIP3    H238134   1.323   3.376   9.551 -1.3483  0.8971  0.4116
 4647TIP3   OH238135   6.569   1.373   8.671 -0.0589  0.1027  0.5059
 4647TIP3    H138136   6.650   1.410   8.637  0.7673 -0.3568  1.8955
 4647TIP3    H238137   6.511   1.449   8.680 -0.1571  0.3010 -1.3887
 4648TIP3   OH238138   2.444   5.185   7.311 -0.1258  0.2467 -0.3112
 4648TIP3    H138139   2.422   5.105   7.263 -2.1672 -0.1374  1.1438
 4648TIP3    H238140   2.521   5.161   7.363 -0.9127 -0.9225  0.3736
 4649TIP3   OH238141   3.254   1.598   9.046  0.2622  0.3957  0.1132
 4649TIP3    H138142   3.308   1.523   9.072  0.8790  0.3391 -1.2065
 4649TIP3    H238143   3.317   1.668   9.028 -0.1434  0.5817 -0.6479
 4650TIP3   OH238144   6.109   3.148   8.625  0.1248  0.0574  0.4200
 4650TIP3    H138145   6.148   3.226   8.586 -1.2322  0.0099 -1.1583
 4650TIP3    H238146   6.022   3.177   8.654 -0.3555 -0.8361 -0.1009
 4651TIP3   OH238147   6.290   4.686   8.959 -0.2732 -0.2609 -0.5038
 4651TIP3    H138148   6.245   4.768   8.978 -2.5990 -1.1845 -1.5920
 4651TIP3    H238149   6.326   4.658   9.043 -0.0536  1.5016  0.0231
 4652TIP3   OH238150   7.298   0.258   8.082  0.3904  0.1217 -0.1848
 4652TIP3    H138151   7.296   0.238   7.989  0.5802  1.7506 -0.5776
 4652TIP3    H238152   7.384   0.297   8.097 -0.5932  2.3997  0.0361
 4653TIP3   OH238153   1.493   2.939   9.742 -0.2027 -0.2185 -0.1352
 4653TIP3    H138154   1.510   2.876   9.812 -0.1226  0.8800  0.8770
 4653TIP3    H238155   1.439   2.892   9.679  0.1903 -1.4074  0.3889
 4654TIP3   OH238156   6.577   0.613   7.856  0.6024  0.5846  0.5478
 4654TIP3    H138157   6.544   0.564   7.780 -1.0946  0.5782  1.2533
 4654TIP3    H238158   6.605   0.698   7.819  1.3644 -0.0168 -0.3103
 4655TIP3   OH238159   2.419   0.459   9.330  0.0166 -0.2552 -0.2127
 4655TIP3    H138160   2.461   0.373   9.334 -0.6594 -0.5509  0.5999
 4655TIP3    H238161   2.373   0.459   9.246 -0.7625 -1.0617  0.2004
 4656TIP3   OH238162   0.007   5.589   8.789  0.5628  0.1531 -0.0068
 4656TIP3    H138163  -0.034   5.568   8.706  1.0209  1.4996 -0.5949
 4656TIP3    H238164  -0.060   5.570   8.855 -1.2223  2.6622 -0.9469
 4657TIP3   OH238165   2.256   4.677   7.497  0.1814  0.0277 -0.0924
 4657TIP3    H138166   2.225   4.758   7.457  0.5185  0.3268  0.2395
 4657TIP3    H238167   2.316   4.639   7.433  1.8306  1.2318  0.6942
 4658TIP3   OH238168   7.164   6.917   6.918  0.3376  0.3854  0.5763
 4658TIP3    H138169   7.083   6.867   6.908  0.7770 -0.2585  0.2045
 4658TIP3    H238170   7.136   7.000   6.958 -0.7653  0.9304 -1.1927
 4659TIP3   OH238171   4.042   7.185   7.172 -0.3176  0.2035 -0.4264
 4659TIP3    H138172   4.013   7.094   7.161 -1.7722  0.2277  2.3408
 4659TIP3    H238173   3.977   7.237   7.124 -1.6043 -0.0682  0.9617
 4660TIP3   OH238174   6.958   0.001   7.690  0.1765  0.1814 -0.3845
 4660TIP3    H138175   6.933   0.082   7.733 -1.1667  0.5007 -1.6717
 4660TIP3    H238176   6.916  -0.068   7.742  0.1466  0.4172 -0.0969
 4661TIP3   OH238177   0.964   4.373   7.606  0.3211  0.5243  0.4823
 4661TIP3    H138178   0.965   4.368   7.511  1.1289  1.0962  0.4481
 4661TIP3    H238179   0.872   4.382   7.630  0.2445  2.1636 -0.3467
 4662TIP3   OH238180   0.841   7.344   7.630  0.2534 -0.3122  0.2235
 4662TIP3    H138181   0.873   7.280   7.692  3.1381  1.2823  0.6003
 4662TIP3    H238182   0.868   7.310   7.544 -0.3439 -0.7271  0.2015
 4663TIP3   OH238183   7.531   3.619   7.436 -0.8682  0.3647  0.1978
 4663TIP3    H138184   7.590   3.548   7.462 -0.9072  0.3002  0.1104
 4663TIP3    H238185   7.445   3.591   7.466 -0.8542  0.4612  0.3295
 4664TIP3   OH238186   6.659   3.888   7.956  0.4263 -0.9147  0.2535
 4664TIP3    H138187   6.682   3.976   7.984 -0.0160 -0.1300 -1.6934
 4664TIP3    H238188   6.725   3.832   7.996  1.9912  0.5445 -0.1791
 4665TIP3   OH238189   5.803   6.650   8.369 -0.1194  0.2250  0.1241
 4665TIP3    H138190   5.848   6.566   8.363  3.3073  1.9161 -0.1946
 4665TIP3    H238191   5.741   6.648   8.296  1.6596 -1.0941 -1.4679
 4666TIP3   OH238192   5.936   7.141   7.799 -0.4019  0.5352 -0.2570
 4666TIP3    H138193   6.020   7.146   7.753  0.7844 -0.1964  1.6931
 4666TIP3    H238194   5.871   7.144   7.729  1.2732 -0.2297 -1.9621
 4667TIP3   OH238195   1.369   5.602   8.415  0.4885  0.3203 -0.1849
 4667TIP3    H138196   1.363   5.681   8.470  0.5290 -0.5837  1.1739
 4667TIP3    H238197   1.333   5.629   8.331  0.3790  1.7563  0.2893
 4668TIP3   OH238198   7.620   7.596   8.788  0.3186 -0.9011 -0.0679
 4668TIP3    H138199   7.567   7.671   8.816  0.5886 -0.9209  0.5210
 4668TIP3    H238200   7.683   7.584   8.860  1.2430 -0.7586 -0.8348
 4669TIP3   OH238201   7.656   0.144   7.682  0.3210 -0.4426 -0.4484
 4669TIP3    H138202   7.720   0.131   7.612  0.8374 -0.4537  0.0179
 4669TIP3    H238203   7.659   0.062   7.731  0.9501  0.0649  0.3788
 4670TIP3   OH238204   4.103   1.546   8.336  0.3124 -0.1053  0.4245
 4670TIP3    H138205   4.165   1.590   8.277  1.7090 -3.1180 -0.5301
 4670TIP3    H238206   4.149   1.544   8.421  0.3372  0.0381  0.4161
 4671TIP3   OH238207   7.577   6.733   8.465  0.1782  0.2106 -0.0742
 4671TIP3    H138208   7.667   6.733   8.495  0.2770 -0.8425 -0.3214
 4671TIP3    H238209   7.572   6.805   8.402  0.9117  0.1028 -0.2560
 4672TIP3   OH238210   6.539   4.097   9.420 -0.5329  0.4972 -0.3687
 4672TIP3    H138211   6.478   4.117   9.492 -2.3823 -0.5735 -1.5386
 4672TIP3    H238212   6.482   4.068   9.349  1.4149 -1.1187 -1.3644
 4673TIP3   OH238213   2.005   4.653   9.042  0.8477  0.6948 -0.0650
 4673TIP3    H138214   2.006   4.580   8.980  0.2214  1.2399 -0.7325
 4673TIP3    H238215   1.927   4.638   9.095  1.3297  0.2819  0.5393
 4674TIP3   OH238216   1.728   2.920   9.378  0.1657  0.1782  0.5286
 4674TIP3    H138217   1.670   2.844   9.371  0.2677  0.2421 -1.7495
 4674TIP3    H238218   1.699   2.979   9.309  1.7013  1.0692  0.5979
 4675TIP3   OH238219   0.507   5.960   7.028  0.0255  0.0740  0.1297
 4675TIP3    H138220   0.599   5.965   7.054  0.0007 -0.6697  0.4111
 4675TIP3    H238221   0.508   5.964   6.932  0.3110  0.5435  0.1525
 4676TIP3   OH238222   3.010   3.280   8.726 -0.5028 -0.0033  0.5145
 4676TIP3    H138223   3.060   3.229   8.790 -1.9438  0.6169  2.2242
 4676TIP3    H238224   3.018   3.370   8.756 -1.3575  0.2735 -0.0747
 4677TIP3   OH238225   3.061   1.800   7.091 -0.5787 -0.2450 -0.3056
 4677TIP3    H138226   3.050   1.892   7.114 -1.0123 -0.5848  0.9305
 4677TIP3    H238227   2.972   1.767   7.077 -0.4216 -0.4584 -0.8379
 4678TIP3   OH238228   4.298   6.573   7.755  0.1590 -0.1238 -0.2576
 4678TIP3    H138229   4.219   6.616   7.786 -0.1160 -2.5026  2.7590
 4678TIP3    H238230   4.267   6.505   7.695  0.0502 -0.1142 -0.2124
 4679TIP3   OH238231   6.626   6.923   8.934  0.2600  0.7697  0.4644
 4679TIP3    H138232   6.544   6.962   8.906 -0.0163 -0.8318 -1.1331
 4679TIP3    H238233   6.604   6.832   8.954  1.4028  0.6624  1.3578
 4680TIP3   OH238234   5.943   3.183   9.500  0.0388  0.0133  0.5100
 4680TIP3    H138235   5.906   3.269   9.520  0.5662  0.2327  0.5692
 4680TIP3    H238236   5.869   3.122   9.507 -0.6701  0.6419 -0.9549
 4681TIP3   OH238237   7.669   1.894   7.023 -0.9913  0.0132 -0.0463
 4681TIP3    H138238   7.752   1.874   6.978 -1.0041  0.9926 -0.5512
 4681TIP3    H238239   7.656   1.821   7.083  0.6776  0.2353  0.6528
 4682TIP3   OH238240   1.236   1.649   9.449  0.3780  0.0958 -0.5614
 4682TIP3    H138241   1.222   1.632   9.542 -1.3149 -0.5788 -0.9022
 4682TIP3    H238242   1.191   1.732   9.433 -1.3405 -0.8968 -1.1914
 4683TIP3   OH238243   5.707   2.092   9.297  0.4902  0.1777 -0.4329
 4683TIP3    H138244   5.760   2.127   9.369  0.3940 -0.7359  0.1002
 4683TIP3    H238245   5.768   2.035   9.249  0.6069  0.9353 -1.2018
 4684TIP3   OH238246   4.264   5.034   8.652  0.0226  0.1127  0.0285
 4684TIP3    H138247   4.259   5.048   8.557 -0.6352  0.4280  0.1049
 4684TIP3    H238248   4.298   5.116   8.687  1.7829 -0.5386 -0.0687
 4685TIP3   OH238249   6.680   0.987   9.380 -0.2426  0.4023 -0.1204
 4685TIP3    H138250   6.645   0.900   9.402  0.2152  0.7229  2.1169
 4685TIP3    H238251   6.700   1.027   9.464  0.3476  2.3845 -1.1328
 4686TIP3   OH238252   6.647   5.452   6.848 -0.8739 -0.2295 -0.6327
 4686TIP3    H138253   6.732   5.493   6.829 -1.0524  0.1735 -0.5746
 4686TIP3    H238254   6.587   5.526   6.859 -1.1888 -0.5093 -0.4655
 4687TIP3   OH238255   7.608   5.301   8.501 -0.3604  0.8764  0.2737
 4687TIP3    H138256   7.541   5.237   8.526 -0.1705  0.0289 -1.2543
 4687TIP3    H238257   7.630   5.279   8.411  1.2271  1.8092  0.3870
 4688TIP3   OH238258   0.116   6.837   7.034 -0.3036  0.1316 -0.0524
 4688TIP3    H138259   0.167   6.911   7.001  2.8136 -2.0436 -0.5428
 4688TIP3    H238260   0.177   6.763   7.033 -2.7216 -2.1106  2.0391
 4689TIP3   OH238261   0.418   2.830   8.065  0.3758 -0.1930  0.2495
 4689TIP3    H138262   0.393   2.895   7.999 -0.5964  1.0367  1.7256
 4689TIP3    H238263   0.335   2.787   8.087  0.3475  0.5941  1.8189
 4690TIP3   OH238264   6.603   6.092   6.917 -0.2442 -0.5620  0.0398
 4690TIP3    H138265   6.586   6.152   6.844 -0.0899 -0.1644  0.3314
 4690TIP3    H238266   6.525   6.037   6.922  0.1723 -1.3134 -1.1180
 4691TIP3   OH238267   3.218   2.714   7.949  0.1694  0.5595  0.7106
 4691TIP3    H138268   3.172   2.680   7.872 -0.6627  1.0049  0.9953
 4691TIP3    H238269   3.274   2.784   7.915 -0.6339  1.1539  0.5751
 4692TIP3   OH238270   6.955   3.161   6.757  0.4973 -0.5513  0.3007
 4692TIP3    H138271   7.028   3.216   6.730  0.9449 -0.9108  0.7662
 4692TIP3    H238272   6.877   3.216   6.745  1.0061  0.5133  1.6444
 4693TIP3   OH238273   5.497   2.472   8.497 -0.5466 -0.2150  0.2922
 4693TIP3    H138274   5.430   2.526   8.538  1.3451  2.2997  0.3426
 4693TIP3    H238275   5.562   2.457   8.566 -0.3799 -1.4315 -0.1004
 4694TIP3   OH238276   0.792   5.577   7.939 -0.1390  0.6115 -0.2201
 4694TIP3    H138277   0.882   5.599   7.915 -0.1587  0.5091 -0.3888
 4694TIP3    H238278   0.765   5.511   7.874  0.2937 -0.7467  0.9208
 4695TIP3   OH238279   6.158   6.811   9.146 -1.3402 -0.3100 -0.3292
 4695TIP3    H138280   6.194   6.772   9.067 -1.0558 -1.0580  0.1594
 4695TIP3    H238281   6.064   6.812   9.132 -1.3333 -0.9739 -0.4413
 4696TIP3   OH238282   5.704   4.954   6.595 -0.1099 -0.4914 -0.3506
 4696TIP3    H138283   5.617   4.974   6.630  0.2365 -0.3606  0.4720
 4696TIP3    H238284   5.696   4.965   6.501 -0.6468  0.8699 -0.1731
 4697TIP3   OH238285   3.548   6.980   8.984 -0.2272  0.3128  0.1343
 4697TIP3    H138286   3.468   6.968   9.035  1.3507 -1.6679  2.3657
 4697TIP3    H238287   3.599   6.901   9.000  0.9036  0.0434 -3.7599
 4698TIP3   OH238288   2.911   1.517   9.294 -0.5074  0.0698  0.2532
 4698TIP3    H138289   2.930   1.506   9.387  0.4634 -1.5284 -0.0845
 4698TIP3    H238290   2.931   1.431   9.256 -0.4893  0.8160 -1.4868
 4699TIP3   OH238291   0.200   6.339   6.762  0.0315  0.1057  0.2137
 4699TIP3    H138292   0.169   6.427   6.781 -1.6344 -0.2260 -0.7900
 4699TIP3    H238293   0.199   6.332   6.667 -1.2079 -1.4082  0.2887
 4700TIP3   OH238294   2.866   1.247   6.942 -0.1613  0.1760 -0.0795
 4700TIP3    H138295   2.876   1.342   6.937  1.1575  0.0187 -0.9012
 4700TIP3    H238296   2.805   1.226   6.872 -0.1495  0.3844 -0.1552
 4701TIP3   OH238297   0.359   2.315   9.702  0.4530  0.3627  0.1752
 4701TIP3    H138298   0.300   2.266   9.644  0.1292 -1.3981  1.8860
 4701TIP3    H238299   0.302   2.348   9.771  1.0152  1.3888  0.1604
 4702TIP3   OH238300   1.968   4.496   7.306  0.6215  0.3827 -0.2329
 4702TIP3    H138301   1.995   4.447   7.229 -0.2624 -0.3555 -0.0852
 4702TIP3    H238302   1.987   4.587   7.285  0.4625  0.1788 -1.2873
 4703TIP3   OH238303   7.211   5.609   7.508  0.0818 -0.5581 -0.2559
 4703TIP3    H138304   7.307   5.608   7.508  0.0845 -1.3500  0.6978
 4703TIP3    H238305   7.188   5.631   7.418  1.1606  1.3353 -0.1273
 4704TIP3   OH238306   1.705   7.467   7.496  0.3306 -0.0887 -0.0549
 4704TIP3    H138307   1.703   7.491   7.403  0.2596  1.4465  0.3191
 4704TIP3    H238308   1.715   7.550   7.542  0.9148 -0.8832  1.3023
 4705TIP3   OH238309   2.171   5.664   7.991 -0.0087 -0.6383  0.3214
 4705TIP3    H138310   2.258   5.626   7.984 -0.3216 -1.2057 -0.6008
 4705TIP3    H238311   2.178   5.749   7.948 -0.0011 -0.8464 -0.0934
 4706TIP3   OH238312   1.981   4.393   8.813 -0.1387  0.1256  0.3329
 4706TIP3    H138313   2.058   4.343   8.837 -0.0048 -0.0002 -0.3340
 4706TIP3    H238314   2.002   4.431   8.727 -0.5810  0.5829  0.4179
 4707TIP3   OH238315   5.621   2.648   7.908  0.4798  0.0285 -0.1767
 4707TIP3    H138316   5.631   2.706   7.983 -1.1805 -0.7967  0.7364
 4707TIP3    H238317   5.557   2.693   7.852 -1.9092 -1.4403  1.2016
 4708TIP3   OH238318   4.758   6.961   8.250  0.9609 -0.1688 -0.7047
 4708TIP3    H138319   4.667   6.974   8.223  0.5412 -0.7995  0.3273
 4708TIP3    H238320   4.796   7.048   8.248 -0.3865  0.5407  1.2606
 4709TIP3   OH238321   2.182   5.143   8.449 -0.1027  0.2008  0.0867
 4709TIP3    H138322   2.149   5.103   8.368  0.6242  1.0552 -0.6637
 4709TIP3    H238323   2.159   5.081   8.518  0.5747 -1.2665 -0.9673
 4710TIP3   OH238324   4.849   5.467   7.246 -0.1360 -0.0495 -0.1471
 4710TIP3    H138325   4.836   5.559   7.221  1.2226 -0.0414 -0.9588
 4710TIP3    H238326   4.924   5.439   7.193  0.7936 -1.0172  1.6016
 4711TIP3   OH238327   0.897   6.625   9.043 -0.1978  0.3760  0.1161
 4711TIP3    H138328   0.976   6.593   8.999 -0.3545 -1.5538  1.1102
 4711TIP3    H238329   0.925   6.702   9.091  1.0409 -0.1562  0.2850
 4712TIP3   OH238330   4.119   0.103   9.327 -0.4595  0.1057  0.2245
 4712TIP3    H138331   4.119   0.011   9.353  0.0090  0.2345  0.7100
 4712TIP3    H238332   4.032   0.118   9.290 -1.3112  0.0024  2.0641
 4713TIP3   OH238333   1.856   1.887   9.184  0.4748  0.3930 -0.0836
 4713TIP3    H138334   1.795   1.837   9.238  0.4887  1.2741  0.7765
 4713TIP3    H238335   1.893   1.823   9.123  0.8031 -0.7336  1.2532
 4714TIP3   OH238336   7.399   0.223   9.321 -0.2080 -0.2207 -0.2511
 4714TIP3    H138337   7.432   0.298   9.370 -1.6144  0.2817 -0.0382
 4714TIP3    H238338   7.304   0.228   9.330 -0.3705 -1.5425 -0.9563
 4715TIP3   OH238339   0.848   2.958   8.137 -0.3475 -0.1280  0.6489
 4715TIP3    H138340   0.785   2.887   8.123 -0.6441  0.5169 -1.7108
 4715TIP3    H238341   0.797   3.038   8.121  0.7873  0.4532 -0.1591
 4716TIP3   OH238342   6.277   3.926   8.245  0.2811  0.3582  0.5139
 4716TIP3    H138343   6.229   3.843   8.243 -1.0579  1.1090 -1.0247
 4716TIP3    H238344   6.218   3.986   8.290  0.1440  1.0581 -0.5495
 4717TIP3   OH238345   1.323   5.824   8.883  0.1016 -0.5318  0.1009
 4717TIP3    H138346   1.370   5.900   8.918  1.3573 -1.8587  1.4300
 4717TIP3    H238347   1.238   5.826   8.925  0.3393 -0.1776  0.5719
 4718TIP3   OH238348   5.138   4.625   6.836  0.1353 -0.1508  0.0417
 4718TIP3    H138349   5.072   4.615   6.905 -0.2056  1.8662  0.0658
 4718TIP3    H238350   5.155   4.536   6.806 -0.4316 -0.9878  2.0485
 4719TIP3   OH238351   3.245   1.410   7.319 -0.5781  0.0945  0.3601
 4719TIP3    H138352   3.153   1.432   7.309 -0.6215  0.1330  0.7951
 4719TIP3    H238353   3.252   1.320   7.288 -0.2382  0.9257 -2.2189
 4720TIP3   OH238354   6.258   1.303   6.989  0.2304  0.0422  0.2417
 4720TIP3    H138355   6.275   1.394   6.964 -0.5063 -0.3042 -1.7383
 4720TIP3    H238356   6.182   1.278   6.937  1.1560 -2.0766 -0.1930
 4721TIP3   OH238357   3.524   5.974   8.700  0.6259  0.6222 -0.5734
 4721TIP3    H138358   3.527   5.890   8.655 -0.3218  0.9311 -1.2390
 4721TIP3    H238359   3.457   5.962   8.767  1.7628  0.2872  0.5467
 4722TIP3   OH238360   0.691   1.876   8.305  0.1721 -0.2489 -0.0586
 4722TIP3    H138361   0.707   1.883   8.399  1.0328  1.0221 -0.2700
 4722TIP3    H238362   0.653   1.960   8.281  0.2074 -0.4616 -0.8920
 4723TIP3   OH238363   6.042   7.335   8.563  0.3419 -0.4577 -0.7343
 4723TIP3    H138364   6.036   7.426   8.534  0.4723 -0.2979 -0.2506
 4723TIP3    H238365   6.135   7.316   8.563  0.4649 -0.0078  0.9645
 4724TIP3   OH238366   1.074   5.943   8.945  0.3492  0.3798  0.4562
 4724TIP3    H138367   1.093   5.982   8.860  1.8549  0.0256  0.5998
 4724TIP3    H238368   0.987   5.977   8.968  0.7595  2.0528 -0.3224
 4725TIP3   OH238369   2.183   6.483   9.225  0.4928 -0.2810  0.4826
 4725TIP3    H138370   2.106   6.476   9.168 -0.5265 -2.3273  1.9829
 4725TIP3    H238371   2.213   6.573   9.214 -1.7816  0.4208 -0.5780
 4726TIP3   OH238372   4.189   4.036   8.406 -0.2618  0.5320  0.5387
 4726TIP3    H138373   4.105   3.991   8.417 -0.8078  1.4475  0.2291
 4726TIP3    H238374   4.254   3.969   8.425 -1.0384 -0.4545 -0.1385
 4727TIP3   OH238375   4.705   5.225   8.539 -0.7399  0.0361 -0.3411
 4727TIP3    H138376   4.676   5.296   8.596  0.0206  0.0834 -0.0133
 4727TIP3    H238377   4.737   5.268   8.461  1.3003  0.1851  0.5261
 4728TIP3   OH238378   3.830   5.670   7.684  0.0054 -0.1158 -0.0494
 4728TIP3    H138379   3.852   5.655   7.592 -1.4318 -0.0791 -0.4260
 4728TIP3    H238380   3.890   5.614   7.733  0.4322 -0.5348 -1.0301
 4729TIP3   OH238381   6.931   7.114   9.234  0.2155 -0.2302 -0.1847
 4729TIP3    H138382   6.913   7.132   9.142 -0.7839  1.9400  0.3518
 4729TIP3    H238383   6.964   7.025   9.236 -0.7044 -0.6810 -2.5134
 4730TIP3   OH238384   0.307   0.152   6.748 -0.4687  0.1295 -0.0711
 4730TIP3    H138385   0.223   0.106   6.740 -0.1542 -0.3430 -0.7939
 4730TIP3    H238386   0.367   0.101   6.693 -0.0247  1.2084 -0.6089
 4731TIP3   OH238387   7.478   0.121   7.327  0.5778  0.3525  0.3280
 4731TIP3    H138388   7.396   0.125   7.277  0.6773 -0.0348  0.1282
 4731TIP3    H238389   7.545   0.103   7.261  0.7342  0.0039  0.5802
 4732TIP3   OH238390   5.890   6.260   8.012 -0.1251  0.5179 -0.8365
 4732TIP3    H138391   5.807   6.258   8.059  0.4937  0.7962  0.3194
 4732TIP3    H238392   5.870   6.301   7.928 -1.2644  0.0241 -0.8186
 4733TIP3   OH238393   5.304   1.989   8.468  0.2766  0.5008  0.5740
 4733TIP3    H138394   5.340   1.960   8.384 -0.5783 -2.2425  1.0367
 4733TIP3    H238395   5.210   1.989   8.454  0.1120 -0.3524  1.6148
 4734TIP3   OH238396   0.274   6.813   8.331  0.4104  0.0357 -0.6469
 4734TIP3    H138397   0.246   6.895   8.291  0.7198  0.6413  0.3553
 4734TIP3    H238398   0.355   6.834   8.377  0.3342 -0.7575 -0.1149
 4735TIP3   OH238399   3.062   6.073   8.734  0.6134  0.7062 -0.6937
 4735TIP3    H138400   3.018   6.003   8.685  0.5507  0.1151  0.1919
 4735TIP3    H238401   3.140   6.031   8.771  1.1888  1.3974 -1.0881
 4736TIP3   OH238402   1.244   4.920   8.767 -0.1053 -0.7154  0.2086
 4736TIP3    H138403   1.270   4.882   8.683  0.2318  0.5242 -0.2596
 4736TIP3    H238404   1.149   4.928   8.761 -0.1157 -0.9223  0.0782
 4737TIP3   OH238405   0.653   3.381   8.834 -0.2379 -0.3071  0.2963
 4737TIP3    H138406   0.620   3.299   8.872 -2.0661 -0.6187 -1.7165
 4737TIP3    H238407   0.681   3.356   8.746  1.3839  0.8413  0.4617
 4738TIP3   OH238408   6.317   5.317   6.754  0.4160 -0.1604  0.0129
 4738TIP3    H138409   6.400   5.292   6.713  0.3415 -0.2528 -0.0789
 4738TIP3    H238410   6.307   5.257   6.828  1.0458  0.6412  0.7752
 4739TIP3   OH238411   1.207   1.017   7.548 -0.3189 -0.0962 -0.1215
 4739TIP3    H138412   1.187   1.110   7.544 -0.3418 -0.1143 -0.5125
 4739TIP3    H238413   1.302   1.012   7.532  0.0066 -0.0166  1.6382
 4740TIP3   OH238414   2.872   7.196   8.742  0.9709 -0.1353 -0.1245
 4740TIP3    H138415   2.813   7.129   8.710  1.9416 -0.8205 -0.5243
 4740TIP3    H238416   2.842   7.277   8.700 -0.2353 -0.2917  0.3984
 4741TIP3   OH238417   3.268   6.085   6.656 -0.4917 -0.3348 -0.0673
 4741TIP3    H138418   3.315   6.077   6.739  0.6055 -1.3078 -0.7455
 4741TIP3    H238419   3.245   5.995   6.632  0.3317 -0.2108 -1.4236
 4742TIP3   OH238420   0.420   0.997   8.499 -0.4445  0.2953 -0.2563
 4742TIP3    H138421   0.348   0.939   8.473  0.2821  0.0058 -1.7398
 4742TIP3    H238422   0.381   1.084   8.501 -0.8634  0.1347 -0.9834
 4743TIP3   OH238423   0.101   1.313   9.424 -0.0129 -0.3564  0.5394
 4743TIP3    H138424   0.092   1.327   9.329  1.1322 -1.3909  0.2617
 4743TIP3    H238425   0.019   1.271   9.449 -0.4915  0.2776  0.0867
 4744TIP3   OH238426   6.653   1.388   7.987  0.4056  0.0766  0.1954
 4744TIP3    H138427   6.641   1.456   7.921  1.2836  1.5014  1.4355
 4744TIP3    H238428   6.681   1.311   7.938 -1.6106  0.2650 -1.3698
 4745TIP3   OH238429   3.186   1.413   7.778  0.4031  0.2226  0.5421
 4745TIP3    H138430   3.168   1.361   7.700  0.4120 -0.1439  0.7817
 4745TIP3    H238431   3.211   1.499   7.744  1.9261 -0.3735  0.0881
 4746TIP3   OH238432   2.696   3.073   8.129  0.3414 -0.1408 -0.0259
 4746TIP3    H138433   2.722   2.983   8.148  2.7352  0.4723 -0.1430
 4746TIP3    H238434   2.630   3.093   8.196 -1.1405 -2.3269 -0.7428
 4747TIP3   OH238435   7.133   1.815   8.504  0.2722  0.2039 -0.6566
 4747TIP3    H138436   7.125   1.910   8.491 -1.3723  0.1447 -0.2444
 4747TIP3    H238437   7.087   1.776   8.430 -0.3212 -0.2448 -0.0638
 4748TIP3   OH238438   5.026   5.398   7.031  0.1828  0.3542 -0.0045
 4748TIP3    H138439   5.022   5.491   7.010  1.7730  0.1414 -1.5182
 4748TIP3    H238440   5.116   5.384   7.063  0.1110 -0.7112 -0.2146
 4749TIP3   OH238441   3.570   5.199   7.347  0.8749 -0.7518  0.0352
 4749TIP3    H138442   3.570   5.157   7.262  0.0576  1.3080 -1.0471
 4749TIP3    H238443   3.497   5.159   7.394 -0.6512  0.2217 -1.4057
 4750TIP3   OH238444   7.306   4.003   7.640 -0.3087 -0.2683  1.1510
 4750TIP3    H138445   7.261   4.086   7.655 -0.1235  0.2047 -0.6172
 4750TIP3    H238446   7.260   3.964   7.565 -0.1953 -1.6217  1.7626
 4751TIP3   OH238447   2.779   2.034   8.656 -0.5358  0.2258 -0.1575
 4751TIP3    H138448   2.712   2.101   8.664 -0.7813 -0.1682  1.3446
 4751TIP3    H238449   2.758   1.970   8.724  0.5261 -0.6436 -0.6112
 4752TIP3   OH238450   6.429   7.233   7.496 -0.3845 -0.2230  0.4328
 4752TIP3    H138451   6.421   7.325   7.472  1.6075 -0.2271 -0.4695
 4752TIP3    H238452   6.403   7.185   7.417 -0.9612 -0.4231  0.7418
 4753TIP3   OH238453   7.431   5.024   9.175  0.1055 -0.3432  0.4121
 4753TIP3    H138454   7.434   4.979   9.090  1.3163 -1.6514  1.1066
 4753TIP3    H238455   7.500   4.983   9.226 -1.3337 -0.3846  2.4405
 4754TIP3   OH238456   1.339   3.931   7.347  0.4161  0.1319 -0.2963
 4754TIP3    H138457   1.300   3.996   7.406 -1.8187  0.4574 -1.9948
 4754TIP3    H238458   1.309   3.847   7.380  1.2178  0.1266  0.4378
 4755TIP3   OH238459   1.732   3.001   7.965  0.1302  0.0763  0.2620
 4755TIP3    H138460   1.827   2.992   7.969  0.0510 -0.6558  1.0145
 4755TIP3    H238461   1.701   2.913   7.945 -0.3393  0.6059 -1.4464
 4756TIP3   OH238462   1.819   5.834   6.993  0.2730  0.0699 -0.3689
 4756TIP3    H138463   1.733   5.809   6.960  0.5715 -0.9344 -0.4122
 4756TIP3    H238464   1.871   5.851   6.914  0.1525  0.6019 -0.3433
 4757TIP3   OH238465   7.097   4.212   7.743  0.2837  0.1944  0.1314
 4757TIP3    H138466   7.068   4.303   7.736  0.6125  0.4304  1.5856
 4757TIP3    H238467   7.077   4.187   7.833  2.1355 -0.4883  0.3933
 4758TIP3   OH238468   2.071   3.461   8.604  0.0685  0.2061 -0.1171
 4758TIP3    H138469   2.043   3.530   8.543  0.0175 -0.2021 -0.5629
 4758TIP3    H238470   1.997   3.401   8.608 -0.9746  1.5378  2.3632
 4759TIP3   OH238471   2.750   5.764   8.901  0.0739  0.4540  0.1390
 4759TIP3    H138472   2.696   5.792   8.975 -0.2053 -0.2221  0.2018
 4759TIP3    H238473   2.714   5.679   8.876  0.7228  0.2766 -0.2177
 4760TIP3   OH238474   3.876   3.520   7.630  0.2140 -0.4720 -0.0979
 4760TIP3    H138475   3.920   3.468   7.563  1.4209  2.4327 -1.7838
 4760TIP3    H238476   3.854   3.602   7.585 -0.8757  0.8044  2.5480
 4761TIP3   OH238477   5.354   2.826   9.025 -0.1255 -0.1132 -0.5696
 4761TIP3    H138478   5.358   2.911   9.069  0.8103 -0.7421  0.6540
 4761TIP3    H238479   5.290   2.776   9.076 -1.0648  0.0170 -1.6050
 4762TIP3   OH238480   1.053   5.915   9.452  0.0220 -0.0987  0.9372
 4762TIP3    H138481   0.965   5.876   9.460  0.0637 -0.2638  0.6115
 4762TIP3    H238482   1.037   6.010   9.451 -0.2331 -0.1425  0.0054
 4763TIP3   OH238483   7.178   2.998   8.364 -0.2790  0.2188  0.0691
 4763TIP3    H138484   7.266   2.999   8.327 -0.4889  0.3724 -0.4444
 4763TIP3    H238485   7.124   3.038   8.296 -0.4183  2.1593  1.2456
 4764TIP3   OH238486   2.810   6.649   8.318 -0.3654 -0.0293  0.5339
 4764TIP3    H138487   2.726   6.618   8.350  0.0065 -0.6751  0.9023
 4764TIP3    H238488   2.788   6.718   8.255 -1.1240  1.8000  2.6447
 4765TIP3   OH238489   2.898   5.215   9.460  0.7205  0.3075 -0.3263
 4765TIP3    H138490   2.873   5.305   9.481  0.0715  0.6263 -2.2750
 4765TIP3    H238491   2.993   5.214   9.471  0.9131  1.6387 -1.6038
 4766TIP3   OH238492   0.790   0.776   8.082 -0.1475 -0.5138  0.7534
 4766TIP3    H138493   0.727   0.847   8.067  0.1186 -0.5434 -0.6682
 4766TIP3    H238494   0.822   0.754   7.995  0.4852 -1.7480  1.2753
 4767TIP3   OH238495   0.000   0.789   7.739 -0.0285 -0.0248  0.0552
 4767TIP3    H138496  -0.092   0.810   7.754 -0.1234  0.8182 -1.4716
 4767TIP3    H238497  -0.001   0.709   7.687  0.0045  0.9051 -1.4281
 4768TIP3   OH238498   7.278   1.218   8.333 -0.1495 -0.0160 -0.0787
 4768TIP3    H138499   7.218   1.173   8.394  0.2387 -0.1293  0.2222
 4768TIP3    H238500   7.351   1.157   8.323 -0.4343 -0.2087 -1.0426
 4769TIP3   OH238501   3.333   5.032   7.793  0.1856  0.3383 -0.0927
 4769TIP3    H138502   3.408   4.975   7.780 -0.0238 -0.3497  1.5300
 4769TIP3    H238503   3.371   5.118   7.810  0.5585  0.2551 -0.4958
 4770TIP3   OH238504   5.311   5.351   8.239 -0.0954  0.2880 -0.3085
 4770TIP3    H138505   5.257   5.324   8.313  0.8356 -0.1500  0.2278
 4770TIP3    H238506   5.248   5.379   8.172 -0.9842 -0.3656  0.2339
 4771TIP3   OH238507   5.663   2.981   7.571  0.4404 -0.4077 -0.5492
 4771TIP3    H138508   5.618   3.056   7.530  0.4808 -0.0847 -0.0163
 4771TIP3    H238509   5.666   2.915   7.502  0.3384  0.0556 -1.0099
 4772TIP3   OH238510   0.355   2.453   6.897 -0.1259  0.0152  0.1774
 4772TIP3    H138511   0.298   2.454   6.820 -0.4911  2.2864  0.4003
 4772TIP3    H238512   0.354   2.362   6.927 -0.9653 -0.6670 -1.7513
 4773TIP3   OH238513   5.790   2.253   7.918 -0.0471  0.0996  0.2665
 4773TIP3    H138514   5.852   2.206   7.863 -0.4167  0.1161 -0.1645
 4773TIP3    H238515   5.834   2.259   8.003  0.3754 -0.2343  0.0761
 4774TIP3   OH238516   1.818   0.023   8.604 -0.4995  0.2515 -0.7260
 4774TIP3    H138517   1.883   0.046   8.538 -0.5956  0.6998 -0.6645
 4774TIP3    H238518   1.828  -0.072   8.615  0.9132  0.4624  0.1041
 4775TIP3   OH238519   7.121   1.603   7.359  0.1267 -0.0975 -0.7049
 4775TIP3    H138520   7.080   1.519   7.343  2.5653 -1.4666 -0.2609
 4775TIP3    H238521   7.112   1.651   7.277  0.3654 -1.5542 -1.5953
 4776TIP3   OH238522   0.424   7.493   8.508  0.3801  0.8336  0.1507
 4776TIP3    H138523   0.468   7.453   8.433  1.0223  2.6210 -0.4963
 4776TIP3    H238524   0.340   7.525   8.473  0.4027  1.1101  0.3378
 4777TIP3   OH238525   1.998   6.628   7.962 -0.0042 -0.3870  0.2172
 4777TIP3    H138526   1.965   6.671   8.040 -1.0217 -1.1543  0.2360
 4777TIP3    H238527   2.093   6.639   7.966 -0.1846  1.3632  0.4758
 4778TIP3   OH238528   5.062   5.703   8.373 -0.2701  0.5027  0.3904
 4778TIP3    H138529   4.973   5.672   8.385 -1.0674  2.4389 -0.1105
 4778TIP3    H238530   5.082   5.751   8.454 -0.4723  1.8113 -0.3155
 4779TIP3   OH238531   5.920   6.648   9.523 -0.5314 -0.5685  0.4841
 4779TIP3    H138532   5.870   6.708   9.579 -1.2791 -0.9462  0.2410
 4779TIP3    H238533   5.995   6.699   9.494 -0.1120 -0.3606  1.8484
 4780TIP3   OH238534   2.288   3.701   8.569  0.2730 -0.3044 -0.3157
 4780TIP3    H138535   2.222   3.678   8.504  0.6418 -1.5544 -0.2729
 4780TIP3    H238536   2.344   3.766   8.525 -0.0354 -0.4291 -0.8996
 4781TIP3   OH238537   1.178   2.740   8.608 -0.5869  0.0957  0.1079
 4781TIP3    H138538   1.166   2.792   8.529 -1.2599  0.3726  0.3868
 4781TIP3    H238539   1.256   2.778   8.650  0.3782 -0.6928 -0.9096
 4782TIP3   OH238540   3.156   0.268   9.363  0.4309  0.2490  0.0904
 4782TIP3    H138541   3.135   0.184   9.323 -0.2970 -0.3064  1.5556
 4782TIP3    H238542   3.242   0.291   9.329 -0.4362  0.1865 -2.3217
 4783TIP3   OH238543   1.960   4.855   7.701 -0.3292 -0.1089 -0.1673
 4783TIP3    H138544   2.054   4.868   7.705 -0.3349 -0.3399  1.9552
 4783TIP3    H238545   1.923   4.931   7.746 -0.9965 -1.1550  1.1364
 4784TIP3   OH238546   0.188   3.495   8.094 -0.4660  0.0484  0.4245
 4784TIP3    H138547   0.283   3.483   8.099 -0.5473 -0.7668  0.1935
 4784TIP3    H238548   0.159   3.495   8.185 -0.6196 -3.1435  0.4623
 4785TIP3   OH238549   0.311   5.114   8.621 -0.2664  0.1562  0.5303
 4785TIP3    H138550   0.346   5.199   8.596 -0.7860 -0.0736 -1.0721
 4785TIP3    H238551   0.294   5.069   8.538  0.1985 -1.6000  1.3310
 4786TIP3   OH238552   3.895   2.489   8.170 -0.7106 -0.3369  0.3056
 4786TIP3    H138553   3.890   2.564   8.230 -1.8707 -0.3932  0.2891
 4786TIP3    H238554   3.962   2.432   8.209  1.3827  1.3977 -0.5036
 4787TIP3   OH238555   7.405   4.849   8.612 -0.0051 -0.0872  0.2003
 4787TIP3    H138556   7.476   4.805   8.658  0.8677  0.4320 -0.5856
 4787TIP3    H238557   7.415   4.821   8.521  0.0270  0.9929 -0.1537
 4788TIP3   OH238558   5.761   3.706   7.444 -0.0101 -0.0602  0.4259
 4788TIP3    H138559   5.690   3.644   7.429  0.5971 -0.4873 -0.7751
 4788TIP3    H238560   5.841   3.654   7.436  0.4702  0.5770  0.9379
 4789TIP3   OH238561   6.313   3.216   9.283 -0.1388 -0.4555 -0.0410
 4789TIP3    H138562   6.393   3.265   9.265 -0.1606 -0.0200  0.9902
 4789TIP3    H238563   6.251   3.282   9.316 -0.1883 -1.1426  1.3180
 4790TIP3   OH238564   2.051   3.366   9.525  0.5590  0.1698 -0.1769
 4790TIP3    H138565   2.086   3.334   9.609  0.1710 -0.1744 -0.1448
 4790TIP3    H238566   1.958   3.346   9.529  0.4837  0.4459 -0.5618
 4791TIP3   OH238567   0.570   2.823   8.780  0.4348  0.0055 -0.3155
 4791TIP3    H138568   0.592   2.768   8.705  0.8331  0.9892 -0.9499
 4791TIP3    H238569   0.495   2.875   8.751  0.6277  0.4356 -0.0593
 4792TIP3   OH238570   2.032   3.835   9.381 -0.1608  0.0162 -0.0867
 4792TIP3    H138571   2.122   3.805   9.397 -0.5194 -0.3174  1.4722
 4792TIP3    H238572   2.029   3.923   9.419 -0.3499  0.2506 -0.6368
 4793TIP3   OH238573   5.838   5.159   8.433 -0.3530 -0.8101  0.3773
 4793TIP3    H138574   5.858   5.190   8.521  1.1233 -1.0971  0.1766
 4793TIP3    H238575   5.887   5.218   8.375 -2.3792  0.2511 -0.3798
 4794TIP3   OH238576   4.146   3.355   8.338 -0.1712 -0.4799 -0.0940
 4794TIP3    H138577   4.130   3.263   8.358 -4.2057  0.1088  0.1431
 4794TIP3    H238578   4.076   3.380   8.278 -0.2836  2.8436  1.1959
 4795TIP3   OH238579   3.693   5.363   7.679 -0.9565 -0.2566  0.6677
 4795TIP3    H138580   3.676   5.271   7.659 -1.1627 -0.0400 -0.1880
 4795TIP3    H238581   3.783   5.364   7.713 -0.3825 -0.5757 -0.7911
 4796TIP3   OH238582   5.291   3.449   9.594  0.1375 -0.0671 -0.2646
 4796TIP3    H138583   5.301   3.405   9.679 -1.9961  0.2191  0.1982
 4796TIP3    H238584   5.293   3.377   9.531 -1.4417 -0.6942  0.3307
 4797TIP3   OH238585   2.196   1.204   7.862 -0.3203  0.3435  0.1637
 4797TIP3    H138586   2.166   1.145   7.931  0.7959 -1.9272 -1.1645
 4797TIP3    H238587   2.273   1.246   7.898 -0.2621 -0.1489  0.6328
 4798TIP3   OH238588   4.848   3.715   7.139  0.1989  0.1822 -0.3777
 4798TIP3    H138589   4.931   3.721   7.093  0.3096 -0.9831 -0.3730
 4798TIP3    H238590   4.818   3.805   7.147  0.6508  0.4882 -1.8431
 4799TIP3   OH238591   3.736   4.470   8.723  0.1051 -0.4390  0.3186
 4799TIP3    H138592   3.783   4.423   8.791  0.7779 -0.5407 -0.2083
 4799TIP3    H238593   3.804   4.497   8.660 -0.3106  0.8904  0.4072
 4800TIP3   OH238594   6.276   0.838   8.954 -0.5196  0.1488 -0.1494
 4800TIP3    H138595   6.221   0.814   8.880 -1.2615  2.5355 -0.4583
 4800TIP3    H238596   6.215   0.868   9.022  0.2760  0.7543  0.3282
 4801TIP3   OH238597   0.947   5.247   6.882 -0.0365 -0.5366 -0.4479
 4801TIP3    H138598   0.901   5.196   6.816  0.8989 -3.3306  0.8984
 4801TIP3    H238599   1.025   5.280   6.837  0.4148 -2.1040 -0.8920
 4802TIP3   OH238600   3.909   5.631   9.397 -0.0598  0.0987  0.0859
 4802TIP3    H138601   3.831   5.636   9.453 -1.9663  2.6686 -2.4432
 4802TIP3    H238602   3.977   5.676   9.447 -0.5049 -1.0878  1.8550
 4803TIP3   OH238603   7.168   5.807   8.876  0.4672  0.2398 -0.4988
 4803TIP3    H138604   7.147   5.736   8.937  0.4629  1.7345  1.3296
 4803TIP3    H238605   7.235   5.770   8.818  0.8640 -1.0817  0.7393
 4804TIP3   OH238606   2.586   0.667   8.056 -0.4771  0.4840  0.5120
 4804TIP3    H138607   2.638   0.587   8.059 -1.2973 -0.0757  0.2772
 4804TIP3    H238608   2.535   0.666   8.137  0.4949  1.4789  1.1707
 4805TIP3   OH238609   2.734   5.968   7.863 -0.2472  0.1815  0.1519
 4805TIP3    H138610   2.793   6.015   7.805 -0.0913 -0.4484 -0.1974
 4805TIP3    H238611   2.785   5.952   7.942  0.5084 -1.5399 -0.6475
 4806TIP3   OH238612   4.521   5.189   7.407  0.0506  0.3752  0.1812
 4806TIP3    H138613   4.501   5.187   7.313  0.4072  2.5606  0.0188
 4806TIP3    H238614   4.605   5.143   7.414  1.5790  2.7376 -1.0769
 4807TIP3   OH238615   2.607   6.743   9.429 -0.2470 -0.4387 -0.6856
 4807TIP3    H138616   2.523   6.787   9.415 -1.3172 -2.1912 -0.1438
 4807TIP3    H238617   2.593   6.655   9.395  1.3570 -0.7846 -0.4943
 4808TIP3   OH238618   4.291   2.620   9.659  0.2118 -0.0143 -0.1045
 4808TIP3    H138619   4.308   2.661   9.574  0.7178 -0.2252 -0.1128
 4808TIP3    H238620   4.199   2.594   9.655 -0.2698  1.5705  0.1112
 4809TIP3   OH238621   1.994   4.826   6.557 -0.2686 -0.5876  0.2367
 4809TIP3    H138622   1.917   4.785   6.519  0.7078 -0.9751 -1.4146
 4809TIP3    H238623   1.976   4.920   6.552 -0.9302 -0.6960  0.5274
 4810TIP3   OH238624   2.358   6.161   8.671 -0.7733  0.0136 -0.1092
 4810TIP3    H138625   2.272   6.202   8.666 -0.7763  0.4117  2.2546
 4810TIP3    H238626   2.412   6.223   8.720  0.3159 -1.0763  0.1292
 4811TIP3   OH238627   3.692   3.538   8.408  0.0451 -0.3028 -0.3533
 4811TIP3    H138628   3.754   3.574   8.471 -0.1029 -1.2372  0.3530
 4811TIP3    H238629   3.606   3.556   8.446 -0.0893  0.0706 -0.8188
 4812TIP3   OH238630   3.551   6.476   8.222  0.1010 -0.1790  0.2887
 4812TIP3    H138631   3.569   6.416   8.294  1.3943  0.9029  0.9179
 4812TIP3    H238632   3.611   6.447   8.152 -1.0010 -1.0945 -0.3107
 4813TIP3   OH238633   3.454   0.074   6.726 -0.3426  0.5007  0.1953
 4813TIP3    H138634   3.375   0.079   6.780 -1.7106 -1.2760 -1.4687
 4813TIP3    H238635   3.488  -0.014   6.741 -0.9973 -0.1997 -2.0179
 4814TIP3   OH238636   4.691   2.886   7.909  0.3041 -0.0582 -0.0999
 4814TIP3    H138637   4.701   2.836   7.828 -0.9422 -0.8719  0.2192
 4814TIP3    H238638   4.601   2.870   7.936  0.0252  1.9137  0.3343
 4815TIP3   OH238639   7.577   2.628   8.188 -0.1966 -0.3215  0.0402
 4815TIP3    H138640   7.646   2.568   8.218 -0.8651 -1.6978 -1.0441
 4815TIP3    H238641   7.550   2.674   8.267  1.0851 -0.6759  0.7162
 4816TIP3   OH238642   3.932   3.870   8.290 -0.2468  0.5611 -0.0173
 4816TIP3    H138643   3.960   3.778   8.292  2.4869  1.2983  1.8864
 4816TIP3    H238644   3.861   3.875   8.354  0.2493 -0.0807  0.6028
 4817TIP3   OH238645   1.191   4.080   9.016  0.1259 -0.2722  0.4215
 4817TIP3    H138646   1.099   4.070   8.990  0.1351 -1.9648  0.9059
 4817TIP3    H238647   1.232   4.128   8.945 -1.2110  0.8393  0.3725
 4818TIP3   OH238648   5.298   5.243   7.302 -0.4393  0.3231 -0.1221
 4818TIP3    H138649   5.233   5.224   7.370  0.4710  0.3032  0.7605
 4818TIP3    H238650   5.362   5.172   7.309 -0.4859  0.1523 -1.2102
 4819TIP3   OH238651   4.244   2.556   8.365 -1.0664  0.1852 -0.2095
 4819TIP3    H138652   4.177   2.489   8.382 -0.2028 -0.5488  0.4172
 4819TIP3    H238653   4.217   2.631   8.417 -0.0822 -0.9840  2.1559
 4820TIP3   OH238654   0.760   6.471   7.423 -0.4103 -0.4441  0.1883
 4820TIP3    H138655   0.715   6.532   7.482  1.5322  2.3220 -0.9632
 4820TIP3    H238656   0.813   6.417   7.481 -0.8604  0.1293  1.1718
 4821TIP3   OH238657   0.173   1.392   8.134 -0.3072 -0.7547 -0.0808
 4821TIP3    H138658   0.103   1.338   8.171 -1.7737  2.0217  1.4935
 4821TIP3    H238659   0.134   1.434   8.058  0.3906 -0.8677 -0.5146
 4822TIP3   OH238660   6.681   2.231   9.447  0.5306  0.1099 -0.7708
 4822TIP3    H138661   6.736   2.270   9.515  0.0218  0.0616 -0.3200
 4822TIP3    H238662   6.728   2.153   9.419  1.9030  1.3735 -2.1703
 4823TIP3   OH238663   0.562   1.544   8.493  0.1501 -0.0511  0.4882
 4823TIP3    H138664   0.625   1.492   8.441  0.3763  1.3297 -0.6745
 4823TIP3    H238665   0.514   1.478   8.543  1.3900 -1.2849  0.1550
 4824TIP3   OH238666   0.810   3.629   9.419 -0.5475 -0.1814 -0.8419
 4824TIP3    H138667   0.851   3.630   9.333  1.0445  1.4587 -0.1270
 4824TIP3    H238668   0.849   3.703   9.465 -1.7253 -0.7137  1.1295
 4825TIP3   OH238669   4.818   0.567   9.483  0.3875  0.5715 -0.3589
 4825TIP3    H138670   4.822   0.602   9.394 -1.3758  1.0292 -0.3017
 4825TIP3    H238671   4.768   0.633   9.532  0.3311 -0.2226  0.6830
 4826TIP3   OH238672   4.772   4.746   7.734  0.1412 -0.0661 -0.2838
 4826TIP3    H138673   4.857   4.743   7.778  0.1362 -0.5073 -0.3035
 4826TIP3    H238674   4.723   4.672   7.771  0.5268 -1.1471 -1.8374
 4827TIP3   OH238675   5.443   6.586   7.982 -0.4134 -0.0778  0.0160
 4827TIP3    H138676   5.472   6.579   7.891  0.2713 -1.7966  0.3161
 4827TIP3    H238677   5.366   6.530   7.987 -0.1880 -0.3435  0.5890
 4828TIP3   OH238678   1.822   6.912   7.396 -0.0816 -0.3389  0.2455
 4828TIP3    H138679   1.732   6.939   7.408 -0.3048 -0.5455 -0.8196
 4828TIP3    H238680   1.840   6.929   7.303  1.0878  0.0439  0.5253
 4829TIP3   OH238681   7.338   6.628   8.202 -0.0113  0.2684 -0.1016
 4829TIP3    H138682   7.417   6.585   8.235  0.4774  0.8866 -0.4297
 4829TIP3    H238683   7.286   6.648   8.279  1.0489  1.5743  0.3150
 4830TIP3   OH238684   4.943   6.733   8.160 -0.3801 -0.0878 -0.2516
 4830TIP3    H138685   4.879   6.801   8.180 -1.5810 -1.5028  1.0470
 4830TIP3    H238686   4.890   6.661   8.124  0.8831 -0.2661 -1.8372
 4831TIP3   OH238687   1.249   5.165   8.936  0.2743  0.6913 -0.5492
 4831TIP3    H138688   1.240   5.109   8.859 -0.9285  0.2438 -0.1211
 4831TIP3    H238689   1.209   5.248   8.909 -1.0768  0.2071 -0.1125
 4832TIP3   OH238690   5.002   5.262   9.186 -0.0180  0.2007 -0.1220
 4832TIP3    H138691   4.964   5.238   9.271 -0.3988  0.5449 -0.1907
 4832TIP3    H238692   4.938   5.231   9.122  0.3590 -0.2240 -0.2911
 4833TIP3   OH238693   7.658   1.880   8.111  0.8393 -0.6259 -0.0621
 4833TIP3    H138694   7.729   1.929   8.153  1.9556 -1.6264 -0.6990
 4833TIP3    H238695   7.642   1.806   8.169 -1.4085  0.8307  1.3185
 4834TIP3   OH238696   3.551   0.264   6.974 -0.0247 -0.7023 -0.2256
 4834TIP3    H138697   3.475   0.261   6.916 -0.6233 -0.0232  0.5000
 4834TIP3    H238698   3.574   0.172   6.988 -0.3557 -0.8933 -0.9133
 4835TIP3   OH238699   7.397   4.130   6.607  0.2560  0.4866 -0.2225
 4835TIP3    H138700   7.425   4.216   6.576 -1.0229  0.8905 -0.2948
 4835TIP3    H238701   7.323   4.147   6.665 -1.3106 -0.6451 -1.7730
 4836TIP3   OH238702   0.370   6.262   7.686 -0.2219  0.1533  0.0031
 4836TIP3    H138703   0.448   6.214   7.658  0.0517  0.9369 -0.6114
 4836TIP3    H238704   0.342   6.309   7.608 -1.6559 -0.5665  0.0587
 4837TIP3   OH238705   6.791   0.073   8.642  0.2910 -0.1063 -0.6171
 4837TIP3    H138706   6.877   0.051   8.606 -0.1699  1.8952 -3.2168
 4837TIP3    H238707   6.744   0.114   8.570 -1.3312  2.7920  1.8565
 4838TIP3   OH238708   7.515   2.978   9.235 -0.0535  0.5337 -0.1189
 4838TIP3    H138709   7.519   3.060   9.185  1.1686 -0.0855 -1.0974
 4838TIP3    H238710   7.546   2.911   9.174 -0.5108 -0.5811  0.8343
 4839TIP3   OH238711   7.262   4.202   8.603  0.4130  0.2630  0.5288
 4839TIP3    H138712   7.260   4.243   8.689 -1.2005  0.3969  0.4579
 4839TIP3    H238713   7.206   4.258   8.548  1.5398  0.2715 -0.6509
 4840TIP3   OH238714   1.502   0.126   8.199  0.2501 -0.0454  0.3833
 4840TIP3    H138715   1.567   0.074   8.246 -1.6093 -1.3339  1.6595
 4840TIP3    H238716   1.532   0.216   8.209  1.7808 -0.5959  1.0161
 4841TIP3   OH238717   3.083   5.689   7.132 -0.2360  0.0009  0.0660
 4841TIP3    H138718   3.124   5.754   7.075  0.9834  0.1131  1.0341
 4841TIP3    H238719   3.109   5.714   7.221 -1.6113 -0.5148  0.6416
 4842TIP3   OH238720   7.073   3.301   8.542 -0.1397  0.7018 -0.1439
 4842TIP3    H138721   7.051   3.237   8.609 -1.4350 -1.0156 -2.0783
 4842TIP3    H238722   6.995   3.304   8.485  2.1130 -0.6964 -3.6126
 4843TIP3   OH238723   7.411   1.052   7.567 -0.2668 -0.2141  0.3058
 4843TIP3    H138724   7.362   1.078   7.489  0.0286  2.5687  0.9579
 4843TIP3    H238725   7.344   1.039   7.634 -0.3254  0.6033  0.4129
 4844TIP3   OH238726   5.546   1.354   9.430 -0.8504 -0.2456 -0.3459
 4844TIP3    H138727   5.533   1.445   9.455 -3.2504 -0.0677 -1.8820
 4844TIP3    H238728   5.606   1.319   9.496 -1.4241  1.9024  1.4337
 4845TIP3   OH238729   7.241   2.020   8.087  0.0322 -0.0134  0.1808
 4845TIP3    H138730   7.208   2.056   8.005 -0.4418 -1.4163 -0.2610
 4845TIP3    H238731   7.293   2.091   8.125  1.2054  0.2855 -1.8559
 4846TIP3   OH238732   5.229   4.187   9.521  0.2178  0.4017 -0.3201
 4846TIP3    H138733   5.202   4.275   9.547 -1.0233 -0.0500  0.0237
 4846TIP3    H238734   5.324   4.188   9.527  0.2645  1.8519 -0.7642
 4847TIP3   OH238735   4.959   7.295   6.875  0.0457  0.1099  0.3938
 4847TIP3    H138736   4.945   7.238   6.950  3.7904 -0.9962  0.4501
 4847TIP3    H238737   4.997   7.238   6.808 -0.8950  1.5640 -1.4708
 4848TIP3   OH238738   4.782   5.604   7.857  0.5685 -0.0855  0.7164
 4848TIP3    H138739   4.741   5.638   7.777 -2.7484  0.5665  2.5071
 4848TIP3    H238740   4.803   5.683   7.908 -0.9496 -0.5093  2.0632
 4849TIP3   OH238741   2.014   3.089   7.985 -0.7326  0.1420  0.8984
 4849TIP3    H138742   1.973   3.160   8.034  0.9686  1.4926  0.4866
 4849TIP3    H238743   2.108   3.100   8.001 -0.3667 -1.5188  0.1394
 4850TIP3   OH238744   5.953   7.415   7.494  0.2036  0.6079 -0.2613
 4850TIP3    H138745   5.910   7.499   7.507 -0.6900  0.1619 -0.3188
 4850TIP3    H238746   5.884   7.350   7.505  1.0073 -0.1562  0.3745
 4851TIP3   OH238747   5.870   3.739   8.502  0.3619 -0.8894  0.2760
 4851TIP3    H138748   5.782   3.709   8.482  0.3552 -1.3654  0.9505
 4851TIP3    H238749   5.877   3.729   8.597  0.9796 -0.4158  0.2858
 4852TIP3   OH238750   3.437   6.286   8.822 -0.1135  0.6052 -0.5851
 4852TIP3    H138751   3.402   6.264   8.736  2.0746 -0.4781 -1.2519
 4852TIP3    H238752   3.440   6.202   8.869 -1.0190  1.1396  0.4819
 4853TIP3   OH238753   6.826   2.510   8.090  0.9366  0.6553 -0.0058
 4853TIP3    H138754   6.820   2.559   8.171 -1.5365 -0.7878  0.7951
 4853TIP3    H238755   6.910   2.464   8.095  2.1588  2.7870  0.3147
 4854TIP3   OH238756   2.908   2.495   8.025  0.1083 -0.0800 -0.1182
 4854TIP3    H138757   2.959   2.451   8.094 -0.2259 -1.4558 -0.7042
 4854TIP3    H238758   2.820   2.458   8.034 -0.6119  1.6610  0.3598
 4855TIP3   OH238759   7.448   5.327   7.852  0.2202 -0.5067  0.2444
 4855TIP3    H138760   7.411   5.243   7.824  1.4933 -0.4882 -1.6146
 4855TIP3    H238761   7.513   5.348   7.786 -0.4206  2.2315  0.3845
 4856TIP3   OH238762   3.530   2.902   8.992  0.2614 -0.5936 -0.5755
 4856TIP3    H138763   3.556   2.816   8.957 -1.7080 -0.5760 -2.2703
 4856TIP3    H238764   3.435   2.904   8.981  0.0770  1.2008  0.9289
 4857TIP3   OH238765   6.852   1.397   9.323  0.9161  0.3893  0.3043
 4857TIP3    H138766   6.849   1.411   9.228 -0.5156  0.8358  0.3802
 4857TIP3    H238767   6.778   1.338   9.340  0.5991  1.0389  1.2382
 4858TIP3   OH238768   2.464   3.797   7.423 -0.1855 -0.0028  0.0957
 4858TIP3    H138769   2.497   3.728   7.480 -0.9083 -0.9152 -0.5576
 4858TIP3    H238770   2.382   3.762   7.387 -1.2407  1.6919  0.7212
 4859TIP3   OH238771   5.094   3.691   9.094 -0.1313  0.0299 -0.0898
 4859TIP3    H138772   5.049   3.623   9.146  0.3663 -0.7671 -0.6728
 4859TIP3    H238773   5.179   3.653   9.074 -0.4634  0.1364 -1.8440
 4860TIP3   OH238774   0.718   1.385   8.301 -0.6796 -0.2361 -0.1644
 4860TIP3    H138775   0.672   1.302   8.319 -0.2739 -0.6056 -0.7843
 4860TIP3    H238776   0.690   1.408   8.212 -1.4224  0.7272  0.2979
 4861TIP3   OH238777   2.418   5.489   7.344 -0.0132 -0.1146 -0.7372
 4861TIP3    H138778   2.413   5.394   7.332 -0.3457  0.0513 -1.9648
 4861TIP3    H238779   2.404   5.501   7.438 -1.8228 -1.1655 -0.8219
 4862TIP3   OH238780   5.502   1.892   9.379  0.3212  0.0686  0.0089
 4862TIP3    H138781   5.558   1.970   9.381  1.5918 -0.8261  0.7462
 4862TIP3    H238782   5.490   1.869   9.471 -1.6836  0.4897 -0.0977
 4863TIP3   OH238783   1.324   5.385   8.646 -0.2664 -0.5080 -0.4229
 4863TIP3    H138784   1.330   5.467   8.597  0.0526 -0.8463 -0.9667
 4863TIP3    H238785   1.400   5.386   8.704 -1.9789  1.0777  1.9896
 4864TIP3   OH238786   2.070   6.639   6.751 -0.2706  0.0652 -0.4924
 4864TIP3    H138787   2.037   6.594   6.673  2.2148 -0.6087 -1.2468
 4864TIP3    H238788   2.137   6.580   6.786  0.3792  1.4751  0.7395
 4865TIP3   OH238789   5.222   2.131   8.817 -0.0727  0.2391 -0.1210
 4865TIP3    H138790   5.236   2.090   8.902  1.2480 -0.1958 -0.5192
 4865TIP3    H238791   5.309   2.162   8.791 -0.0098 -1.4911 -2.2316
 4866TIP3   OH238792   3.359   3.805   7.621  0.0347 -0.0561 -0.0447
 4866TIP3    H138793   3.430   3.801   7.557  1.6634 -2.1844  1.7428
 4866TIP3    H238794   3.311   3.885   7.599  2.0443  0.6441 -2.2840
 4867TIP3   OH238795   1.135   3.043   9.633 -0.6671  0.0344  0.2091
 4867TIP3    H138796   1.190   3.120   9.622 -2.1587  1.0321 -0.5595
 4867TIP3    H238797   1.195   2.975   9.666  1.3113  0.6187 -1.9495
 4868TIP3   OH238798   6.877   4.118   8.806  1.0796 -0.0464 -0.0872
 4868TIP3    H138799   6.820   4.133   8.882  1.1498 -0.7194  0.1090
 4868TIP3    H238800   6.913   4.205   8.786  0.9935  0.1603  0.5997
 4869TIP3   OH238801   7.107   4.676   9.056  0.8316  0.2388 -0.0090
 4869TIP3    H138802   7.123   4.589   9.092  1.3307  0.4694  0.3252
 4869TIP3    H238803   7.166   4.682   8.981  0.1035 -0.0762 -0.6214
 4870TIP3   OH238804   2.767   0.225   8.193  0.3406 -0.2766  0.2470
 4870TIP3    H138805   2.706   0.269   8.253 -1.2969 -0.3544 -1.2665
 4870TIP3    H238806   2.853   0.257   8.218 -0.1671 -0.8498  3.0882
 4871TIP3   OH238807   7.524   0.243   8.822  0.4243  0.2335 -0.0957
 4871TIP3    H138808   7.491   0.287   8.900  1.2835  1.1163 -0.2053
 4871TIP3    H238809   7.460   0.174   8.804 -0.9770  1.4340  0.0825
 4872TIP3   OH238810   1.155   4.994   6.945  0.3790  0.4245 -0.1195
 4872TIP3    H138811   1.221   5.052   6.907  0.6360  0.7532  0.8010
 4872TIP3    H238812   1.136   4.931   6.875  1.6603  0.3268 -0.4091
 4873TIP3   OH238813   6.333   4.184   9.582  0.7498 -0.4032 -0.0778
 4873TIP3    H138814   6.286   4.236   9.517  0.1788 -0.3846  0.3430
 4873TIP3    H238815   6.310   4.223   9.666  0.6057 -1.1072  0.2168
 4874TIP3   OH238816   0.843   2.119   9.069 -0.0913 -0.5857 -0.0165
 4874TIP3    H138817   0.891   2.197   9.041  1.3725 -0.2017  3.1054
 4874TIP3    H238818   0.751   2.145   9.066  0.3413  1.1420  0.5230
 4875TIP3   OH238819   4.853   3.975   7.657  0.0965 -0.0418 -0.5811
 4875TIP3    H138820   4.817   3.886   7.667 -0.0918  0.2474  1.9762
 4875TIP3    H238821   4.932   3.963   7.603  0.6389 -1.9453  0.5466
 4876TIP3   OH238822   7.007   1.354   9.073 -0.7853 -0.4597  0.3450
 4876TIP3    H138823   7.094   1.394   9.072 -0.3878 -1.2635  1.0053
 4876TIP3    H238824   6.965   1.384   8.992 -0.4074  1.0394  0.6791
 4877TIP3   OH238825   3.424   3.576   9.453 -0.5940  0.0551 -0.0995
 4877TIP3    H138826   3.483   3.594   9.526 -0.6250  0.9427 -0.2804
 4877TIP3    H238827   3.481   3.554   9.380 -0.4889  0.7465 -0.2292
 4878TIP3   OH238828   2.755   3.040   9.066  0.1913 -0.1543  0.0096
 4878TIP3    H138829   2.665   3.007   9.065 -0.9234  2.4217  2.0129
 4878TIP3    H238830   2.768   3.076   8.978 -1.7797  1.7042  0.3787
 4879TIP3   OH238831   5.368   0.803   8.892  0.5287  0.1755  0.3699
 4879TIP3    H138832   5.384   0.891   8.859  2.0096 -0.6225 -1.1875
 4879TIP3    H238833   5.448   0.755   8.872 -0.2284 -1.5333  1.2137
 4880TIP3   OH238834   3.754   0.405   7.113  0.8264 -0.1049  0.0934
 4880TIP3    H138835   3.785   0.340   7.176  0.6915  0.0205  0.2866
 4880TIP3    H238836   3.737   0.354   7.034 -1.6614 -0.7450  0.9697
 4881TIP3   OH238837   6.922   1.911   7.383  0.2390 -0.2223 -0.3235
 4881TIP3    H138838   7.014   1.896   7.405  0.4031 -0.1692 -0.9517
 4881TIP3    H238839   6.876   1.836   7.422  0.3220  0.5469  1.3486
 4882TIP3   OH238840   6.089   0.805   9.175  0.8293 -0.1995 -0.8546
 4882TIP3    H138841   6.030   0.730   9.176  1.4940 -0.7384 -0.9166
 4882TIP3    H238842   6.171   0.771   9.212  1.4089  0.2664 -1.6911
 4883TIP3   OH238843   2.862   0.906   8.997  0.4568  0.2717  0.1702
 4883TIP3    H138844   2.797   0.952   9.051 -0.9546 -0.6839 -0.6335
 4883TIP3    H238845   2.863   0.955   8.914  1.7679  1.0607  0.6334
 4884TIP3   OH238846   5.781   1.639   7.075 -0.4907 -0.1531  0.2198
 4884TIP3    H138847   5.803   1.578   7.004 -1.9802  1.2062 -1.4882
 4884TIP3    H238848   5.686   1.649   7.070 -0.4089  1.4308  1.1927
 4885TIP3   OH238849   0.190   7.323   8.419 -0.2317  0.6095 -0.3641
 4885TIP3    H138850   0.183   7.376   8.499  0.8962  1.1650 -0.6214
 4885TIP3    H238851   0.216   7.385   8.351  1.2169 -0.2600 -0.6516
 4886TIP3   OH238852   6.863   2.968   8.294  0.0681  0.0851 -0.6441
 4886TIP3    H138853   6.860   3.031   8.366  1.7289  0.7621 -1.1088
 4886TIP3    H238854   6.811   2.894   8.324 -3.0615  2.1030 -0.5732
 4887TIP3   OH238855   5.980   6.448   8.310  0.4725  0.3618  0.3151
 4887TIP3    H138856   5.982   6.498   8.229 -1.2448 -0.9598 -0.5998
 4887TIP3    H238857   6.072   6.431   8.330  0.9787  1.8922 -0.5784
 4888TIP3   OH238858   1.902   3.060   8.745 -0.2127  0.4779 -0.6878
 4888TIP3    H138859   1.839   3.104   8.802  0.1889  0.8487 -0.5209
 4888TIP3    H238860   1.916   2.975   8.786  0.0998  0.7546 -0.2057
 4889TIP3   OH238861   0.251   3.464   9.297 -0.3319  0.0328 -0.0084
 4889TIP3    H138862   0.333   3.418   9.315 -0.7409 -0.6420  0.1464
 4889TIP3    H238863   0.268   3.555   9.323  0.1736 -0.2249  0.5756
 4890TIP3   OH238864   1.782   0.524   8.595  0.0847 -0.0130 -0.3813
 4890TIP3    H138865   1.765   0.445   8.544  0.6413  0.6523 -1.6378
 4890TIP3    H238866   1.874   0.517   8.619 -0.0698 -0.1194  0.1973
 4891TIP3   OH238867   1.360   1.714   8.630 -0.1048  0.4712  0.5718
 4891TIP3    H138868   1.324   1.790   8.585 -1.5334 -0.5028  0.0172
 4891TIP3    H238869   1.328   1.639   8.581  0.8585 -0.5195  1.4060
 4892TIP3   OH238870   4.271   3.845   8.028 -0.1710 -0.1789  0.0200
 4892TIP3    H138871   4.209   3.794   8.080 -0.8549  1.6195  1.0563
 4892TIP3    H238872   4.349   3.851   8.082 -0.7700  1.4217  0.7788
 4893TIP3   OH238873   6.612   6.920   7.369 -0.2471 -0.0501 -0.5437
 4893TIP3    H138874   6.595   6.897   7.278 -0.2466  1.0857 -0.8504
 4893TIP3    H238875   6.661   7.002   7.364 -0.2283  0.0163  0.4798
 4894TIP3   OH238876   5.651   0.283   7.740  0.1999 -0.3074 -0.4961
 4894TIP3    H138877   5.743   0.285   7.763  0.4646  0.6699 -1.5154
 4894TIP3    H238878   5.632   0.191   7.724  0.6544 -0.6768  0.9439
 4895TIP3   OH238879   6.292   6.316   6.757  0.1099 -0.3286  0.2519
 4895TIP3    H138880   6.242   6.240   6.788 -0.7671  0.0680 -0.1733
 4895TIP3    H238881   6.234   6.360   6.695  0.4041  0.9781  0.8655
 4896TIP3   OH238882   6.015   4.736   9.329  0.4717 -0.0745  0.6379
 4896TIP3    H138883   5.941   4.754   9.271 -0.4202 -2.1409  1.0464
 4896TIP3    H238884   6.059   4.820   9.337 -1.7614  1.2335  0.2869
 4897TIP3   OH238885   6.404   3.160   6.909 -0.1898  0.3749 -0.2824
 4897TIP3    H138886   6.448   3.085   6.869 -0.7264  0.6004 -1.3203
 4897TIP3    H238887   6.474   3.210   6.950  0.0096 -1.5168  1.8628
 4898TIP3   OH238888   4.060   7.461   8.637 -0.3949 -0.3198  0.2223
 4898TIP3    H138889   4.033   7.537   8.689  1.0579 -0.3244  1.0276
 4898TIP3    H238890   4.155   7.458   8.647 -0.1244 -0.6678 -1.9798
 4899TIP3   OH238891   5.278   4.396   6.768  0.5531 -0.0381  0.1927
 4899TIP3    H138892   5.335   4.405   6.844  1.2991  0.3669 -0.3929
 4899TIP3    H238893   5.264   4.302   6.759 -1.4587 -0.0034  2.1796
 4900TIP3   OH238894   6.216   1.947   8.475 -0.2493 -0.2179  0.5065
 4900TIP3    H138895   6.168   1.868   8.499  0.8234 -0.5010  1.8527
 4900TIP3    H238896   6.240   1.933   8.383 -1.3446 -0.7729  0.2928
 4901TIP3   OH238897   4.413   4.972   9.005  0.3163  0.0821  0.0620
 4901TIP3    H138898   4.345   5.029   9.040  0.6204 -0.3894  1.4913
 4901TIP3    H238899   4.365   4.895   8.974 -0.0603  0.9487 -1.5708
 4902TIP3   OH238900   3.875   0.850   7.301 -0.3142 -0.5246  0.2708
 4902TIP3    H138901   3.823   0.769   7.302 -0.2271 -0.5874 -0.0325
 4902TIP3    H238902   3.868   0.881   7.210 -2.0036  0.8791  0.8166
 4903TIP3   OH238903   7.279   6.028   9.036 -0.0832  0.2843 -0.1729
 4903TIP3    H138904   7.374   6.015   9.043  0.0519  1.6422  0.8622
 4903TIP3    H238905   7.261   6.018   8.943  0.7488 -1.8986 -0.1699
 4904TIP3   OH238906   1.515   0.755   9.205  0.7400 -0.9171 -0.3013
 4904TIP3    H138907   1.506   0.716   9.118 -1.9921  0.4802 -0.7850
 4904TIP3    H238908   1.425   0.765   9.236  1.6015 -0.5817  2.3502
 4905TIP3   OH238909   6.823   6.309   6.737  0.5365 -0.6068 -0.0391
 4905TIP3    H138910   6.863   6.224   6.750 -0.5637 -1.0721  0.4516
 4905TIP3    H238911   6.740   6.290   6.693 -0.2184  0.0963  1.0175
 4906TIP3   OH238912   1.274   7.481   8.104 -0.3283  0.2078 -0.3748
 4906TIP3    H138913   1.360   7.448   8.133  0.1700  1.9545  0.2306
 4906TIP3    H238914   1.295   7.553   8.045 -1.3971 -0.4690 -1.6210
 4907TIP3   OH238915   0.843   3.300   8.282 -0.1129 -0.3620 -0.8797
 4907TIP3    H138916   0.876   3.231   8.339  0.2306  0.6174  0.1650
 4907TIP3    H238917   0.768   3.261   8.237 -0.8098 -0.9946  0.7376
 4908TIP3   OH238918   6.752   1.790   7.748 -0.1556  0.3631  0.2227
 4908TIP3    H138919   6.782   1.878   7.723 -0.2295  0.6679  1.1692
 4908TIP3    H238920   6.828   1.734   7.736  0.1666  0.7344  0.5106
 4909TIP3   OH238921   6.888   1.736   9.313 -0.0396  0.4359 -0.2176
 4909TIP3    H138922   6.966   1.705   9.266  0.9163  0.5377  1.2515
 4909TIP3    H238923   6.874   1.670   9.382 -0.1905  1.3417  0.6316
 4910TIP3   OH238924   5.557   6.628   8.239  0.4765 -0.1664  0.2275
 4910TIP3    H138925   5.520   6.646   8.152  1.8540  1.5654 -0.0374
 4910TIP3    H238926   5.504   6.556   8.272 -0.4708 -0.4830 -1.8065
 4911TIP3   OH238927   6.851   1.655   7.466  0.1481  0.3252  0.5132
 4911TIP3    H138928   6.873   1.587   7.403  0.1331  1.6379 -0.9675
 4911TIP3    H238929   6.851   1.610   7.551  0.7783 -1.3560 -0.3326
 4912TIP3   OH238930   0.842   1.163   8.146  0.6887  0.1331  0.2583
 4912TIP3    H138931   0.934   1.149   8.170  0.4263  1.3082  2.1290
 4912TIP3    H238932   0.792   1.127   8.219 -0.4387 -1.5489 -1.2662
 4913TIP3   OH238933   7.139   2.677   7.206  0.8056  0.1149  0.1807
 4913TIP3    H138934   7.112   2.743   7.270 -0.1069 -1.0536  1.0641
 4913TIP3    H238935   7.212   2.717   7.159  0.8353  1.4106  1.2690
 4914TIP3   OH238936   5.437   2.249   8.034 -0.3363 -0.1395  0.2450
 4914TIP3    H138937   5.529   2.238   8.011 -1.0682 -3.1614 -1.8800
 4914TIP3    H238938   5.392   2.259   7.950 -1.9727  1.9774  1.2561
 4915TIP3   OH238939   3.195   0.161   8.450 -0.8921 -0.2077  0.2949
 4915TIP3    H138940   3.117   0.194   8.405 -0.5559 -1.3694 -1.2613
 4915TIP3    H238941   3.268   0.201   8.403 -0.4967 -2.5281 -1.2562
 4916TIP3   OH238942   6.874   4.586   9.382  0.0143 -0.1147  0.0456
 4916TIP3    H138943   6.965   4.576   9.409  0.6640 -1.0664 -2.2278
 4916TIP3    H238944   6.868   4.678   9.354 -0.0825  0.2767  1.3029
 4917TIP3   OH238945   3.811   7.282   9.280 -0.6534  0.4519  0.0361
 4917TIP3    H138946   3.737   7.276   9.219  0.7300 -0.8549 -1.5996
 4917TIP3    H238947   3.843   7.192   9.288  1.3917  1.1344 -0.1007
 4918TIP3   OH238948   3.402   0.527   7.401 -0.0050  0.6059 -0.4219
 4918TIP3    H138949   3.359   0.483   7.474  1.4125  0.1486  0.1834
 4918TIP3    H238950   3.409   0.459   7.333 -0.7833  0.8609 -0.7669
 4919TIP3   OH238951   0.805   5.739   6.805 -0.0413  0.4066 -0.4040
 4919TIP3    H138952   0.848   5.664   6.846  0.3467  1.0244  0.3367
 4919TIP3    H238953   0.840   5.741   6.716 -0.2647 -0.4517 -0.5234
 4920TIP3   OH238954   1.088   0.379   8.146  0.0402 -0.3769  0.0243
 4920TIP3    H138955   1.091   0.363   8.052 -0.4121 -0.3642  0.0047
 4920TIP3    H238956   1.155   0.322   8.182  1.0547  0.4973 -0.4243
 4921TIP3   OH238957   6.966   4.441   7.676  0.0717  0.8167 -0.1604
 4921TIP3    H138958   6.904   4.408   7.611  1.6399 -3.8452  0.3174
 4921TIP3    H238959   6.914   4.450   7.756 -0.6827  0.6667 -0.6209
 4922TIP3   OH238960   4.003   0.414   8.149  0.4871 -0.4517 -0.2813
 4922TIP3    H138961   4.012   0.320   8.130 -1.3465 -0.4027 -1.7152
 4922TIP3    H238962   4.001   0.456   8.063  1.5525  0.9671  0.3476
 4923TIP3   OH238963   5.087   2.413   8.360  0.1090 -0.3446  0.4270
 4923TIP3    H138964   5.168   2.437   8.316 -0.0083  0.2986  0.5479
 4923TIP3    H238965   5.112   2.346   8.424  0.6660  0.3373  0.9352
 4924TIP3   OH238966   3.727   2.856   7.779  0.2607 -0.2927 -0.3602
 4924TIP3    H138967   3.767   2.877   7.863 -0.2523  0.8976 -0.3814
 4924TIP3    H238968   3.801   2.850   7.718  0.7050 -1.9671  0.2922
 4925TIP3   OH238969   2.087   4.124   8.491  0.0001 -0.1761  0.3618
 4925TIP3    H138970   2.180   4.139   8.506 -0.1485  0.9386  0.2440
 4925TIP3    H238971   2.083   4.063   8.417  0.6433 -1.3518  1.2638
 4926TIP3   OH238972   2.863   2.300   7.771  0.2489  0.3872  0.2931
 4926TIP3    H138973   2.904   2.302   7.858 -0.5290 -0.5171  0.7040
 4926TIP3    H238974   2.770   2.286   7.789  0.0899  0.1223 -0.6915
 4927TIP3   OH238975   5.379   1.761   9.181 -0.2631 -0.0021 -0.1149
 4927TIP3    H138976   5.344   1.685   9.227 -1.4619  1.2241  1.1016
 4927TIP3    H238977   5.445   1.797   9.241  1.4140 -0.8941 -1.3401
 4928TIP3   OH238978   3.890   4.177   8.127 -0.4746  0.1958 -0.4592
 4928TIP3    H138979   3.884   4.207   8.217 -1.6552  1.3300 -0.8994
 4928TIP3    H238980   3.977   4.136   8.121 -0.1398  0.6619  1.0078
 4929TIP3   OH238981   1.752   5.999   7.437  0.2163  0.1000  0.1917
 4929TIP3    H138982   1.731   6.034   7.523 -1.7022 -0.4164 -0.0252
 4929TIP3    H238983   1.668   5.993   7.392  1.1684  0.4293 -1.7623
 4930TIP3   OH238984   7.450   6.626   7.944  0.9172  0.3299  0.3102
 4930TIP3    H138985   7.442   6.666   8.031  2.3903  0.0776  0.5910
 4930TIP3    H238986   7.409   6.689   7.885 -1.4024 -0.1319  1.3047
 4931TIP3   OH238987   5.546   7.512   7.959 -0.4763 -0.2513  0.5580
 4931TIP3    H138988   5.542   7.478   8.048  1.1471 -0.6813  0.5023
 4931TIP3    H238989   5.636   7.495   7.931 -1.6985 -3.0425 -2.3156
 4932TIP3   OH238990   6.869   0.156   9.641  0.0550 -0.2390 -0.4628
 4932TIP3    H138991   6.848   0.128   9.730 -0.1293  0.7218 -0.1944
 4932TIP3    H238992   6.904   0.077   9.599  1.0465 -0.4789  0.7399
 4933TIP3   OH238993   2.434   3.864   8.403  0.3401  0.6032  0.6739
 4933TIP3    H138994   2.370   3.826   8.343 -0.9946  0.8573  1.8855
 4933TIP3    H238995   2.490   3.918   8.347  0.5705 -0.9674 -0.6549
 4934TIP3   OH238996   7.605   4.655   8.650  0.4050  0.4559 -0.3040
 4934TIP3    H138997   7.604   4.572   8.698  0.1935  1.3140  1.2446
 4934TIP3    H238998   7.693   4.690   8.667  0.1251  1.0402 -0.0332
 4935TIP3   OH238999   1.415   7.580   8.610  0.4667  0.2718 -0.2481
 4935TIP3    H139000   1.344   7.573   8.547  0.8425 -2.0002 -0.4819
 4935TIP3    H239001   1.395   7.660   8.660 -1.8036  0.1261 -0.8195
 4936TIP3   OH239002   3.388   5.054   8.639 -0.0863  0.7172  1.0599
 4936TIP3    H139003   3.309   5.033   8.588  0.4345  2.7608 -0.7228
 4936TIP3    H239004   3.399   4.978   8.697 -3.0910  0.1688  1.1054
 4937TIP3   OH239005   1.425   0.981   8.725 -0.3040 -0.7155 -0.3352
 4937TIP3    H139006   1.438   0.949   8.815  0.3584 -1.2439 -0.6130
 4937TIP3    H239007   1.349   1.039   8.732 -1.5137 -2.2840  0.1986
 4938TIP3   OH239008   7.321   6.386   8.462  0.1903  0.1365  0.3376
 4938TIP3    H139009   7.324   6.475   8.498 -1.7271  1.1026 -1.6541
 4938TIP3    H239010   7.227   6.366   8.456  0.5711 -2.1127  0.8352
 4939TIP3   OH239011   7.587   0.497   6.722  0.5130  0.4393 -0.1565
 4939TIP3    H139012   7.630   0.417   6.752  0.5305  0.4687 -0.1030
 4939TIP3    H239013   7.493   0.477   6.726  0.4930  0.6601  0.5266
 4940TIP3   OH239014   3.780   1.548   7.975  0.5896  0.1532 -0.4343
 4940TIP3    H139015   3.693   1.512   7.959 -0.0559  1.9007 -1.0069
 4940TIP3    H239016   3.808   1.507   8.057  0.0321 -1.8253 -1.1774
 4941TIP3   OH239017   5.583   6.479   9.173 -0.2285 -0.3977  0.3535
 4941TIP3    H139018   5.634   6.480   9.254  2.4721 -0.2881 -1.2176
 4941TIP3    H239019   5.542   6.565   9.169  2.5673  1.0259 -0.0424
 4942TIP3   OH239020   3.628   5.743   8.575 -0.6018 -0.1556 -0.0767
 4942TIP3    H139021   3.566   5.688   8.528 -0.1908 -1.1600  0.5349
 4942TIP3    H239022   3.708   5.690   8.580 -0.1367  0.5733  0.3593
 4943TIP3   OH239023   7.638   1.840   9.051  0.3617 -0.0314  0.1284
 4943TIP3    H139024   7.652   1.927   9.088 -0.6621  0.3129 -0.2596
 4943TIP3    H239025   7.691   1.782   9.106 -1.2273  0.4239  2.2884
 4944TIP3   OH239026   5.646   0.970   9.439 -0.1858 -0.4157  0.0631
 4944TIP3    H139027   5.702   1.023   9.383 -1.6078  1.2640  0.1655
 4944TIP3    H239028   5.604   1.033   9.498  0.5693 -2.0128  2.4387
 4945TIP3   OH239029   3.822   0.823   6.646  0.1372  0.5411  0.0452
 4945TIP3    H139030   3.798   0.820   6.739 -0.2102  2.1408  0.0325
 4945TIP3    H239031   3.742   0.852   6.602 -0.0768 -1.3986 -0.9395
 4946TIP3   OH239032   0.671   4.898   8.072 -0.0874  0.0379 -0.5054
 4946TIP3    H139033   0.593   4.846   8.090 -0.0167  0.2557  0.4733
 4946TIP3    H239034   0.638   4.985   8.049 -0.1494  1.2079  3.3106
 4947TIP3   OH239035   0.864   6.419   6.812 -0.5226 -0.1049  0.3112
 4947TIP3    H139036   0.872   6.325   6.827 -0.2980 -0.1023  0.2122
 4947TIP3    H239037   0.953   6.453   6.822 -0.4687 -0.0119 -0.3907
 4948TIP3   OH239038   2.256   3.521   8.819  0.0888  0.1980 -0.3262
 4948TIP3    H139039   2.184   3.508   8.757  0.6002  0.3067 -0.9593
 4948TIP3    H239040   2.272   3.616   8.815  1.2504 -0.0200 -1.3350
 4949TIP3   OH239041   5.937   3.692   9.617 -0.0696  0.3296 -0.8880
 4949TIP3    H139042   6.014   3.740   9.587  0.3086 -0.8833 -1.9818
 4949TIP3    H239043   5.875   3.700   9.545  0.6784 -2.2583 -1.9571
 4950TIP3   OH239044   0.930   6.373   8.051 -0.0101 -0.1251  0.2302
 4950TIP3    H139045   0.979   6.428   8.113 -1.5230  0.2117  1.1696
 4950TIP3    H239046   0.909   6.432   7.978  0.8130 -0.2344 -0.1133
 4951TIP3   OH239047   7.396   5.078   6.525  0.1424  0.1521 -0.1817
 4951TIP3    H139048   7.369   5.040   6.442  0.7898 -0.1643 -0.2504
 4951TIP3    H239049   7.491   5.089   6.517  0.1024  0.8615  0.2103
 4952TIP3   OH239050   5.317   2.723   9.560  0.4965 -0.1415  0.3591
 4952TIP3    H139051   5.249   2.708   9.627  1.4349  0.7231  1.5664
 4952TIP3    H239052   5.359   2.638   9.548 -0.3282 -0.5243  0.1286
 4953TIP3   OH239053   5.595   0.810   7.343  0.2643  0.3171 -0.1974
 4953TIP3    H139054   5.600   0.793   7.249 -0.8510  0.6101 -0.3230
 4953TIP3    H239055   5.503   0.832   7.359  0.8091  2.2131  0.6258
 4954TIP3   OH239056   0.554   7.541   7.687 -0.2397 -0.0783 -0.0823
 4954TIP3    H139057   0.600   7.573   7.764  1.2302 -2.8712  0.3566
 4954TIP3    H239058   0.560   7.613   7.624 -2.4357  2.7431  2.5977
 4955TIP3   OH239059   7.184   3.264   8.880 -0.7484  0.5601  0.0150
 4955TIP3    H139060   7.111   3.225   8.831 -2.3892  2.8136  0.4848
 4955TIP3    H239061   7.189   3.354   8.847 -0.5960  1.5439  2.5367
 4956TIP3   OH239062   5.095   4.456   9.651 -0.1392 -0.0100 -0.2954
 4956TIP3    H139063   5.176   4.505   9.654 -0.0765 -0.1485  0.5314
 4956TIP3    H239064   5.045   4.495   9.579  0.1662  0.8550 -0.0455
 4957TIP3   OH239065   6.289   1.473   7.320 -0.1065  0.2438  0.3608
 4957TIP3    H139066   6.375   1.491   7.284 -0.0644  0.9228  0.7844
 4957TIP3    H239067   6.228   1.510   7.257 -0.0927 -0.3283  0.0102
 4958TIP3   OH239068   2.880   3.678   6.938  0.2321 -0.0012  0.0465
 4958TIP3    H139069   2.881   3.773   6.947 -0.7780 -0.1017  1.6344
 4958TIP3    H239070   2.972   3.652   6.939  0.4979  0.9139  0.0999
 4959TIP3   OH239071   1.716   5.032   9.115 -0.4998  0.3183 -0.1817
 4959TIP3    H139072   1.745   4.980   9.041  0.4464  1.8521 -0.9474
 4959TIP3    H239073   1.779   5.014   9.184 -0.4154  0.1319 -0.3087
 4960TIP3   OH239074   3.996   2.755   8.322  0.0400 -0.4074 -0.4620
 4960TIP3    H139075   3.915   2.803   8.342  1.2719  1.0442  1.4398
 4960TIP3    H239076   4.039   2.745   8.407  2.2521 -0.3792 -1.5111
 4961TIP3   OH239077   2.519   7.524   7.554 -0.3554  0.1077 -0.0629
 4961TIP3    H139078   2.516   7.478   7.470  0.7536 -1.9107  0.9194
 4961TIP3    H239079   2.578   7.597   7.540 -1.3050  0.6444 -1.3985
 4962TIP3   OH239080   3.906   1.666   8.223 -0.4965  0.2936  0.5191
 4962TIP3    H139081   3.944   1.738   8.172  0.4239  1.0647  2.2054
 4962TIP3    H239082   3.982   1.622   8.262 -1.1815 -0.2083  1.3110
 4963TIP3   OH239083   0.051   4.552   8.017 -0.2779  0.3160  0.8654
 4963TIP3    H139084  -0.008   4.615   8.059 -0.9259  2.2031 -2.4997
 4963TIP3    H239085  -0.002   4.473   8.006 -1.9027  1.5653 -0.9706
 4964TIP3   OH239086   1.486   4.302   7.947 -0.6730 -0.1546 -0.3223
 4964TIP3    H139087   1.422   4.369   7.922  1.2274  1.1876 -1.9044
 4964TIP3    H239088   1.554   4.352   7.994  0.0680 -1.2247 -0.2308
 4965TIP3   OH239089   2.163   0.964   8.758 -0.0057 -0.5648  0.1732
 4965TIP3    H139090   2.201   1.045   8.790 -2.6046  0.8837 -0.1266
 4965TIP3    H239091   2.232   0.923   8.705  1.5371  1.1422  0.7835
 4966TIP3   OH239092   0.703   2.789   8.484  0.0325 -0.1282  0.0039
 4966TIP3    H139093   0.793   2.760   8.500  0.3093  1.5471  1.9182
 4966TIP3    H239094   0.712   2.861   8.421  0.0030 -0.0190  0.1262
 4967TIP3   OH239095   6.631   4.892   7.754  0.3899 -0.2050  0.0666
 4967TIP3    H139096   6.581   4.914   7.833  0.5756 -0.8567  0.3685
 4967TIP3    H239097   6.685   4.817   7.779  1.9271  0.8067 -0.1014
 4968TIP3   OH239098   4.145   6.064   8.134  0.0489 -0.0305  0.1530
 4968TIP3    H139099   4.186   6.063   8.220  0.5830  1.4193 -0.0573
 4968TIP3    H239100   4.075   5.999   8.140  0.6498 -0.6057  1.3740
 4969TIP3   OH239101   2.088   6.967   8.455 -0.2246 -0.5572  0.2508
 4969TIP3    H139102   2.119   6.924   8.534 -0.4221 -1.5662 -0.1942
 4969TIP3    H239103   2.125   6.914   8.383  0.9878  1.0625 -0.3645
 4970TIP3   OH239104   6.929   1.399   7.324 -0.3028  0.4377 -0.1577
 4970TIP3    H139105   6.931   1.362   7.236  0.8230  0.8670 -0.3253
 4970TIP3    H239106   6.888   1.331   7.377 -1.4152  0.3547 -1.0803
 4971TIP3   OH239107   0.943   7.009   8.246  0.2226 -0.3799 -0.1484
 4971TIP3    H139108   0.969   6.941   8.183 -0.9938 -1.6790  0.7108
 4971TIP3    H239109   0.986   6.983   8.328  0.5728  0.4730 -0.0523
 4972TIP3   OH239110   1.898   6.484   8.755 -0.5588  0.2712 -0.3273
 4972TIP3    H139111   1.827   6.540   8.787 -0.1114  0.3627  0.5461
 4972TIP3    H239112   1.859   6.396   8.750 -0.6916  0.2911  0.3060
 4973TIP3   OH239113   4.517   4.199   7.974 -0.1703 -0.2672  0.4001
 4973TIP3    H139114   4.597   4.194   7.922  1.1175  1.9256  2.0159
 4973TIP3    H239115   4.547   4.207   8.064 -2.2873 -1.3220  1.2799
 4974TIP3   OH239116   7.037   5.026   7.815  0.6848  0.1287 -0.1306
 4974TIP3    H139117   7.008   4.935   7.809 -0.6969  0.4580  0.9125
 4974TIP3    H239118   7.126   5.020   7.849  0.6990 -0.8325 -0.2851
 4975TIP3   OH239119   7.126   0.411   7.802  0.8555  0.8570 -0.4088
 4975TIP3    H139120   7.092   0.421   7.891 -0.4167  0.9168 -0.8717
 4975TIP3    H239121   7.200   0.471   7.798  2.4573 -0.8782  1.3243
 4976TIP3   OH239122   0.597   1.521   7.109  0.2013 -0.0386  0.1493
 4976TIP3    H139123   0.651   1.486   7.180  0.1304  0.5109  0.4829
 4976TIP3    H239124   0.603   1.455   7.040  0.7811 -0.2890  0.4244
 4977TIP3   OH239125   6.993   4.797   9.270  0.2505 -0.0985 -0.0643
 4977TIP3    H139126   7.031   4.759   9.191 -1.3869 -0.1661 -0.8611
 4977TIP3    H239127   7.067   4.838   9.315  1.1636  0.2735 -1.8091
 4978TIP3   OH239128   0.829   0.408   8.001 -1.1166  0.0639 -0.3341
 4978TIP3    H139129   0.908   0.451   7.969 -0.9256 -0.4202 -0.5251
 4978TIP3    H239130   0.810   0.340   7.936 -1.2196 -0.3604  0.1277
 4979TIP3   OH239131   0.738   2.931   9.121  0.5760  0.2199 -0.4089
 4979TIP3    H139132   0.680   3.005   9.140 -1.9873 -1.6351 -0.4180
 4979TIP3    H239133   0.807   2.936   9.187 -0.4895  1.6424  0.6568
 4980TIP3   OH239134   0.277   5.990   6.813 -0.8086 -0.2048  0.7569
 4980TIP3    H139135   0.338   6.063   6.802 -0.2532 -0.2993  2.7558
 4980TIP3    H239136   0.317   5.918   6.764  0.6239 -0.1952  1.8231
 4981TIP3   OH239137   6.092   0.410   9.363  0.7027 -0.1273  0.6742
 4981TIP3    H139138   6.181   0.437   9.338  0.2495 -0.0878 -0.9757
 4981TIP3    H239139   6.050   0.491   9.392  1.0800 -0.0897  1.1417
 4982TIP3   OH239140   5.427   3.892   7.189  0.2986  0.6591  0.5170
 4982TIP3    H139141   5.430   3.976   7.236 -1.0807  0.2452  1.4011
 4982TIP3    H239142   5.450   3.827   7.255 -1.7640  0.0591  0.7114
 4983TIP3   OH239143   2.086   4.536   8.231  0.2532  0.4427 -0.6571
 4983TIP3    H139144   2.024   4.526   8.158 -0.7849 -0.0126  0.2607
 4983TIP3    H239145   2.067   4.462   8.289  2.8603 -0.7513 -1.1758
 4984TIP3   OH239146   4.543   2.305   8.170  0.3432 -0.5715 -0.6270
 4984TIP3    H139147   4.608   2.368   8.199 -1.3328  0.2131  1.8302
 4984TIP3    H239148   4.459   2.352   8.177 -0.8520 -2.6839  0.2340
 4985TIP3   OH239149   2.619   2.987   7.633 -0.0081  0.1760 -0.3824
 4985TIP3    H139150   2.692   3.035   7.593  1.6355 -2.7017 -1.1843
 4985TIP3    H239151   2.640   2.985   7.726  0.0128  0.8169 -0.3693
 4986TIP3   OH239152   3.502   2.230   6.847  0.1783  0.1555 -0.2825
 4986TIP3    H139153   3.433   2.171   6.875  1.3737 -1.0567  0.2007
 4986TIP3    H239154   3.576   2.210   6.904  0.3556  2.7904  0.5604
 4987TIP3   OH239155   6.354   6.700   8.334  0.0981  0.3226  0.0181
 4987TIP3    H139156   6.303   6.777   8.361 -1.8122 -0.6782 -0.5642
 4987TIP3    H239157   6.444   6.725   8.351 -0.5808  2.0627  1.4317
 4988TIP3   OH239158   7.173   2.150   9.171  0.2756  0.1137 -0.0614
 4988TIP3    H139159   7.198   2.205   9.096 -0.9669 -0.9520 -1.2947
 4988TIP3    H239160   7.113   2.204   9.222  0.8062  0.6985 -0.0481
 4989TIP3   OH239161   4.403   4.200   8.563  0.0414 -0.1042 -0.0661
 4989TIP3    H139162   4.446   4.261   8.502  1.4424  0.1167  1.0953
 4989TIP3    H239163   4.330   4.163   8.513  1.8840 -0.8992 -2.3291
 4990TIP3   OH239164   6.556   7.454   7.724  0.1057  0.3355  0.2673
 4990TIP3    H139165   6.518   7.509   7.655  2.1783  2.2328  0.5243
 4990TIP3    H239166   6.484   7.438   7.784 -0.8496  1.9523 -0.3683
 4991TIP3   OH239167   5.531   1.987   7.837  0.3909 -0.8796  0.4965
 4991TIP3    H139168   5.519   2.007   7.744  0.4343 -1.6581  0.3139
 4991TIP3    H239169   5.626   1.983   7.848  0.4770  1.3981  1.0780
 4992TIP3   OH239170   5.377   6.157   7.838 -0.2990  0.5686 -0.4528
 4992TIP3    H139171   5.285   6.139   7.819 -0.2375  1.2117 -1.4813
 4992TIP3    H239172   5.425   6.088   7.792 -0.2933 -0.7603  1.4461
 4993TIP3   OH239173   2.195   5.281   6.597  0.3689  0.2130 -0.0607
 4993TIP3    H139174   2.233   5.290   6.510  2.2232 -0.0562  0.6663
 4993TIP3    H239175   2.197   5.369   6.634 -3.8141  1.1101 -1.5034
 4994TIP3   OH239176   1.381   6.485   8.142  0.1805 -0.1308  0.5629
 4994TIP3    H139177   1.331   6.451   8.216 -1.2721  3.3873  1.3609
 4994TIP3    H239178   1.441   6.549   8.180  0.0211  1.1327 -1.1788
 4995TIP3   OH239179   2.432   0.605   7.353 -0.8152 -0.0454 -0.1372
 4995TIP3    H139180   2.378   0.685   7.353  1.0975  1.4463 -3.0837
 4995TIP3    H239181   2.425   0.572   7.263 -0.3016 -2.3767  0.6099
 4996TIP3   OH239182   1.808   2.496   7.997 -0.1343 -0.4819  0.1115
 4996TIP3    H139183   1.856   2.575   8.019  0.3729 -0.5363 -0.7626
 4996TIP3    H239184   1.855   2.426   8.042  1.0565 -0.6288 -1.2853
 4997TIP3   OH239185   5.859   4.783   9.103 -0.0736  0.1991 -0.3202
 4997TIP3    H139186   5.903   4.758   9.022 -1.4431  1.8267 -1.6534
 4997TIP3    H239187   5.848   4.878   9.096 -0.8110  0.2836  1.4739
 4998TIP3   OH239188   7.619   0.823   8.599 -0.7793  0.6541 -0.0585
 4998TIP3    H139189   7.564   0.750   8.570  1.1875 -0.9541  0.0607
 4998TIP3    H239190   7.588   0.842   8.688 -1.2704 -0.0839 -0.0575
 4999TIP3   OH239191   0.489   7.173   8.435  0.7792  0.2831  0.2437
 4999TIP3    H139192   0.564   7.136   8.481  2.1602  2.2525 -0.2428
 4999TIP3    H239193   0.435   7.098   8.411  2.3284 -1.1606  1.0808
 5000TIP3   OH239194   3.396   2.491   8.857  0.6654  0.3107 -0.6818
 5000TIP3    H139195   3.302   2.499   8.871  0.6270  0.1481 -0.8497
 5000TIP3    H239196   3.427   2.440   8.932  1.1816  3.3590  1.3923
 5001TIP3   OH239197   0.462   5.749   8.027 -0.2338  0.3462  0.5575
 5001TIP3    H139198   0.470   5.834   7.983 -1.4748 -0.4963 -1.4641
 5001TIP3    H239199   0.549   5.731   8.061  0.6009  1.4656 -0.8810
 5002TIP3   OH239200   1.972   5.478   7.303  0.7033  0.0402 -0.3685
 5002TIP3    H139201   1.935   5.564   7.281 -1.0171 -1.0388 -1.9762
 5002TIP3    H239202   2.032   5.459   7.231  0.3713 -0.4850 -0.5143
 5003TIP3   OH239203   2.575   4.705   7.985 -0.3861 -0.8401  0.3232
 5003TIP3    H139204   2.613   4.662   8.062  0.3378 -2.1333 -0.7170
 5003TIP3    H239205   2.483   4.715   8.006 -0.4501 -2.3375  0.8773
 5004TIP3   OH239206   5.487   1.154   7.657  0.4928  0.1597  0.0363
 5004TIP3    H139207   5.413   1.183   7.711  0.4804 -1.5557  1.0104
 5004TIP3    H239208   5.525   1.080   7.705 -0.1412 -2.1747 -2.7154
 5005TIP3   OH239209   4.307   5.218   7.557 -0.2793  0.0251  0.1476
 5005TIP3    H139210   4.267   5.132   7.571 -0.2702 -0.1146 -0.6395
 5005TIP3    H239211   4.392   5.199   7.517  0.7687  0.3025  2.1258
 5006TIP3   OH239212   4.248   6.141   6.973  0.7730  0.0417 -0.3738
 5006TIP3    H139213   4.156   6.157   6.954  0.4995 -1.3052 -0.2210
 5006TIP3    H239214   4.261   6.048   6.956  1.5103 -0.3436  1.9726
 5007TIP3   OH239215   1.708   4.224   7.523 -0.0432 -1.0465 -0.4301
 5007TIP3    H139216   1.704   4.219   7.618  2.1523  0.2021 -0.2080
 5007TIP3    H239217   1.672   4.141   7.493 -0.3472 -1.6559  1.4921
 5008TIP3   OH239218   7.067   2.393   8.051  0.4831  0.5355 -0.5893
 5008TIP3    H139219   7.115   2.443   7.985  1.0880  0.7591  0.0097
 5008TIP3    H239220   7.133   2.339   8.093  0.2141  0.8265  0.2297
 5009TIP3   OH239221   6.372   5.062   7.615  0.0036  0.1831 -0.0304
 5009TIP3    H139222   6.433   5.084   7.544  1.4235  0.9712  1.3848
 5009TIP3    H239223   6.417   4.995   7.666 -0.2488  0.8718  1.1195
 5010TIP3   OH239224   3.594   1.111   7.710 -0.4966 -0.2831  0.4282
 5010TIP3    H139225   3.517   1.128   7.655 -1.5572 -0.2691  1.8595
 5010TIP3    H239226   3.585   1.019   7.735  0.3206 -0.4635  0.0565
 5011TIP3   OH239227   3.024   7.037   7.822  0.2877  0.0221 -0.6465
 5011TIP3    H139228   3.011   6.951   7.783 -1.2298 -0.3590  0.5814
 5011TIP3    H239229   3.040   7.020   7.914 -2.8916  1.0532  0.2514
 5012TIP3   OH239230   5.796   6.492   8.876 -0.2794  0.5141  0.3187
 5012TIP3    H139231   5.850   6.457   8.947 -0.7786 -0.4497  0.2495
 5012TIP3    H239232   5.814   6.586   8.875 -0.2725  0.5451  1.7230
 5013TIP3   OH239233   2.965   5.142   8.309 -0.1703 -0.4123 -0.4974
 5013TIP3    H139234   2.939   5.054   8.336 -0.1337 -0.8868 -1.9055
 5013TIP3    H239235   2.968   5.192   8.390  0.8084 -1.9524  0.4817
 5014TIP3   OH239236   3.705   1.835   8.757  0.1546  0.1742  0.4293
 5014TIP3    H139237   3.666   1.902   8.814 -0.7838  0.8081 -0.9061
 5014TIP3    H239238   3.710   1.877   8.671 -0.2889 -1.4182 -0.4067
 5015TIP3   OH239239   2.527   0.422   8.795  0.2658 -0.6089  0.1506
 5015TIP3    H139240   2.541   0.500   8.849  1.2802 -0.3636 -0.4477
 5015TIP3    H239241   2.531   0.454   8.705  2.9560 -1.6554 -0.1838
 5016TIP3   OH239242   7.491   6.314   7.608 -0.4396 -0.4226 -0.5634
 5016TIP3    H139243   7.560   6.362   7.654 -0.2896 -1.1465  0.0102
 5016TIP3    H239244   7.454   6.376   7.546  1.5919 -0.3709 -1.8102
 5017TIP3   OH239245   7.456   4.258   8.892 -0.2193 -0.2606 -0.9713
 5017TIP3    H139246   7.366   4.268   8.923  0.6654  3.7756  0.9642
 5017TIP3    H239247   7.499   4.207   8.961 -0.1425  1.5858  0.4301
 5018TIP3   OH239248   7.022   2.874   7.015 -0.5452 -0.0162 -0.2371
 5018TIP3    H139249   6.981   2.789   7.033  0.9741 -0.3565  2.1223
 5018TIP3    H239250   7.058   2.865   6.927  1.9107 -2.9122  0.8724
 5019TIP3   OH239251   3.213   3.201   9.661  0.2031  0.3941 -0.4098
 5019TIP3    H139252   3.187   3.287   9.626 -0.1733  1.0886  1.4716
 5019TIP3    H239253   3.138   3.144   9.642 -2.4516  2.0244  3.6585
 5020TIP3   OH239254   2.392   2.318   8.851 -0.4464  0.2963 -0.0992
 5020TIP3    H139255   2.423   2.230   8.871 -0.3702 -0.0160 -1.4378
 5020TIP3    H239256   2.304   2.304   8.814 -1.5751  1.0298  2.1292
 5021TIP3   OH239257   4.997   0.079   9.126 -0.3420  0.2729  0.3559
 5021TIP3    H139258   5.063   0.127   9.078  1.3013 -0.8157  1.4134
 5021TIP3    H239259   4.949   0.146   9.176  1.4270  0.9081  1.2705
 5022TIP3   OH239260   0.532   3.386   9.278 -0.5014  0.2332 -0.2393
 5022TIP3    H139261   0.608   3.386   9.336  0.6323  1.5558 -1.6303
 5022TIP3    H239262   0.544   3.463   9.222 -1.5408 -0.9224 -2.1844
 5023TIP3   OH239263   4.977   4.259   9.241  0.7395  0.0661  0.1537
 5023TIP3    H139264   4.970   4.202   9.317 -0.1908  1.3676  1.0946
 5023TIP3    H239265   4.906   4.323   9.253  1.4962  1.1692 -1.0488
 5024TIP3   OH239266   7.369   4.479   9.624 -0.5057  0.3493  0.0504
 5024TIP3    H139267   7.336   4.406   9.676 -1.1123  0.3397 -0.3407
 5024TIP3    H239268   7.441   4.441   9.573 -0.5519  0.1268  0.1481
 5025TIP3   OH239269   7.321   2.520   7.481 -0.6632 -0.1845  0.7334
 5025TIP3    H139270   7.411   2.549   7.465 -0.7912 -1.1446 -2.4165
 5025TIP3    H239271   7.270   2.601   7.485  0.2581  0.3701  2.5398
 5026TIP3   OH239272   5.675   5.743   8.888 -0.2287 -0.1565  0.4615
 5026TIP3    H139273   5.614   5.777   8.822  0.7466 -2.0020 -1.4822
 5026TIP3    H239274   5.629   5.756   8.971 -2.2205  0.7436 -0.7067
 5027TIP3   OH239275   0.310   2.199   8.655 -0.2446  0.0719 -0.0602
 5027TIP3    H139276   0.253   2.275   8.664 -0.9812 -0.4745 -0.0873
 5027TIP3    H239277   0.258   2.125   8.687 -0.0740 -0.6702 -1.4203
 5028TIP3   OH239278   4.435   6.010   8.884 -0.3474 -0.2914  0.4127
 5028TIP3    H139279   4.391   6.031   8.966  0.2466 -0.0872  0.6838
 5028TIP3    H239280   4.374   5.952   8.839 -0.4336 -0.8833  1.2585
 5029TIP3   OH239281   4.799   4.069   8.276  0.4516 -0.0215  0.4783
 5029TIP3    H139282   4.764   4.158   8.267  0.2493 -0.0760  0.7233
 5029TIP3    H239283   4.733   4.022   8.327 -0.5035 -0.9237 -1.4816
 5030TIP3   OH239284   5.831   7.350   9.054  0.2903 -0.1679  0.3177
 5030TIP3    H139285   5.769   7.381   9.119 -0.5392 -1.4293  0.1586
 5030TIP3    H239286   5.777   7.312   8.985  1.1837  0.3219 -0.6947
 5031TIP3   OH239287   3.180   1.281   8.483 -0.3803 -0.3873 -0.5046
 5031TIP3    H139288   3.197   1.291   8.389  0.7620 -1.2484 -0.4193
 5031TIP3    H239289   3.136   1.196   8.491 -1.9108  0.3870 -0.3938
 5032TIP3   OH239290   5.573   2.829   8.859  0.6819  0.0386  0.0352
 5032TIP3    H139291   5.622   2.756   8.896  0.1256  0.0989  0.9481
 5032TIP3    H239292   5.486   2.820   8.897  0.7433  1.4576  0.5661
 5033TIP3   OH239293   4.863   4.438   8.430  0.1363 -0.1044 -0.1783
 5033TIP3    H139294   4.902   4.387   8.500 -1.3184 -1.8849 -0.5895
 5033TIP3    H239295   4.790   4.385   8.399  0.9234  0.4406 -3.3085
 5034TIP3   OH239296   4.520   2.283   7.499  0.0823  0.2392 -0.4930
 5034TIP3    H139297   4.481   2.212   7.549 -0.0191  0.5156 -0.1756
 5034TIP3    H239298   4.505   2.259   7.407 -0.2165  0.0012 -0.3843
 5035TIP3   OH239299   4.745   0.089   7.356 -0.2069 -0.3555 -0.2178
 5035TIP3    H139300   4.673   0.135   7.400  2.2900  1.5024  2.2346
 5035TIP3    H239301   4.785   0.154   7.299  0.5288 -0.8834 -0.3264
 5036TIP3   OH239302   6.678   5.361   7.473  0.2105 -0.0933  0.1137
 5036TIP3    H139303   6.761   5.320   7.499  0.1325 -1.7334 -1.8967
 5036TIP3    H239304   6.621   5.287   7.452 -0.9382  1.0314 -0.8905
 5037TIP3   OH239305   2.925   5.719   8.067 -0.0029 -0.4291 -0.6042
 5037TIP3    H139306   2.983   5.667   8.012  0.4844  0.7407 -1.2320
 5037TIP3    H239307   2.961   5.808   8.063 -0.7565 -0.0456  0.5063
 5038TIP3   OH239308   3.093   1.573   8.306 -0.1115 -0.7220 -0.0412
 5038TIP3    H139309   3.020   1.524   8.268  1.5146 -3.0243 -0.3956
 5038TIP3    H239310   3.077   1.572   8.400  0.2231 -2.6531  0.0397
 5039TIP3   OH239311   2.865   4.612   9.333 -0.0304  0.0493 -0.0664
 5039TIP3    H139312   2.957   4.606   9.359  0.7576  1.3448 -2.2801
 5039TIP3    H239313   2.845   4.705   9.338 -0.2117  0.2109 -2.5376
 5040TIP3   OH239314   1.666   6.944   7.692 -0.1139  0.0851  0.4576
 5040TIP3    H139315   1.666   6.987   7.606  0.3573 -0.8553 -0.0387
 5040TIP3    H239316   1.574   6.917   7.704 -0.1258 -0.0439  0.1015
 5041TIP3   OH239317   1.304   2.482   8.039 -0.5482  0.2149  0.1215
 5041TIP3    H139318   1.214   2.452   8.029 -0.4521  0.4553 -1.9114
 5041TIP3    H239319   1.345   2.464   7.954  1.2178  0.4510  0.8722
 5042TIP3   OH239320   2.472   4.646   9.192  0.3783 -0.0690 -0.1634
 5042TIP3    H139321   2.469   4.631   9.286  2.7118  0.5923  0.0915
 5042TIP3    H239322   2.390   4.691   9.171  0.3430  0.8410  1.7646
 5043TIP3   OH239323   5.805   5.090   9.130 -0.4584 -0.3788  0.1272
 5043TIP3    H139324   5.824   5.112   9.221 -0.3427 -0.9492  0.2451
 5043TIP3    H239325   5.871   5.137   9.080 -2.2735  2.3148  0.0946
 5044TIP3   OH239326   4.274   4.777   8.516  0.1719  0.6368  0.1226
 5044TIP3    H139327   4.187   4.750   8.546 -1.3386  4.4788 -0.3299
 5044TIP3    H239328   4.321   4.797   8.596 -0.9801  2.8342  0.3136
 5045TIP3   OH239329   6.603   0.562   7.328  0.3064  0.4179  0.1437
 5045TIP3    H139330   6.602   0.650   7.289 -2.1908 -0.4234 -2.0033
 5045TIP3    H239331   6.672   0.516   7.279  1.6335  1.1062  1.2852
 5046TIP3   OH239332   5.184   2.890   8.688 -0.1807  0.1386  0.4705
 5046TIP3    H139333   5.170   2.914   8.780 -0.3602  0.5066  0.3481
 5046TIP3    H239334   5.188   2.974   8.642 -0.4243 -0.0547  0.0928
 5047TIP3   OH239335   2.661   7.396   8.403 -0.5445  0.0453  0.0403
 5047TIP3    H139336   2.608   7.432   8.475  1.0154  2.0719  0.2329
 5047TIP3    H239337   2.608   7.324   8.369 -2.6017  0.8278  1.3907
 5048TIP3   OH239338   1.803   4.478   7.521  0.1388  0.2546  0.0543
 5048TIP3    H139339   1.871   4.482   7.454 -1.3222 -0.3437 -1.5369
 5048TIP3    H239340   1.765   4.391   7.513 -0.8972  0.6049  0.8120
 5049TIP3   OH239341   3.505   2.267   9.027 -0.8176 -0.7753  0.4798
 5049TIP3    H139342   3.542   2.197   9.082 -1.4376  0.2288  2.2428
 5049TIP3    H239343   3.447   2.315   9.086 -0.3184  1.3096 -0.6425
 5050TIP3   OH239344   4.651   2.744   7.689  0.1937 -0.4542 -0.4733
 5050TIP3    H139345   4.647   2.762   7.596 -1.1154 -0.1014 -0.3722
 5050TIP3    H239346   4.609   2.659   7.699  0.2814 -0.4668 -0.1994
 5051TIP3   OH239347   1.289   4.278   6.682  0.0367 -0.2532  0.3076
 5051TIP3    H139348   1.200   4.244   6.684 -0.0369 -0.1925  3.2215
 5051TIP3    H239349   1.279   4.371   6.662 -0.4591 -0.4189 -0.2253
 5052TIP3   OH239350   4.250   0.393   8.354 -0.0265 -0.3801  0.7152
 5052TIP3    H139351   4.343   0.375   8.344  0.0587  0.5321 -0.4639
 5052TIP3    H239352   4.206   0.326   8.301  0.0783  0.2872 -0.2527
 5053TIP3   OH239353   6.213   4.061   8.854 -0.1050 -0.2804 -0.4400
 5053TIP3    H139354   6.257   4.076   8.771 -0.9874  0.2436 -0.8263
 5053TIP3    H239355   6.199   3.966   8.856  1.2694 -0.5018 -0.1704
 5054TIP3   OH239356   0.834   3.990   7.202 -0.8407  0.0928  0.0659
 5054TIP3    H139357   0.874   3.904   7.210 -1.8477 -0.4672 -0.6175
 5054TIP3    H239358   0.752   3.974   7.154 -0.6065  1.5525 -0.8854
 5055TIP3   OH239359   6.401   2.136   8.763  0.0868 -0.1494 -0.0836
 5055TIP3    H139360   6.491   2.103   8.756  0.8077  1.5115  0.8983
 5055TIP3    H239361   6.395   2.203   8.695  0.6161  1.8796  1.7812
 5056TIP3   OH239362   1.730   3.919   8.677  0.3390  0.2462  0.7333
 5056TIP3    H139363   1.665   3.986   8.697 -0.0393 -0.3758  1.6436
 5056TIP3    H239364   1.814   3.961   8.695  0.2071  1.0183 -0.3438
 5057TIP3   OH239365   2.399   2.841   7.649 -0.8762 -0.1306 -0.3566
 5057TIP3    H139366   2.440   2.756   7.630 -1.3182 -0.5403  0.4841
 5057TIP3    H239367   2.463   2.905   7.617 -1.9253 -0.7071 -4.0985
 5058TIP3   OH239368   4.689   4.460   7.824 -0.3039  0.9187  0.1668
 5058TIP3    H139369   4.652   4.390   7.771  0.6534  0.9939 -0.6240
 5058TIP3    H239370   4.661   4.440   7.914 -1.2333  0.3296 -0.2448
 5059TIP3   OH239371   7.281   7.287   7.221  0.1730 -0.1648  0.4579
 5059TIP3    H139372   7.364   7.331   7.234  0.6640 -1.1013  0.5794
 5059TIP3    H239373   7.224   7.354   7.183  1.3169  0.1820 -0.7370
 5060TIP3   OH239374   2.416   3.176   9.254  0.3161  0.2760 -0.0812
 5060TIP3    H139375   2.512   3.178   9.248  0.3449 -1.2847 -0.7172
 5060TIP3    H239376   2.398   3.159   9.346  0.7347 -1.1381 -0.2322
 5061TIP3   OH239377   7.434   2.724   8.989  0.2449  0.1901 -0.3575
 5061TIP3    H139378   7.472   2.646   9.029  0.7159  0.6804  0.1774
 5061TIP3    H239379   7.385   2.766   9.060 -0.3499  0.1699 -0.7467
 5062TIP3   OH239380   3.706   5.074   9.390 -0.1093  1.0482 -0.1682
 5062TIP3    H139381   3.647   5.084   9.465  1.6092  1.2188  1.2285
 5062TIP3    H239382   3.699   4.982   9.366 -1.9145  1.3327 -0.9131
 5063TIP3   OH239383   3.055   7.281   7.087  0.3628  0.3984  0.2905
 5063TIP3    H139384   2.960   7.273   7.092  0.1837  0.2766 -2.1360
 5063TIP3    H239385   3.088   7.207   7.139 -0.8740  0.0836  0.6534
 5064TIP3   OH239386   3.726   6.359   8.008 -0.2075  0.8415 -0.3092
 5064TIP3    H139387   3.821   6.364   7.997 -0.2441  1.2208 -0.5055
 5064TIP3    H239388   3.704   6.268   7.991  0.2519  0.4990  0.8794
 5065TIP3   OH239389   4.957   4.368   7.851 -0.1275 -0.0999 -0.0330
 5065TIP3    H139390   4.923   4.283   7.881  1.3012 -1.4186 -1.9127
 5065TIP3    H239391   4.879   4.420   7.833 -1.0350 -1.0414  1.0161
 5066TIP3   OH239392   7.601   1.501   9.554  0.5419 -0.0561  0.7248
 5066TIP3    H139393   7.691   1.470   9.551  1.0390  1.0518  2.6043
 5066TIP3    H239394   7.604   1.587   9.510 -0.2916 -1.3294 -2.0450
 5067TIP3   OH239395   2.670   7.635   7.181 -0.1285  0.0483 -0.3958
 5067TIP3    H139396   2.641   7.569   7.244 -0.2315  1.7966  1.4643
 5067TIP3    H239397   2.592   7.650   7.126 -1.1643  0.9561  1.2583
 5068TIP3   OH239398   5.124   1.383   6.892 -0.4255 -0.1656  0.2555
 5068TIP3    H139399   5.112   1.463   6.942  0.1983 -0.8530  1.5527
 5068TIP3    H239400   5.091   1.313   6.949 -2.6731 -0.7250 -1.5439
 5069TIP3   OH239401   6.500   2.552   8.867 -0.2987 -0.2898 -0.6532
 5069TIP3    H139402   6.419   2.601   8.884  0.8870  1.1927  0.9625
 5069TIP3    H239403   6.546   2.604   8.801  0.6959  0.5307  0.6429
 5070TIP3   OH239404   6.120   5.183   7.118 -0.0295  0.3335  0.1268
 5070TIP3    H139405   6.096   5.094   7.144  0.2768 -0.0214 -0.7461
 5070TIP3    H239406   6.048   5.238   7.149 -0.3222 -0.2470  0.4936
 5071TIP3   OH239407   4.899   0.850   8.897 -0.1865  0.2366 -0.3314
 5071TIP3    H139408   4.964   0.910   8.862  2.3093 -1.6123  0.8695
 5071TIP3    H239409   4.945   0.801   8.965 -2.0965 -2.9437 -1.1434
 5072TIP3   OH239410   1.044   0.577   7.591  0.2693 -0.3451 -0.4023
 5072TIP3    H139411   0.956   0.615   7.583  0.7635  0.5350 -2.0755
 5072TIP3    H239412   1.099   0.630   7.533  2.3409  0.2951  2.0016
 5073TIP3   OH239413   3.946   7.620   7.573  0.4818  0.1713  0.5636
 5073TIP3    H139414   3.873   7.594   7.517  1.9606 -0.1187 -1.3484
 5073TIP3    H239415   3.917   7.602   7.662 -1.6441 -0.1972 -0.1648
 5074TIP3   OH239416   1.788   4.200   6.776 -0.6229  0.4175 -0.4783
 5074TIP3    H139417   1.833   4.121   6.745  0.6922  1.1596 -0.5578
 5074TIP3    H239418   1.859   4.263   6.792 -1.5054  1.0611  1.1296
 5075TIP3   OH239419   6.430   0.822   8.418  0.4503  0.3990  0.2538
 5075TIP3    H139420   6.452   0.854   8.506  1.6567 -0.7859  0.3985
 5075TIP3    H239421   6.355   0.876   8.392  1.9849  2.9376  0.7185
 5076TIP3   OH239422   2.752   5.638   8.256 -0.5365  0.0458 -0.7620
 5076TIP3    H139423   2.801   5.640   8.338 -0.1547  2.2300 -0.9682
 5076TIP3    H239424   2.814   5.666   8.190 -1.6777  1.6129 -1.2325
 5077TIP3   OH239425   0.539   2.992   7.265  0.5419 -0.1933 -0.2254
 5077TIP3    H139426   0.582   2.916   7.226 -0.4560 -0.0198 -1.7486
 5077TIP3    H239427   0.523   3.051   7.192 -1.3950  0.1628  0.4293
 5078TIP3   OH239428   5.591   1.761   8.373  0.5875 -0.3171 -0.1286
 5078TIP3    H139429   5.650   1.835   8.357 -1.2508  1.2336 -0.1481
 5078TIP3    H239430   5.581   1.758   8.468  1.4757 -1.2489 -0.0518
 5079TIP3   OH239431   2.865   5.141   9.067 -0.2841 -0.4502 -0.5726
 5079TIP3    H139432   2.908   5.080   9.007 -1.3377  0.0938 -1.9396
 5079TIP3    H239433   2.773   5.142   9.039 -0.8468 -0.2971  1.1737
 5080TIP3   OH239434   6.131   5.940   8.474  0.0585  0.0815 -0.4878
 5080TIP3    H139435   6.177   5.904   8.398 -0.9350 -1.5926 -0.3466
 5080TIP3    H239436   6.083   5.865   8.511  0.1445  0.9462  1.5173
 5081TIP3   OH239437   5.919   6.837   7.466 -0.1866  0.3199  0.0541
 5081TIP3    H139438   5.889   6.749   7.487 -0.1911  0.5407  1.0188
 5081TIP3    H239439   5.960   6.868   7.546 -2.6868  2.2602  0.6988
 5082TIP3   OH239440   6.068   1.231   8.802 -0.5656 -0.3545  0.7456
 5082TIP3    H139441   6.021   1.297   8.854 -1.0157 -0.6025  0.6559
 5082TIP3    H239442   6.001   1.193   8.745 -0.2690 -0.7602  0.6642
 5083TIP3   OH239443   0.207   3.450   8.449 -0.4318  0.2801  0.1602
 5083TIP3    H139444   0.288   3.469   8.498  0.8922  0.3113 -1.9101
 5083TIP3    H239445   0.216   3.359   8.421 -1.1470  0.2641 -0.0401
 5084TIP3   OH239446   3.369   3.966   8.295  0.1034 -0.1823 -0.1285
 5084TIP3    H139447   3.384   4.055   8.263 -0.4109  0.3402  1.0276
 5084TIP3    H239448   3.365   3.976   8.390 -1.3799 -1.2209 -0.0632
 5085TIP3   OH239449   6.753   3.375   6.933  0.0155  0.0446 -0.0497
 5085TIP3    H139450   6.748   3.350   6.841  1.0555 -0.0188 -0.1100
 5085TIP3    H239451   6.795   3.461   6.932 -0.6839  0.3935  0.3252
 5086TIP3   OH239452   1.979   5.800   6.778 -0.0360  0.3038 -0.1203
 5086TIP3    H139453   2.063   5.753   6.774 -1.0615 -1.6787  0.4033
 5086TIP3    H239454   1.988   5.871   6.715  2.2655  0.5272  0.3745
 5087TIP3   OH239455   7.215   2.045   8.855 -0.2982 -0.4618  0.3282
 5087TIP3    H139456   7.166   1.973   8.894 -1.5646 -1.4844 -2.8555
 5087TIP3    H239457   7.149   2.113   8.840 -0.7619 -1.4895 -3.1407
 5088TIP3   OH239458   4.011   7.484   9.205 -0.6273 -0.1490 -0.1306
 5088TIP3    H139459   3.960   7.412   9.242 -0.1441 -1.0603 -1.1904
 5088TIP3    H239460   4.096   7.445   9.183  0.1003  1.0418  0.4156
 5089TIP3   OH239461   5.221   7.469   6.777  0.1137  0.2125  0.1223
 5089TIP3    H139462   5.143   7.431   6.817 -0.6872  1.5479 -0.0960
 5089TIP3    H239463   5.263   7.395   6.732 -0.8942 -0.5786  0.4305
 5090TIP3   OH239464   3.192   2.878   9.267 -0.0093  0.0167  0.2202
 5090TIP3    H139465   3.120   2.941   9.264  0.4501  0.6246  1.3232
 5090TIP3    H239466   3.165   2.807   9.208  0.2554  2.0511 -2.5622
 5091TIP3   OH239467   2.222   7.048   7.188 -0.0329  0.3222  0.0005
 5091TIP3    H139468   2.266   7.110   7.246 -0.1329 -0.2084  0.6506
 5091TIP3    H239469   2.138   7.089   7.168 -0.5045 -0.0262  1.2065
 5092TIP3   OH239470   0.982   3.498   8.143 -0.4158  0.2605 -0.1751
 5092TIP3    H139471   1.075   3.514   8.164 -0.2846  0.0296 -0.5751
 5092TIP3    H239472   0.962   3.415   8.187 -0.1620 -0.1844 -0.8896
 5093TIP3   OH239473   0.272   3.159   7.511 -0.0692  0.6201 -0.2655
 5093TIP3    H139474   0.179   3.140   7.493 -0.3154  1.0644  0.4933
 5093TIP3    H239475   0.279   3.157   7.606  0.5160  1.4388 -0.2784
 5094TIP3   OH239476   1.609   3.455   8.762 -0.0312 -0.3125  0.0499
 5094TIP3    H139477   1.654   3.539   8.777  0.6768 -0.6409 -0.2003
 5094TIP3    H239478   1.615   3.442   8.667  1.9155 -1.7608  0.3229
 5095TIP3   OH239479   1.235   1.939   6.266  0.0757 -0.2098 -0.3921
 5095TIP3    H139480   1.224   1.944   6.171  0.8049  0.1405 -0.4591
 5095TIP3    H239481   1.214   1.847   6.287  1.2646 -0.6557 -1.0674
 5096TIP3   OH239482   2.265   6.721   7.974 -0.5729 -0.2206 -0.6171
 5096TIP3    H139483   2.285   6.638   7.931  0.0662 -0.6341  0.4285
 5096TIP3    H239484   2.346   6.770   7.970  0.6228 -1.5493  2.8535
 5097TIP3   OH239485   5.760   3.184   7.315  0.6558  0.1720 -0.4042
 5097TIP3    H139486   5.672   3.183   7.352  0.8248 -2.6529  0.1097
 5097TIP3    H239487   5.749   3.157   7.224  0.9690  0.3257 -0.4914
 5098TIP3   OH239488   0.181   5.395   9.020 -0.0668 -0.1307  0.6650
 5098TIP3    H139489   0.242   5.320   9.016 -2.4362 -2.1657 -1.6547
 5098TIP3    H239490   0.178   5.427   8.929  0.1237  2.2270  1.4280
 5099TIP3   OH239491   3.021   1.311   7.146 -0.3404 -0.7291 -0.1203
 5099TIP3    H139492   2.983   1.382   7.199  0.7407  0.2387 -0.5990
 5099TIP3    H239493   2.947   1.276   7.097 -0.7584  0.6531 -0.5105
 5100TIP3   OH239494   1.183   1.672   6.324 -0.0875  0.2288 -0.6907
 5100TIP3    H139495   1.165   1.668   6.418 -0.4641  1.0623 -0.7225
 5100TIP3    H239496   1.201   1.581   6.299 -0.1184 -0.0155  0.1569
 5101TIP3   OH239497   5.598   6.317   8.965 -0.5590 -0.4471 -0.2676
 5101TIP3    H139498   5.666   6.373   8.926 -0.6598  0.5627  0.9298
 5101TIP3    H239499   5.576   6.361   9.048 -1.4091 -1.7146  0.2031
 5102TIP3   OH239500   1.647   2.001   7.978 -0.3816 -0.1591  0.0269
 5102TIP3    H139501   1.666   1.968   8.066 -0.2111  0.7178  0.3248
 5102TIP3    H239502   1.609   2.088   7.992 -1.3822 -0.4570 -0.7247
 5103TIP3   OH239503   6.544   6.229   6.678  0.1466  0.1714 -0.6997
 5103TIP3    H139504   6.539   6.226   6.583 -0.0276 -2.0903 -0.6776
 5103TIP3    H239505   6.459   6.261   6.706  0.0358  0.3987 -1.3006
 5104TIP3   OH239506   7.316   1.956   7.609 -0.1807  0.2809 -0.0026
 5104TIP3    H139507   7.369   2.031   7.637  1.4973 -0.8538  0.0322
 5104TIP3    H239508   7.231   1.994   7.588  0.7976  2.3176 -0.6312
 5105TIP3   OH239509   0.868   7.308   7.079 -0.5914  0.0150  0.0009
 5105TIP3    H139510   0.787   7.297   7.031 -0.0149  0.7786 -1.1797
 5105TIP3    H239511   0.928   7.244   7.041 -0.1374  0.6090 -0.3093
 5106TIP3   OH239512   5.718   3.018   8.084 -0.2930 -0.2210  0.4281
 5106TIP3    H139513   5.732   2.990   7.993 -1.2741 -1.3864  0.6096
 5106TIP3    H239514   5.711   2.936   8.133 -1.0463  0.3820  1.3516
 5107TIP3   OH239515   5.810   2.006   8.134 -0.0276 -0.6827 -0.0071
 5107TIP3    H139516   5.808   1.974   8.224  0.4356 -1.3746 -0.2424
 5107TIP3    H239517   5.819   2.101   8.143 -0.6697 -0.6789  0.6818
 5108TIP3   OH239518   1.450   1.776   9.031 -0.3566  0.1728  0.5207
 5108TIP3    H139519   1.522   1.719   9.004  0.1616  0.3351  1.5147
 5108TIP3    H239520   1.476   1.807   9.118 -2.0325 -0.4604  1.2806
 5109TIP3   OH239521   1.991   4.230   9.131 -0.2226 -0.3764  0.8310
 5109TIP3    H139522   1.948   4.150   9.101  1.0134 -0.3439 -1.2462
 5109TIP3    H239523   2.058   4.248   9.065 -1.4043  3.2169  0.3667
 5110TIP3   OH239524   0.768   4.995   7.788  0.5906 -0.1785  0.0315
 5110TIP3    H139525   0.726   4.996   7.874  1.0492  0.7361  0.2484
 5110TIP3    H239526   0.832   5.065   7.791  0.1113  0.3547 -1.3011
 5111TIP3   OH239527   0.111   7.671   9.048  0.1720  0.4380  0.2599
 5111TIP3    H139528   0.080   7.609   9.113  0.9439  1.0804  1.2776
 5111TIP3    H239529   0.192   7.632   9.014  1.4181  1.4353  1.8864
 5112TIP3   OH239530   7.009   6.313   8.118  0.1743  0.5348  0.1226
 5112TIP3    H139531   7.008   6.276   8.030 -0.3727  1.1188 -0.1328
 5112TIP3    H239532   6.940   6.266   8.166  0.2429  0.4468  0.1323
 5113TIP3   OH239533   1.888   2.781   7.006 -0.2961 -0.3332  0.4783
 5113TIP3    H139534   1.888   2.776   7.101  0.7607 -0.4632  0.4799
 5113TIP3    H239535   1.796   2.771   6.982 -0.4314 -1.8021  1.4222
 5114TIP3   OH239536   7.228   4.301   9.774 -0.0130  0.0794 -0.6138
 5114TIP3    H139537   7.217   4.222   9.722 -1.5323 -0.9937  1.2029
 5114TIP3    H239538   7.240   4.269   9.864 -1.0388  1.8999  0.2261
 5115TIP3   OH239539   5.514   4.201   9.522  0.1574  0.5793  0.1553
 5115TIP3    H139540   5.581   4.141   9.488 -0.5450 -0.5851  0.7617
 5115TIP3    H239541   5.564   4.271   9.564  1.0322 -0.4973  0.9914
 5116TIP3   OH239542   0.054   1.261   7.423 -0.1647  0.0366  0.1132
 5116TIP3    H139543   0.054   1.279   7.517 -1.4314  0.2251  0.0838
 5116TIP3    H239544   0.147   1.261   7.399  0.1370  3.3444  0.7298
 5117TIP3   OH239545   2.408   5.683   6.694 -0.7150 -0.0687 -0.4422
 5117TIP3    H139546   2.480   5.653   6.640 -0.2443  0.9173 -0.3828
 5117TIP3    H239547   2.445   5.754   6.746 -2.2040  1.8464 -1.8606
 5118TIP3   OH239548   2.107   1.371   7.105 -0.1695  0.5021  0.0960
 5118TIP3    H139549   2.067   1.284   7.105 -1.2078  0.9629  0.3993
 5118TIP3    H239550   2.046   1.425   7.054  0.2299  1.1496  0.2915
 5119TIP3   OH239551   7.665   7.389   8.067 -0.1403  0.4677 -0.6265
 5119TIP3    H139552   7.592   7.410   8.008 -0.6925  1.8008  0.4938
 5119TIP3    H239553   7.706   7.313   8.026 -2.0904 -0.2795 -1.3623
 5120TIP3   OH239554   7.483   3.351   7.493 -0.3574  0.4793 -0.6890
 5120TIP3    H139555   7.403   3.333   7.541  0.6422 -2.0782  0.1699
 5120TIP3    H239556   7.552   3.348   7.560  0.6107  1.3778 -1.6054
 5121TIP3   OH239557   5.286   6.629   8.606 -0.0015 -0.0484  0.2920
 5121TIP3    H139558   5.240   6.640   8.523  0.4119  0.8592  0.1775
 5121TIP3    H239559   5.227   6.667   8.671  0.0921  0.0962  0.2915
 5122TIP3   OH239560   1.239   4.035   7.123 -0.3735  0.1776 -0.4302
 5122TIP3    H139561   1.149   4.049   7.154 -0.9377 -1.0329 -1.4075
 5122TIP3    H239562   1.282   3.988   7.194 -0.5782  0.5557 -0.0502
 5123TIP3   OH239563   1.347   4.153   7.522  0.0697  0.0402 -0.1447
 5123TIP3    H139564   1.352   4.248   7.528 -1.8911  0.1612  0.0888
 5123TIP3    H239565   1.431   4.123   7.558  0.3419  1.6429  0.6527
 5124TIP3   OH239566   1.697   3.724   7.408 -0.2937  0.5945 -0.1042
 5124TIP3    H139567   1.786   3.691   7.416  0.3333  2.5996  2.4705
 5124TIP3    H239568   1.644   3.663   7.459 -0.3396 -0.2993 -1.1950
 5125TIP3   OH239569   6.610   5.200   6.731  0.1212  0.3195 -0.0658
 5125TIP3    H139570   6.605   5.291   6.758  1.3656  0.6552 -0.8581
 5125TIP3    H239571   6.698   5.191   6.695 -0.6988 -0.6229 -1.9811
 5126TIP3   OH239572   0.702   7.010   8.542  0.3880 -0.6280 -0.3519
 5126TIP3    H139573   0.775   7.058   8.503 -1.0152  0.6978 -1.4594
 5126TIP3    H239574   0.694   7.047   8.630  1.2789 -1.0815 -0.0607
 5127TIP3   OH239575   1.704   4.478   7.114  0.3408 -0.2240  0.2730
 5127TIP3    H139576   1.687   4.571   7.100  0.5884 -0.3990 -1.3606
 5127TIP3    H239577   1.762   4.475   7.189  1.5743  1.0663 -0.5945
 5128TIP3   OH239578   7.145   7.672   9.588 -0.2402  0.1016 -0.2582
 5128TIP3    H139579   7.230   7.632   9.606  0.2147 -0.1284 -2.6964
 5128TIP3    H239580   7.086   7.598   9.571 -0.8047  0.2904  0.7459
 5129TIP3   OH239581   7.561   5.278   9.523  0.2635 -0.1446 -0.1832
 5129TIP3    H139582   7.579   5.266   9.617 -1.6711 -0.8864  0.1403
 5129TIP3    H239583   7.639   5.243   9.479  1.1487  0.1028  1.1408
 5130TIP3   OH239584   2.214   3.925   9.093  0.1889  0.1554 -0.6005
 5130TIP3    H139585   2.125   3.950   9.067 -1.2041 -1.3974  2.2320
 5130TIP3    H239586   2.212   3.830   9.094  1.4371  0.1159  0.8826
 5131TIP3   OH239587   6.485   1.127   7.591 -0.6682 -0.1060 -0.5080
 5131TIP3    H139588   6.555   1.176   7.547  0.4684 -0.8445  0.4424
 5131TIP3    H239589   6.415   1.192   7.602  0.2435  0.9192 -0.5781
 5132TIP3   OH239590   6.310   7.283   8.542  0.3168  0.0371  0.3106
 5132TIP3    H139591   6.351   7.209   8.497  1.0681  0.4974  0.2266
 5132TIP3    H239592   6.334   7.359   8.489  0.3698  0.4663  0.9450
 5133TIP3   OH239593   1.985   6.085   7.882  0.4668  0.3072 -0.1144
 5133TIP3    H139594   1.911   6.132   7.919 -0.3175  1.3001 -2.7232
 5133TIP3    H239595   1.950   6.042   7.804  2.0759 -1.3881  0.0197
 5134TIP3   OH239596   1.300   2.589   9.279 -0.2410 -0.2585  0.1939
 5134TIP3    H139597   1.295   2.560   9.370 -1.4461  0.4635  0.3760
 5134TIP3    H239598   1.242   2.666   9.274 -0.0884 -0.1954 -1.1427
 5135TIP3   OH239599   3.568   4.822   6.976 -0.1950  0.4615  0.1769
 5135TIP3    H139600   3.502   4.885   6.948 -1.0864 -0.5401 -0.0568
 5135TIP3    H239601   3.519   4.740   6.989  0.9962 -0.3061  0.0098
 5136TIP3   OH239602   0.661   4.355   9.178  0.3324 -0.4180 -0.0987
 5136TIP3    H139603   0.748   4.353   9.138  1.0209 -1.5335  1.3704
 5136TIP3    H239604   0.606   4.304   9.119  1.5917 -3.0507  0.8485
 5137TIP3   OH239605   6.234   7.060   8.176  0.5854 -0.1842  0.2152
 5137TIP3    H139606   6.289   7.072   8.254  1.1018 -2.7859  0.3634
 5137TIP3    H239607   6.295   7.027   8.110 -0.4231 -1.1917 -0.2372
 5138TIP3   OH239608   6.238   4.914   9.349  0.0633  0.6143 -0.2793
 5138TIP3    H139609   6.290   4.989   9.376 -0.5573  0.7792  0.4996
 5138TIP3    H239610   6.272   4.841   9.401  1.1573  0.1681 -1.5561
 5139TIP3   OH239611   0.212   3.181   8.410 -0.1968  0.7620 -0.3055
 5139TIP3    H139612   0.145   3.169   8.476  0.1274  2.0273  0.2783
 5139TIP3    H239613   0.274   3.109   8.425 -1.0758 -0.0419 -0.4523
 5140TIP3   OH239614   1.264   3.683   7.451  0.4564 -0.9906 -0.3488
 5140TIP3    H139615   1.209   3.673   7.529  0.0956  0.2981 -0.4229
 5140TIP3    H239616   1.219   3.631   7.384  1.1292 -2.6691  0.4365
 5141TIP3   OH239617   5.325   1.312   8.714 -0.5769 -0.2064  0.2596
 5141TIP3    H139618   5.358   1.402   8.709 -0.8468 -0.0175  1.4766
 5141TIP3    H239619   5.324   1.292   8.807 -2.1749 -0.8379  0.1433
 5142TIP3   OH239620   2.608   4.221   7.699  0.1262 -0.3311  0.3476
 5142TIP3    H139621   2.543   4.184   7.639 -0.2352  2.1237 -0.9231
 5142TIP3    H239622   2.561   4.291   7.744  1.8597  1.6609 -0.7476
 5143TIP3   OH239623   3.448   6.683   9.190 -0.2477  0.3181 -0.4646
 5143TIP3    H139624   3.392   6.758   9.172 -0.8593 -0.0756 -0.2292
 5143TIP3    H239625   3.487   6.702   9.275  2.3919  2.0257 -1.9410
 5144TIP3   OH239626   6.334   6.120   7.618 -0.0874 -0.0761  0.2300
 5144TIP3    H139627   6.400   6.113   7.686  0.2511 -0.1942 -0.1113
 5144TIP3    H239628   6.255   6.149   7.664  0.1141 -0.2487  0.6849
 5145TIP3   OH239629   2.927   1.595   8.724 -0.0467 -0.3795 -0.2039
 5145TIP3    H139630   2.945   1.508   8.689 -0.3254 -0.1802 -0.8606
 5145TIP3    H239631   2.949   1.589   8.817  5.4664  0.3685 -1.1417
 5146TIP3   OH239632   2.045   0.027   8.429  0.0634  0.0792  0.1589
 5146TIP3    H139633   2.115  -0.032   8.459 -0.0133  0.6942  1.6742
 5146TIP3    H239634   2.027   0.000   8.339  0.1069 -2.1269  0.7545
 5147TIP3   OH239635   6.707   0.645   9.563  0.7065 -0.1005 -0.6683
 5147TIP3    H139636   6.691   0.686   9.478 -0.0319  0.9313 -0.0490
 5147TIP3    H239637   6.731   0.555   9.542  1.9226  0.4960 -2.0440
 5148TIP3   OH239638   6.095   5.112   8.115  0.2487  0.1790 -0.2193
 5148TIP3    H139639   6.003   5.095   8.097 -0.2363  1.1113  1.2764
 5148TIP3    H239640   6.138   5.027   8.102 -0.6532 -0.0771 -1.7795
 5149TIP3   OH239641   2.522   0.383   8.293  1.0854 -0.4420  0.3412
 5149TIP3    H139642   2.503   0.373   8.200  0.5677 -0.5709  0.4558
 5149TIP3    H239643   2.485   0.468   8.316  3.3774  0.7350 -0.1030
 5150TIP3   OH239644   5.781   4.587   8.393  0.2165  0.0495  0.0212
 5150TIP3    H139645   5.768   4.658   8.457  1.3027  0.7960 -0.5576
 5150TIP3    H239646   5.702   4.588   8.340  0.3752  1.1007 -0.2249
 5151TIP3   OH239647   2.420   1.001   8.378  0.1724  0.4673 -0.3052
 5151TIP3    H139648   2.510   0.986   8.350 -0.7297 -2.3691 -2.0702
 5151TIP3    H239649   2.375   1.034   8.300 -0.4474  1.3938  0.4217
 5152TIP3   OH239650   6.829   6.460   7.272 -0.5623  0.4149  0.2205
 5152TIP3    H139651   6.824   6.524   7.343 -0.1381  0.9189 -0.1920
 5152TIP3    H239652   6.859   6.379   7.313 -0.3243  0.7033  0.6134
 5153TIP3   OH239653   5.704   1.694   9.366  0.3242 -0.4455 -0.2477
 5153TIP3    H139654   5.631   1.754   9.378 -1.2745 -2.6152  1.8849
 5153TIP3    H239655   5.780   1.750   9.351 -1.2797  2.0011  0.3164
 5154TIP3   OH239656   4.328   7.546   8.578 -0.2093  0.1829  0.1511
 5154TIP3    H139657   4.399   7.609   8.592  0.0256 -0.4156  1.9018
 5154TIP3    H239658   4.362   7.486   8.511 -0.3582  1.7449 -1.3793
 5155TIP3   OH239659   6.242   0.104   8.470  0.1363  0.0204 -0.0641
 5155TIP3    H139660   6.292   0.108   8.552  0.9919  0.1509 -0.5730
 5155TIP3    H239661   6.290   0.162   8.410 -1.5990  1.4999 -0.0750
 5156TIP3   OH239662   5.222   1.930   7.638  0.3203 -0.3593  0.3661
 5156TIP3    H139663   5.294   1.935   7.701 -1.0115  0.8965  1.8778
 5156TIP3    H239664   5.205   2.021   7.613 -1.6889 -0.4482  1.2335
 5157TIP3   OH239665   0.954   3.739   7.157 -0.2038 -0.2900 -0.4305
 5157TIP3    H139666   1.013   3.665   7.149 -0.9665 -1.0257  0.5240
 5157TIP3    H239667   0.871   3.707   7.121 -0.6740 -0.0797  0.4460
 5158TIP3   OH239668   5.043   6.181   8.442 -0.5449  0.4111  0.1086
 5158TIP3    H139669   4.979   6.113   8.462  2.0838 -2.6254 -0.9635
 5158TIP3    H239670   5.015   6.256   8.494 -4.5235 -0.8753  0.1908
 5159TIP3   OH239671   5.655   5.250   8.768 -0.0682 -0.0366  0.4611
 5159TIP3    H139672   5.628   5.307   8.840  1.4623 -1.5663  2.3465
 5159TIP3    H239673   5.730   5.296   8.729  0.1284  0.0432  0.9180
 5160TIP3   OH239674   4.357   7.355   8.379  0.0609 -0.0851  0.3085
 5160TIP3    H139675   4.273   7.361   8.334  0.6979  1.8777 -0.7639
 5160TIP3    H239676   4.353   7.272   8.427 -1.5259 -1.2361 -1.6307
 5161TIP3   OH239677   3.492   7.598   8.509 -0.4499  0.4056  0.4290
 5161TIP3    H139678   3.571   7.544   8.508 -1.7072 -1.5339  0.5782
 5161TIP3    H239679   3.450   7.580   8.424 -0.0907  2.4614 -0.2281
 5162TIP3   OH239680   5.386   1.598   8.690  0.4098 -0.3483  0.6128
 5162TIP3    H139681   5.317   1.658   8.662  1.2767 -0.0528 -1.0118
 5162TIP3    H239682   5.374   1.591   8.785 -0.9224  0.8524  0.5743
 5163TIP3   OH239683   5.088   1.333   8.555 -0.0798  0.8391 -0.1746
 5163TIP3    H139684   5.078   1.323   8.461  0.3037 -1.3407 -0.0390
 5163TIP3    H239685   5.181   1.317   8.571 -0.1971  0.8819  0.5941
 5164TIP3   OH239686   3.574   4.899   8.263 -0.3888  0.4089 -0.5415
 5164TIP3    H139687   3.528   4.945   8.193 -0.8945 -0.5983 -0.8833
 5164TIP3    H239688   3.523   4.820   8.279  0.6117 -0.1881 -0.1571
 5165TIP3   OH239689   0.455   6.846   7.534 -0.1592 -0.1503 -0.0237
 5165TIP3    H139690   0.394   6.913   7.502 -0.6574 -0.6485 -0.1262
 5165TIP3    H239691   0.401   6.787   7.586  0.2151 -0.6714 -0.2190
 5166TIP3   OH239692   1.584   2.257   7.972  0.5847  0.1499  0.1014
 5166TIP3    H139693   1.604   2.345   8.004  1.7613  0.8544 -2.3423
 5166TIP3    H239694   1.505   2.268   7.919  0.9143 -0.1902 -0.4715
 5167TIP3   OH239695   1.932   5.762   9.358  0.5491 -0.0372  0.1105
 5167TIP3    H139696   1.874   5.698   9.317  0.3905 -0.2972  0.7396
 5167TIP3    H239697   1.957   5.820   9.286 -1.5182  0.8608  0.0454
 5168TIP3   OH239698   1.096   0.532   8.702 -0.1917  0.4512 -0.2039
 5168TIP3    H139699   1.077   0.551   8.610 -2.3945 -0.0626  0.0814
 5168TIP3    H239700   1.010   0.511   8.740  0.6115  1.0174  2.0598
 5169TIP3   OH239701   5.837   3.532   7.189 -0.2677 -0.7335 -0.1062
 5169TIP3    H139702   5.873   3.476   7.121  1.3648 -0.3759  0.4144
 5169TIP3    H239703   5.914   3.570   7.232 -1.2911  0.6174  0.6181
 5170TIP3   OH239704   0.092   7.132   9.191 -0.0379 -0.0532 -0.0358
 5170TIP3    H139705   0.046   7.048   9.191 -3.0904  1.4255 -1.8905
 5170TIP3    H239706   0.165   7.119   9.131 -0.9446 -1.2135 -0.9355
 5171TIP3   OH239707   5.424   0.356   7.068 -0.0366 -0.5539  0.4238
 5171TIP3    H139708   5.385   0.377   6.983 -0.8258 -0.8204  0.7178
 5171TIP3    H239709   5.508   0.404   7.068 -0.4946  0.2746 -0.0865
 5172TIP3   OH239710   2.413   5.201   7.960 -0.4837  0.3592  0.1607
 5172TIP3    H139711   2.478   5.202   8.030 -0.5416 -0.3429  0.2374
 5172TIP3    H239712   2.330   5.188   8.006 -0.7694  1.8368  0.1151
 5173TIP3   OH239713   5.549   2.770   6.712 -0.0630 -0.1626  0.1409
 5173TIP3    H139714   5.610   2.824   6.762 -0.7124  0.4688  0.2665
 5173TIP3    H239715   5.585   2.682   6.718  0.1829 -0.0009  1.2247
 5174TIP3   OH239716   0.525   6.691   7.311 -0.1100  0.1708  0.3275
 5174TIP3    H139717   0.566   6.735   7.237 -1.9809  2.4556  0.5454
 5174TIP3    H239718   0.542   6.749   7.385  0.0610 -1.1113  1.3332
 5175TIP3   OH239719   4.328   2.757   9.397 -0.4003 -0.5362 -0.1822
 5175TIP3    H139720   4.259   2.773   9.332  0.6591  0.1743 -1.1633
 5175TIP3    H239721   4.397   2.820   9.376 -1.2154  1.9689  3.5131
 5176TIP3   OH239722   2.774   1.224   9.426 -0.0289  0.0685 -0.8852
 5176TIP3    H139723   2.680   1.238   9.412 -0.6092 -1.3206  1.1526
 5176TIP3    H239724   2.808   1.311   9.448 -1.2720  0.2506  0.4192
 5177TIP3   OH239725   6.330   3.375   7.366 -0.2176 -0.1288  0.6540
 5177TIP3    H139726   6.349   3.467   7.348 -0.9803 -0.3118 -1.3556
 5177TIP3    H239727   6.263   3.351   7.301  0.5883 -2.3405  0.5419
 5178TIP3   OH239728   3.557   6.146   9.260 -0.2133 -0.2265 -0.2628
 5178TIP3    H139729   3.646   6.164   9.293 -0.6021 -1.4977  1.6201
 5178TIP3    H239730   3.515   6.232   9.258  0.1955  0.0502  1.5644
 5179TIP3   OH239731   3.516   0.088   7.966 -0.3331 -0.0728 -0.3788
 5179TIP3    H139732   3.440   0.099   7.908 -0.1391 -2.4814 -1.2118
 5179TIP3    H239733   3.507  -0.001   8.001  0.4123  0.7527  2.0979
 5180TIP3   OH239734   3.004   5.530   7.403 -0.7900  0.4609 -0.1500
 5180TIP3    H139735   3.093   5.499   7.392 -0.2191  1.8686  0.2153
 5180TIP3    H239736   3.005   5.574   7.489 -1.7373  0.7814 -0.2908
 5181TIP3   OH239737   4.376   3.842   8.500 -0.3114  0.5319 -0.6872
 5181TIP3    H139738   4.450   3.784   8.481  2.4698  3.7901 -0.9263
 5181TIP3    H239739   4.320   3.791   8.559  1.5717 -2.5078 -1.2920
 5182TIP3   OH239740   7.444   3.195   9.070 -0.1445 -0.1446  0.5625
 5182TIP3    H139741   7.445   3.265   9.135  3.5356  1.3045 -0.7897
 5182TIP3    H239742   7.360   3.204   9.026 -0.7106  1.9414  1.9296
 5183TIP3   OH239743   1.459   6.493   9.021 -0.7432  0.5168  0.4186
 5183TIP3    H139744   1.514   6.439   8.965 -0.8663  1.8017 -1.0246
 5183TIP3    H239745   1.489   6.474   9.110 -0.6741 -1.7371 -0.0342
 5184TIP3   OH239746   7.223   2.091   6.911 -0.9113  0.1245 -0.1960
 5184TIP3    H139747   7.134   2.070   6.941 -1.0004  1.1373  0.2729
 5184TIP3    H239748   7.209   2.139   6.829 -0.7939  0.3469 -0.0843
 5185TIP3   OH239749   6.578   6.345   7.449  0.0533  0.2067  0.2714
 5185TIP3    H139750   6.625   6.416   7.495 -1.2283  0.6429  0.9608
 5185TIP3    H239751   6.495   6.385   7.423  0.3773 -0.3131 -1.6652
 5186TIP3   OH239752   4.705   6.244   7.013  0.0120 -0.6447 -0.1441
 5186TIP3    H139753   4.712   6.211   7.103 -0.5961 -1.7219 -0.4819
 5186TIP3    H239754   4.728   6.170   6.958 -0.3499 -0.2008 -0.9045
 5187TIP3   OH239755   2.499   4.941   9.513  0.9565 -0.2019 -0.2430
 5187TIP3    H139756   2.554   5.019   9.527  0.0966  0.3352  0.2533
 5187TIP3    H239757   2.512   4.918   9.421  0.7558  0.9030 -0.5583
 5188TIP3   OH239758   7.373   0.578   7.847 -0.3461  0.2687 -0.2490
 5188TIP3    H139759   7.434   0.539   7.910 -1.7653  0.9732  1.6662
 5188TIP3    H239760   7.403   0.669   7.839  0.3714 -0.0449 -1.3449
 5189TIP3   OH239761   6.272   1.421   8.278  0.1055 -0.2733 -0.2566
 5189TIP3    H139762   6.321   1.343   8.253 -1.5466 -1.4337 -0.0745
 5189TIP3    H239763   6.325   1.495   8.247  0.9588 -1.4944 -1.8355
 5190TIP3   OH239764   6.684   4.430   6.489  0.8638  0.1384  0.2622
 5190TIP3    H139765   6.687   4.339   6.459  2.2025  0.6169 -1.1602
 5190TIP3    H239766   6.768   4.467   6.464  0.3433  1.8017  0.7987
 5191TIP3   OH239767   5.657   3.285   7.078  0.5179  0.0194  0.0734
 5191TIP3    H139768   5.731   3.236   7.041  1.4031 -0.2114  2.0523
 5191TIP3    H239769   5.583   3.262   7.021  1.7784 -0.3574 -1.4893
 5192TIP3   OH239770   3.861   1.907   7.812 -0.3711 -0.0180 -0.6069
 5192TIP3    H139771   3.859   1.883   7.905  1.9725  2.1471  0.1036
 5192TIP3    H239772   3.857   1.823   7.766 -0.4520 -1.2233  1.4555
 5193TIP3   OH239773   7.035   3.581   8.919  0.8440  0.3037  0.3984
 5193TIP3    H139774   7.105   3.589   8.854  0.5086  1.5647  0.1550
 5193TIP3    H239775   7.046   3.658   8.975 -0.7294  0.8942 -0.0462
 5194TIP3   OH239776   2.589   6.879   8.417 -0.1359 -0.2601 -0.0923
 5194TIP3    H139777   2.656   6.915   8.359  1.4376 -3.2769 -0.3301
 5194TIP3    H239778   2.534   6.825   8.360 -1.2382  0.1205  0.5626
 5195TIP3   OH239779   1.490   5.998   7.284  0.1452  0.5930  0.4277
 5195TIP3    H139780   1.424   6.030   7.347 -1.1319 -1.4323  0.2045
 5195TIP3    H239781   1.445   6.000   7.200  0.0044 -1.6819  0.4091
 5196TIP3   OH239782   2.281   4.103   9.325  0.2516  0.4852 -0.2418
 5196TIP3    H139783   2.211   4.167   9.317 -0.7735 -0.6030 -0.2963
 5196TIP3    H239784   2.285   4.061   9.239  2.4380  1.9415 -0.9400
 5197TIP3   OH239785   0.434   5.512   7.518  0.8536  0.2220 -0.1466
 5197TIP3    H139786   0.338   5.509   7.514  0.7806 -0.1562  1.2807
 5197TIP3    H239787   0.461   5.421   7.516  1.1280  0.2908  0.2962
 5198TIP3   OH239788   1.953   0.038   9.137 -0.0744 -0.2023  0.1639
 5198TIP3    H139789   1.900  -0.002   9.206  0.5990 -0.6958  0.4016
 5198TIP3    H239790   2.009   0.100   9.183 -1.3361  1.2849 -0.2381
 5199TIP3   OH239791   3.900   0.711   9.046  0.1687  0.0324 -0.1234
 5199TIP3    H139792   3.909   0.630   9.096  1.2507  0.5327  0.5405
 5199TIP3    H239793   3.930   0.779   9.107 -0.7200  0.9318 -0.6643
 5200TIP3   OH239794   3.220   4.743   8.710  0.1765  0.5092 -0.1466
 5200TIP3    H139795   3.207   4.805   8.638  0.8751  0.5559 -0.2365
 5200TIP3    H239796   3.147   4.760   8.769 -0.6624  0.1595 -1.0604
 5201TIP3   OH239797   3.992   4.903   9.174  0.6556  0.0225 -0.0992
 5201TIP3    H139798   3.972   4.825   9.225 -0.6361 -0.3760 -1.1509
 5201TIP3    H239799   3.983   4.875   9.083 -0.2521  1.4917 -0.4941
 5202TIP3   OH239800   3.949   7.320   7.576  0.0141  0.0890  0.1703
 5202TIP3    H139801   3.965   7.258   7.647  1.0908  1.6622  1.3543
 5202TIP3    H239802   3.857   7.305   7.552  0.6284 -2.9999 -0.6832
 5203TIP3   OH239803   6.776   0.751   8.961  0.5739 -0.0405  0.6238
 5203TIP3    H139804   6.862   0.733   8.922  0.5731  0.1971  0.5076
 5203TIP3    H239805   6.797   0.793   9.045  0.6168  2.7286 -0.6385
 5204TIP3   OH239806   7.282   2.531   8.708 -0.4384  0.2198  0.2309
 5204TIP3    H139807   7.304   2.530   8.615  1.0199 -0.9046  0.5553
 5204TIP3    H239808   7.218   2.602   8.716 -0.8236  0.1520 -1.6599
 5205TIP3   OH239809   4.130   0.385   8.866 -0.5179 -0.2486  0.6816
 5205TIP3    H139810   4.073   0.442   8.815  0.6537  0.8380  0.5350
 5205TIP3    H239811   4.170   0.327   8.802 -1.0928 -0.6980  0.7247
 5206TIP3   OH239812   6.711   2.180   7.291  0.2146  0.3301  0.2355
 5206TIP3    H139813   6.667   2.216   7.368  4.0486  1.9544  1.9555
 5206TIP3    H239814   6.727   2.088   7.314 -0.8021  0.1551  0.2814
 5207TIP3   OH239815   4.533   2.213   8.918  1.0758 -0.1530 -0.0068
 5207TIP3    H139816   4.567   2.125   8.903  0.5910 -0.4489  0.5908
 5207TIP3    H239817   4.589   2.248   8.988  2.1617  0.5459 -1.1768
 5208TIP3   OH239818   7.580   4.607   6.431 -0.1891  0.2262 -0.4006
 5208TIP3    H139819   7.648   4.638   6.491  1.4653 -0.7501 -1.6859
 5208TIP3    H239820   7.506   4.666   6.446  1.0810  1.5993  0.7543
 5209TIP3   OH239821   2.963   6.137   7.789 -0.1859  0.1616  0.1525
 5209TIP3    H139822   3.017   6.115   7.712 -1.2629 -1.4280 -0.2038
 5209TIP3    H239823   2.983   6.229   7.807  0.1120  0.5799 -2.0322
 5210TIP3   OH239824   3.478   3.721   9.105  0.0139  0.1376  0.3257
 5210TIP3    H139825   3.428   3.678   9.036  0.5523  2.0310 -1.3608
 5210TIP3    H239826   3.415   3.781   9.146  0.0427  0.0136  0.5538
 5211TIP3   OH239827   7.030   0.363   7.540  0.3482 -0.1988 -0.2589
 5211TIP3    H139828   6.957   0.421   7.566 -0.4952 -0.8050 -1.2048
 5211TIP3    H239829   7.072   0.340   7.623 -0.3075  0.4686  0.2797
 5212TIP3   OH239830   5.611   1.609   7.490  0.3552  0.2018  1.0932
 5212TIP3    H139831   5.618   1.545   7.561  0.2171 -0.1756  0.7693
 5212TIP3    H239832   5.573   1.560   7.418 -0.8055  0.9393  1.1890
 5213TIP3   OH239833   5.499   5.873   8.457 -0.7629  0.0912 -0.2462
 5213TIP3    H139834   5.476   5.958   8.421 -1.4927 -0.0604 -0.1541
 5213TIP3    H239835   5.586   5.855   8.422  0.0545  1.5395  0.9325
 5214TIP3   OH239836   3.031   6.216   9.321  0.0699 -0.3408  0.7221
 5214TIP3    H139837   2.953   6.196   9.269 -0.5760  0.2251  1.4576
 5214TIP3    H239838   2.997   6.261   9.399  1.1308 -0.0747  1.0414
 5215TIP3   OH239839   5.153   6.349   7.093 -0.4231 -0.5944  0.2563
 5215TIP3    H139840   5.140   6.420   7.030 -1.4824 -1.2703 -0.3096
 5215TIP3    H239841   5.136   6.269   7.042 -1.0654 -1.1598  1.3363
 5216TIP3   OH239842   6.885   5.071   8.873  0.0664 -0.3200  0.4119
 5216TIP3    H139843   6.976   5.092   8.854  0.3251 -1.8915 -0.2061
 5216TIP3    H239844   6.886   4.981   8.904 -1.3029 -0.4381  0.2078
 5217TIP3   OH239845   1.835   2.012   8.748  0.1622 -0.0969 -0.6803
 5217TIP3    H139846   1.830   1.955   8.826 -1.2374  0.0540 -0.6273
 5217TIP3    H239847   1.757   1.988   8.697  0.8184  0.1397 -1.8143
 5218TIP3   OH239848   6.976   0.380   6.688  0.5496 -0.2243 -0.3951
 5218TIP3    H139849   6.921   0.360   6.612  1.7244 -1.2220 -1.0293
 5218TIP3    H239850   6.945   0.465   6.719  0.0043  0.1910 -1.9789
 5219TIP3   OH239851   1.379   5.488   7.772  0.1919 -0.1360 -0.3684
 5219TIP3    H139852   1.403   5.549   7.703 -0.5802 -0.2443 -0.7469
 5219TIP3    H239853   1.437   5.509   7.845 -0.7464  1.7523 -0.0996
 5220TIP3   OH239854   2.306   5.571   6.213 -0.3967  0.0428 -0.0881
 5220TIP3    H139855   2.244   5.605   6.277  1.0578  1.9758  0.3633
 5220TIP3    H239856   2.387   5.559   6.262  0.2647 -0.1030 -1.1927
 5221TIP3   OH239857   1.713   6.666   8.840 -0.4491  0.8123  0.8052
 5221TIP3    H139858   1.671   6.666   8.755  0.1596 -2.2180  0.3933
 5221TIP3    H239859   1.796   6.711   8.826  0.1838 -0.6960 -0.5679
 5222TIP3   OH239860   2.406   7.485   8.128 -0.3954  0.5610  0.0713
 5222TIP3    H139861   2.436   7.422   8.194 -0.9506  2.0268  1.7732
 5222TIP3    H239862   2.361   7.553   8.177 -0.4792  1.9334 -1.7951
 5223TIP3   OH239863   5.182   3.802   7.786 -0.0132 -0.0023  0.2773
 5223TIP3    H139864   5.186   3.888   7.827 -1.2161  0.2346 -0.0694
 5223TIP3    H239865   5.174   3.820   7.693  0.3627 -0.5054  0.1425
 5224TIP3   OH239866   0.574   2.287   7.970 -0.5201 -0.5539 -0.0675
 5224TIP3    H139867   0.566   2.288   7.874 -0.7356 -2.2246 -0.0873
 5224TIP3    H239868   0.534   2.369   7.998 -1.7083 -0.6658 -1.3365
 5225TIP3   OH239869   3.450   6.609   7.281 -0.3517 -0.7728 -0.0721
 5225TIP3    H139870   3.523   6.574   7.333 -0.4276 -1.6529 -0.5317
 5225TIP3    H239871   3.488   6.681   7.231 -0.3793  0.3978  1.5094
 5226TIP3   OH239872   1.211   0.338   8.453  0.3942  0.4891 -0.0917
 5226TIP3    H139873   1.229   0.417   8.403  0.0169  1.3906  1.1264
 5226TIP3    H239874   1.289   0.326   8.507  0.5972 -0.1855 -0.5306
 5227TIP3   OH239875   1.688   7.178   8.280  0.4091 -0.3813 -0.3316
 5227TIP3    H139876   1.748   7.216   8.343 -0.6113 -1.0189  1.0623
 5227TIP3    H239877   1.705   7.226   8.199  2.6194 -0.3896  0.0541
 5228TIP3   OH239878   7.582   4.364   8.683  0.3798  0.4781 -0.0002
 5228TIP3    H139879   7.541   4.316   8.755 -2.8452  1.1605 -1.2464
 5228TIP3    H239880   7.612   4.296   8.623  0.8600 -0.0288  0.7899
 5229TIP3   OH239881   5.585   7.398   7.516  0.5029  0.0949  0.1695
 5229TIP3    H139882   5.568   7.491   7.502 -1.1839 -0.3460 -0.9732
 5229TIP3    H239883   5.505   7.364   7.554 -0.1554 -1.4667 -2.3871
 5230TIP3   OH239884   1.915   1.794   8.063 -0.2557  0.0071 -0.1298
 5230TIP3    H139885   2.009   1.814   8.072 -0.5544  1.9010 -0.7432
 5230TIP3    H239886   1.889   1.760   8.149  1.3973 -2.6126 -0.5487
 5231TIP3   OH239887   1.246   5.679   7.161  0.2772  0.1624  0.1175
 5231TIP3    H139888   1.264   5.721   7.077 -0.1096  0.7408  0.3198
 5231TIP3    H239889   1.190   5.604   7.139  0.2594  0.2533 -0.1482
 5232TIP3   OH239890   4.794   5.370   9.387 -0.0294 -0.1595  0.4368
 5232TIP3    H139891   4.844   5.313   9.444  0.6109 -0.3143 -0.2611
 5232TIP3    H239892   4.714   5.390   9.436 -0.2855 -1.6657  0.6939
 5233TIP3   OH239893   3.316   3.956   9.138  0.1530 -0.2542 -0.4257
 5233TIP3    H139894   3.265   3.918   9.209  0.4308  0.5473  0.2152
 5233TIP3    H239895   3.250   3.982   9.073 -0.2694  0.7204  0.3653
 5234TIP3   OH239896   4.500   1.042   9.707  0.0625  0.1155 -0.1914
 5234TIP3    H139897   4.463   1.056   9.620 -2.1000  1.5353  0.8578
 5234TIP3    H239898   4.453   0.966   9.742 -0.7085  0.8851  0.5100
 5235TIP3   OH239899   2.218   0.625   8.784 -0.2187  0.0173  0.6508
 5235TIP3    H139900   2.299   0.652   8.740  1.1541 -1.6267  2.0458
 5235TIP3    H239901   2.202   0.694   8.848  1.8654 -1.0725  2.4787
 5236TIP3   OH239902   0.904   3.248   9.250  0.5011  0.0050  0.2635
 5236TIP3    H139903   0.903   3.152   9.258 -1.7781 -0.1990 -1.4610
 5236TIP3    H239904   0.854   3.266   9.170  0.5096  2.6697  0.7668
 5237TIP3   OH239905   4.347   6.606   7.447  0.0587  0.0507  0.2709
 5237TIP3    H139906   4.252   6.598   7.438  0.2992 -0.3640 -3.3004
 5237TIP3    H239907   4.382   6.536   7.393  2.3416  2.3813 -1.5464
 5238TIP3   OH239908   0.458   1.197   9.615  0.1920 -0.1911  0.0330
 5238TIP3    H139909   0.447   1.174   9.523 -0.2412 -0.4471  0.1475
 5238TIP3    H239910   0.408   1.131   9.663 -0.3521  0.4734  0.4056
 5239TIP3   OH239911   1.832   5.205   8.862  0.2046  0.0033  0.0684
 5239TIP3    H139912   1.757   5.170   8.910 -0.6833 -0.6307 -1.6745
 5239TIP3    H239913   1.906   5.153   8.892 -0.1689  0.1507  1.2969
 5240TIP3   OH239914   6.104   2.464   8.091  0.4290  0.3132 -0.5363
 5240TIP3    H139915   6.047   2.512   8.030 -2.3544 -1.5397  0.3959
 5240TIP3    H239916   6.083   2.372   8.076 -0.3036 -0.2554  3.0238
 5241TIP3   OH239917   3.470   2.173   8.012 -0.0897  0.0206 -0.2562
 5241TIP3    H139918   3.464   2.219   7.928  0.5124  0.9924  0.2211
 5241TIP3    H239919   3.473   2.242   8.077  2.3951 -0.6183  0.3970
 5242TIP3   OH239920   4.295   0.221   7.393 -0.0618  0.0014  0.3318
 5242TIP3    H139921   4.239   0.299   7.393 -0.3776 -0.2197 -0.4410
 5242TIP3    H239922   4.235   0.147   7.392  0.2421 -0.2597  0.7062
 5243TIP3   OH239923   2.050   4.479   6.727 -0.0878  0.3058 -0.5257
 5243TIP3    H139924   2.068   4.528   6.647  0.5324  1.0316  0.0412
 5243TIP3    H239925   1.962   4.506   6.753  0.4188  1.5200  0.0344
 5244TIP3   OH239926   0.857   1.517   7.492  0.2888  0.6408 -0.0894
 5244TIP3    H139927   0.890   1.494   7.579  0.4806  0.3338 -0.2403
 5244TIP3    H239928   0.884   1.608   7.480  2.7587 -0.1204 -0.9512
 5245TIP3   OH239929   5.413   1.093   8.935 -0.4960 -0.4872 -0.0644
 5245TIP3    H139930   5.363   1.062   9.011 -0.5833 -0.0615  0.0574
 5245TIP3    H239931   5.490   1.136   8.972 -0.5544 -0.2497 -0.2092
 5246TIP3   OH239932   1.284   6.552   2.161 -0.0731  0.2943 -0.8457
 5246TIP3    H139933   1.263   6.500   2.084 -1.2384  0.9541 -1.0006
 5246TIP3    H239934   1.274   6.643   2.133 -0.8985  0.5445  0.1625
 5247TIP3   OH239935   5.375   1.749   7.951  0.5104  0.2802 -0.3229
 5247TIP3    H139936   5.446   1.701   7.993  0.7852  0.8616 -0.0969
 5247TIP3    H239937   5.417   1.828   7.916  0.3631 -0.3546 -2.0346
 5248TIP3   OH239938   0.453   4.711   8.131 -0.2042  0.0072 -0.7287
 5248TIP3    H139939   0.368   4.675   8.157 -0.2946  1.2683  0.8972
 5248TIP3    H239940   0.517   4.649   8.164 -0.4589 -0.5583 -1.2791
 5249TIP3   OH239941   4.612   1.534   8.592 -0.3104 -0.0339  0.5391
 5249TIP3    H139942   4.676   1.512   8.660 -0.0216  2.2328  1.0904
 5249TIP3    H239943   4.592   1.450   8.550  3.0153 -0.8591  0.3146
 5250TIP3   OH239944   6.166   3.706   7.743 -0.4121  0.4553  0.0517
 5250TIP3    H139945   6.164   3.796   7.775  1.1900  0.9402 -1.0711
 5250TIP3    H239946   6.185   3.714   7.649  1.4049 -1.0338  0.2176
 5251TIP3   OH239947   2.691   7.664   7.846 -0.0047 -0.5280 -0.5480
 5251TIP3    H139948   2.676   7.673   7.940  0.0289  0.9069 -0.6637
 5251TIP3    H239949   2.783   7.639   7.839 -0.4455 -2.4755 -0.1542
 5252TIP3   OH239950   5.837   5.908   9.262  0.0929  0.0495 -0.4204
 5252TIP3    H139951   5.750   5.878   9.236  0.2174 -0.7347  0.0076
 5252TIP3    H239952   5.850   5.990   9.215 -0.3473 -0.4866 -1.5119
 5253TIP3   OH239953   4.280   3.268   7.623  0.4948 -0.2856 -0.1058
 5253TIP3    H139954   4.236   3.346   7.589 -1.1301 -0.6100  1.0909
 5253TIP3    H239955   4.283   3.282   7.718  1.7619 -0.9236 -0.0346
 5254TIP3   OH239956   4.113   6.491   7.319 -0.3772 -0.2807  0.4157
 5254TIP3    H139957   4.173   6.460   7.251 -1.5049 -2.7422  0.4616
 5254TIP3    H239958   4.030   6.505   7.273 -0.5653  0.2363  0.9006
 5255TIP3   OH239959   2.695   3.414   7.784 -0.2015 -0.3948 -0.2388
 5255TIP3    H139960   2.778   3.419   7.832  0.0384 -0.0986 -0.6710
 5255TIP3    H239961   2.667   3.323   7.795  1.4537 -1.2165 -2.1491
 5256TIP3   OH239962   2.099   7.298   9.120  0.1062  0.5617  0.9741
 5256TIP3    H139963   2.134   7.361   9.183  0.2512  0.4963  0.9594
 5256TIP3    H239964   2.004   7.308   9.126  0.1426  1.5853  0.1524
 5257TIP3   OH239965   6.718   6.470   8.082 -0.0330 -0.3163  0.5013
 5257TIP3    H139966   6.761   6.422   8.011  1.4394 -2.2614  2.6016
 5257TIP3    H239967   6.633   6.427   8.092  0.6682 -1.5695  1.3564
 5258TIP3   OH239968   2.499   0.598   8.565 -0.0750 -0.2583  0.3255
 5258TIP3    H139969   2.577   0.588   8.510 -0.6543 -0.2370 -0.5176
 5258TIP3    H239970   2.462   0.683   8.538 -0.2205 -0.1219  0.9416
 5259TIP3   OH239971   3.748   7.462   8.515 -0.5867  0.5477  0.2300
 5259TIP3    H139972   3.844   7.466   8.524 -0.6425  0.4660  0.8930
 5259TIP3    H239973   3.725   7.372   8.535 -0.8183  0.6046  0.2250
 5260TIP3   OH239974   7.476   1.254   9.106 -0.1900 -0.3218 -0.2852
 5260TIP3    H139975   7.464   1.223   9.016 -1.0871  0.3180 -0.3992
 5260TIP3    H239976   7.447   1.181   9.160 -1.1917 -0.1277 -0.5387
 5261TIP3   OH239977   4.042   1.839   8.049 -0.9189  0.0321  0.2019
 5261TIP3    H139978   4.071   1.764   7.998  3.6291 -1.1272  3.8706
 5261TIP3    H239979   4.093   1.913   8.015 -0.6886  0.0668  0.6155
 5262TIP3   OH239980   3.649   0.802   8.527  0.1599  0.2798 -0.1550
 5262TIP3    H139981   3.582   0.861   8.492 -2.6228 -1.7733  1.2964
 5262TIP3    H239982   3.662   0.830   8.617  0.9948  0.4133 -0.3091
 5263TIP3   OH239983   1.115   7.635   7.693  0.2417 -0.1252  0.1146
 5263TIP3    H139984   1.083   7.687   7.767  0.0776 -1.0757  0.7346
 5263TIP3    H239985   1.042   7.633   7.632 -0.0430 -0.3213  0.4593
 5264TIP3   OH239986   7.132   5.775   7.037 -0.2429  0.6836  0.2288
 5264TIP3    H139987   7.120   5.870   7.034 -1.5853  0.5130 -1.0948
 5264TIP3    H239988   7.190   5.756   6.964 -1.0867  0.3720 -0.3795
 5265TIP3   OH239989   3.397   1.602   8.227 -0.4268  0.2456  0.3940
 5265TIP3    H139990   3.485   1.642   8.225  0.3299 -1.2288  1.7779
 5265TIP3    H239991   3.338   1.673   8.201  1.2489  0.9453 -1.8599
 5266TIP3   OH239992   6.481   5.084   8.998 -0.6989  0.0835  0.2145
 5266TIP3    H139993   6.552   5.147   9.008  0.8520 -1.0728 -2.5491
 5266TIP3    H239994   6.517   5.001   9.031  0.0989 -0.9557 -2.9140
 5267TIP3   OH239995   3.647   1.745   8.181  0.3196 -0.4131 -0.1672
 5267TIP3    H139996   3.738   1.716   8.174  1.0034  0.9132  2.2392
 5267TIP3    H239997   3.645   1.827   8.132  0.7915  0.2742  0.9508
 5268TIP3   OH239998   5.239   7.285   9.200  0.0088 -0.4059 -0.1737
 5268TIP3    H139999   5.269   7.344   9.270 -0.0509  1.2774 -1.5058
 5268TIP3    H240000   5.205   7.344   9.133  1.1035 -1.8944 -2.1160
 5269TIP3   OH240001   0.785   7.231   8.210  0.3948  0.1197  0.0890
 5269TIP3    H140002   0.843   7.306   8.216 -0.1316  0.5149  0.3670
 5269TIP3    H240003   0.841   7.155   8.224  0.6677  0.5508  1.4410
 5270TIP3   OH240004   3.226   2.040   8.426 -0.2655  0.1209  0.4914
 5270TIP3    H140005   3.256   1.957   8.463 -0.4604  0.5424  1.6400
 5270TIP3    H240006   3.252   2.036   8.334  1.3672 -0.4280  0.9433
 5271TIP3   OH240007   2.056   0.149   7.791 -0.3291 -0.0302  0.3763
 5271TIP3    H140008   2.087   0.198   7.867 -1.5008 -0.5778  1.2478
 5271TIP3    H240009   2.116   0.174   7.720  0.7260  0.5750  1.4401
 5272TIP3   OH240010   0.446   3.618   6.952  0.4758 -0.2488 -0.0318
 5272TIP3    H140011   0.478   3.530   6.973 -0.9584 -0.5329  1.1429
 5272TIP3    H240012   0.488   3.639   6.868  1.2917 -1.8148 -0.0626
 5273TIP3   OH240013   0.498   1.520   8.916 -0.0593  0.0719  0.2647
 5273TIP3    H140014   0.491   1.607   8.955  0.3410 -0.5283  1.7413
 5273TIP3    H240015   0.408   1.496   8.893 -0.0759  1.1976 -0.9415
 5274TIP3   OH240016   7.510   2.305   7.115 -0.7992  0.2839 -0.0265
 5274TIP3    H140017   7.576   2.317   7.047  2.7666 -2.0113  2.6651
 5274TIP3    H240018   7.457   2.231   7.084 -0.3119  0.3385 -1.0164
 5275TIP3   OH240019   4.274   0.286   8.664  0.1392 -0.6970  0.0455
 5275TIP3    H140020   4.363   0.261   8.690  0.6866  1.9249  0.9219
 5275TIP3    H240021   4.282   0.310   8.572  0.5221  0.3014  0.3349
 5276TIP3   OH240022   3.569   1.213   7.148  0.1875 -0.0936  0.7725
 5276TIP3    H140023   3.488   1.245   7.110  0.5100  0.1528  0.2883
 5276TIP3    H240024   3.589   1.133   7.098  0.8303  0.4563  0.1369
 5277TIP3   OH240025   7.019   3.963   7.959 -0.0025 -0.4150 -0.3794
 5277TIP3    H140026   7.102   3.923   7.986  0.2648  0.2292 -0.2262
 5277TIP3    H240027   6.952   3.907   7.998  0.3465 -1.2983 -1.0091
 5278TIP3   OH240028   0.399   4.773   7.867 -0.0845 -0.9152 -0.0551
 5278TIP3    H140029   0.351   4.844   7.908 -0.3050 -0.3624 -1.2377
 5278TIP3    H240030   0.434   4.722   7.940  0.0420  0.3713  0.8072
 5279TIP3   OH240031   5.824   3.438   9.614  0.8185 -0.0667 -0.4528
 5279TIP3    H140032   5.862   3.524   9.632  0.6670  0.3928 -2.1873
 5279TIP3    H240033   5.734   3.456   9.588  0.8799 -0.7207 -1.1616
 5280TIP3   OH240034   4.209   5.803   9.191  0.0323  0.0025  0.9185
 5280TIP3    H140035   4.300   5.773   9.190  0.1494  0.3257 -0.8808
 5280TIP3    H240036   4.211   5.886   9.144 -1.3623 -0.5088 -0.0888
 5281TIP3   OH240037   3.846   0.811   7.633 -0.2723 -0.4379 -0.4196
 5281TIP3    H140038   3.763   0.783   7.673  0.4248 -1.5193  0.3232
 5281TIP3    H240039   3.837   0.788   7.541 -0.6953 -0.7845 -0.2944
 5282TIP3   OH240040   3.930   6.954   7.989 -0.1259 -0.6172 -0.3388
 5282TIP3    H140041   3.929   7.015   7.915  2.9634 -0.2120 -0.1570
 5282TIP3    H240042   3.838   6.929   8.000 -1.9809  5.0670  0.5107
 5283TIP3   OH240043   1.167   6.641   8.745 -0.5377  0.1291  0.3707
 5283TIP3    H140044   1.075   6.666   8.736 -1.1996 -1.8613  1.0448
 5283TIP3    H240045   1.175   6.614   8.837  0.1308 -1.7490 -0.1898
 5284TIP3   OH240046   6.341   3.425   7.659  0.0506  0.1448 -0.4188
 5284TIP3    H140047   6.331   3.427   7.564 -0.0173 -1.3581 -0.4549
 5284TIP3    H240048   6.434   3.411   7.673  0.3841  2.2183 -0.2075
 5285TIP3   OH240049   5.454   2.295   8.859 -0.7980 -0.0498 -0.2266
 5285TIP3    H140050   5.506   2.346   8.798  0.1244  0.9109  1.2889
 5285TIP3    H240051   5.484   2.323   8.946  0.0090 -3.3776  0.7403
 5286TIP3   OH240052   2.981   4.874   8.410 -0.1968 -0.0897  0.5539
 5286TIP3    H140053   2.905   4.883   8.467 -0.4332  1.0360  0.0964
 5286TIP3    H240054   2.944   4.872   8.321  0.2663 -0.2584  0.3616
 5287TIP3   OH240055   0.237   6.008   7.925  0.0109  0.3425 -0.5059
 5287TIP3    H140056   0.327   5.991   7.898 -0.1635 -1.6278 -0.0116
 5287TIP3    H240057   0.239   6.000   8.020 -1.0173 -1.6566 -0.6185
 5288TIP3   OH240058   3.006   0.013   8.685 -0.0278 -0.0133 -0.3900
 5288TIP3    H140059   2.980   0.075   8.617  1.2868 -0.1930 -1.0927
 5288TIP3    H240060   3.053   0.067   8.749  1.4730 -0.3141 -1.2045
 5289TIP3   OH240061   0.876   4.570   7.278  0.1654 -0.1380  1.1533
 5289TIP3    H140062   0.962   4.534   7.300  1.4925  1.1764 -1.4512
 5289TIP3    H240063   0.842   4.510   7.210  0.4619  1.0123 -0.0571
 5290TIP3   OH240064   4.526   3.549   7.987  0.2884 -0.0209  0.3955
 5290TIP3    H140065   4.550   3.498   8.064 -0.3866 -0.2650  0.4521
 5290TIP3    H240066   4.437   3.580   8.006  0.8717  1.6573  0.6191
 5291TIP3   OH240067   0.586   2.520   7.061  0.0229 -0.1617  0.7121
 5291TIP3    H140068   0.515   2.497   7.001 -0.5552  1.8921  0.5300
 5291TIP3    H240069   0.660   2.467   7.032 -0.6427 -0.2448 -0.9508
 5292TIP3   OH240070   3.035   0.676   8.704  0.5345  0.6505  0.0307
 5292TIP3    H140071   3.123   0.675   8.741  1.4777  1.5495 -2.0598
 5292TIP3    H240072   2.980   0.637   8.772  2.9485 -2.7634  0.2411
 5293TIP3   OH240073   7.173   0.169   8.815 -0.4496  0.0849 -0.1900
 5293TIP3    H140074   7.243   0.103   8.818 -0.4426 -0.0512 -1.9343
 5293TIP3    H240075   7.107   0.136   8.876  0.2776 -0.6705  0.2215
 5294TIP3   OH240076   2.324   2.663   9.495  0.0394  0.3934 -0.2222
 5294TIP3    H140077   2.296   2.744   9.452 -0.0753  0.7675  0.5357
 5294TIP3    H240078   2.371   2.615   9.427 -1.4373  0.2752 -1.2142
 5295TIP3   OH240079   1.429   4.063   6.761 -0.2319  0.8412  0.0855
 5295TIP3    H140080   1.385   4.146   6.741 -0.1518  0.6085 -1.0813
 5295TIP3    H240081   1.514   4.070   6.719 -0.0198  0.3751  0.4284
 5296TIP3   OH240082   1.745   7.170   7.477  0.0765  0.5592 -0.2176
 5296TIP3    H140083   1.756   7.124   7.394 -1.8722 -0.2403 -0.0821
 5296TIP3    H240084   1.722   7.260   7.452 -0.1766  0.4027 -0.5490
 5297TIP3   OH240085   0.189   3.561   7.788 -0.5390 -0.5287 -1.2164
 5297TIP3    H140086   0.272   3.553   7.836 -2.5110 -0.9281  2.5106
 5297TIP3    H240087   0.141   3.628   7.836 -2.5223 -0.5100 -3.1079
 5298TIP3   OH240088   1.241   4.847   7.470  0.3290 -0.0810 -0.7277
 5298TIP3    H140089   1.255   4.924   7.526  1.5118  0.6471 -1.9594
 5298TIP3    H240090   1.157   4.812   7.498 -1.8100  3.4316 -2.0931
 5299TIP3   OH240091   0.788   2.467   9.218 -0.3902  0.6121 -0.1331
 5299TIP3    H140092   0.842   2.400   9.177 -2.8130 -3.7697  2.9148
 5299TIP3    H240093   0.702   2.457   9.178 -0.7075  2.3759  0.0158
 5300TIP3   OH240094   6.794   5.651   8.897  0.2808 -0.0343 -0.0324
 5300TIP3    H140095   6.736   5.650   8.973  0.1428  1.9027 -0.0763
 5300TIP3    H240096   6.881   5.637   8.934 -0.0600 -1.9574  0.1392
 5301TIP3   OH240097   1.178   7.483   9.021  0.2344 -1.0642  0.1889
 5301TIP3    H140098   1.181   7.402   9.072 -1.1853 -1.4994 -0.3687
 5301TIP3    H240099   1.259   7.481   8.969  0.2576 -2.1014  0.2330
 5302TIP3   OH240100   2.828   2.147   7.074  0.0034  0.7728 -0.1586
 5302TIP3    H140101   2.859   2.095   7.000  1.3857  1.2927  0.0193
 5302TIP3    H240102   2.895   2.136   7.141 -0.8878  0.8578  0.7723
 5303TIP3   OH240103   2.467   0.743   9.191  0.1239 -0.3619  0.2873
 5303TIP3    H140104   2.547   0.750   9.243  0.3669 -0.3348 -0.0863
 5303TIP3    H240105   2.400   0.717   9.254 -0.3136  2.7847  1.2901
 5304TIP3   OH240106   3.319   0.109   7.780 -0.0496  0.2301  0.1474
 5304TIP3    H140107   3.356   0.094   7.692 -3.3312 -2.1352 -1.0250
 5304TIP3    H240108   3.272   0.192   7.772 -0.5172 -0.0830 -0.4156
 5305TIP3   OH240109   3.987   3.659   9.593 -0.3712 -0.2993  0.3581
 5305TIP3    H140110   4.030   3.607   9.525  1.1248  0.7943  0.3994
 5305TIP3    H240111   3.937   3.596   9.645 -2.5380 -1.0541 -2.3933
 5306TIP3   OH240112   0.602   1.128   8.320 -0.0059  0.4152 -0.0296
 5306TIP3    H140113   0.568   1.069   8.387  0.4843 -0.8642 -0.8548
 5306TIP3    H240114   0.524   1.157   8.272 -0.2321  0.2926  0.2590
 5307TIP3   OH240115   1.669   1.861   7.642  0.0567 -0.5891  0.0362
 5307TIP3    H140116   1.583   1.899   7.655 -0.8465 -2.5355  0.1535
 5307TIP3    H240117   1.689   1.816   7.724  0.7914 -0.8732 -0.2855
 5308TIP3   OH240118   5.601   3.715   8.471 -0.2756 -0.8213 -0.0803
 5308TIP3    H140119   5.560   3.765   8.542 -0.8382 -0.8779 -0.3586
 5308TIP3    H240120   5.536   3.650   8.447 -0.4977 -0.1742 -1.3073
 5309TIP3   OH240121   0.816   5.413   8.870 -0.1111  0.2747 -0.1572
 5309TIP3    H140122   0.824   5.494   8.920  1.4013  1.9049 -2.7888
 5309TIP3    H240123   0.902   5.371   8.877 -0.7238 -0.9069  0.7611
 5310TIP3   OH240124   2.657   3.978   8.582 -0.2828  0.1756  0.0108
 5310TIP3    H140125   2.578   4.023   8.612 -0.7683  0.6317 -1.8207
 5310TIP3    H240126   2.719   4.048   8.562 -0.3198 -0.0394 -0.9270
 5311TIP3   OH240127   0.645   3.909   9.477  0.2419 -0.5674 -0.1045
 5311TIP3    H140128   0.735   3.940   9.491  0.5883 -0.4865 -2.2436
 5311TIP3    H240129   0.646   3.819   9.511  0.7170 -0.0994  1.1748
 5312TIP3   OH240130   2.907   0.213   8.531 -0.3668  0.3975 -0.3399
 5312TIP3    H140131   2.919   0.307   8.547 -0.9735  0.9317 -2.6424
 5312TIP3    H240132   2.817   0.206   8.499 -0.3438 -1.0003 -0.1593
 5313TIP3   OH240133   4.075   4.388   7.950  0.3599 -0.2534  0.3733
 5313TIP3    H140134   4.168   4.396   7.931  0.8517 -0.2964  2.4490
 5313TIP3    H240135   4.072   4.334   8.029 -1.5146 -1.3399 -0.3794
 5314TIP3   OH240136   6.214   5.928   7.953  0.0068 -0.1625  0.4450
 5314TIP3    H140137   6.237   5.871   7.879  0.9210 -0.7126  1.1376
 5314TIP3    H240138   6.122   5.907   7.971 -0.0556 -0.4467 -0.1606
 5315TIP3   OH240139   1.266   0.435   8.898  0.2810  0.2748  0.0209
 5315TIP3    H140140   1.211   0.465   8.826 -0.0841  1.2222  0.6746
 5315TIP3    H240141   1.238   0.345   8.914  0.6310 -0.0735 -1.2569
 5316TIP3   OH240142   4.890   2.642   6.940  0.2430  0.5488 -0.1026
 5316TIP3    H140143   4.930   2.729   6.934 -0.5049  0.8061 -1.6341
 5316TIP3    H240144   4.870   2.618   6.850 -1.1938 -0.4508  0.4508
 5317TIP3   OH240145   3.348   6.212   8.573 -0.2212 -0.4114  0.6873
 5317TIP3    H140146   3.299   6.138   8.536 -1.6812 -0.1875  2.0719
 5317TIP3    H240147   3.410   6.236   8.505  0.6567 -3.2327  0.3874
 5318TIP3   OH240148   2.345   6.101   8.338 -1.0322 -0.2909  0.4506
 5318TIP3    H140149   2.323   6.021   8.290 -1.3261 -0.2336  0.4890
 5318TIP3    H240150   2.262   6.130   8.376 -1.2095  0.7760 -0.6881
 5319TIP3   OH240151   0.608   0.893   7.289  0.4942  0.2074 -0.4666
 5319TIP3    H140152   0.538   0.873   7.226  0.0894 -1.0139  0.3331
 5319TIP3    H240153   0.599   0.826   7.357  0.9055  1.5090  0.9178
 5320TIP3   OH240154   1.255   7.200   9.149 -0.1136  0.1262 -0.0355
 5320TIP3    H140155   1.273   7.109   9.173  0.1896  0.0720 -0.4594
 5320TIP3    H240156   1.338   7.232   9.112 -0.8255 -0.0793 -1.9059
 5321TIP3   OH240157   6.646   0.143   8.430 -0.2818  0.1308  0.1891
 5321TIP3    H140158   6.687   0.229   8.420  2.1200 -0.8810  0.7314
 5321TIP3    H240159   6.592   0.133   8.351 -2.1678  2.8618  1.0022
 5322TIP3   OH240160   2.382   1.549   9.015  0.3892 -0.3948 -0.4162
 5322TIP3    H140161   2.321   1.550   8.940 -0.3580 -0.7635  0.1721
 5322TIP3    H240162   2.404   1.641   9.028 -0.3460 -0.2091 -0.4085
 5323TIP3   OH240163   7.120   6.826   8.614  0.1936 -1.0367  0.0750
 5323TIP3    H140164   7.176   6.848   8.688  0.4305  1.2084 -0.6979
 5323TIP3    H240165   7.034   6.808   8.653  0.2562  0.3524  0.8859
 5324TIP3   OH240166   1.397   2.555   8.663  0.4205  0.2311 -0.1211
 5324TIP3    H140167   1.311   2.595   8.679  0.5580  0.4699  0.0369
 5324TIP3    H240168   1.422   2.586   8.576  0.0790 -0.3303 -0.4272
 5325TIP3   OH240169   5.886   4.539   7.549 -0.8926  0.6803 -0.2247
 5325TIP3    H140170   5.823   4.468   7.534 -1.6360  0.9141  1.5536
 5325TIP3    H240171   5.967   4.508   7.508 -0.6269 -2.1027  2.0447
 5326TIP3   OH240172   6.687   4.764   8.715  0.4614 -0.2298 -0.1560
 5326TIP3    H140173   6.756   4.758   8.781  1.9792 -2.0063 -1.7647
 5326TIP3    H240174   6.700   4.849   8.674  0.4912  0.2357  0.8071
 5327TIP3   OH240175   2.993   6.620   8.544  0.2194 -0.1408  0.3732
 5327TIP3    H140176   3.047   6.543   8.527  0.1359 -0.3807  1.1457
 5327TIP3    H240177   2.946   6.635   8.462  2.4321  0.8952 -0.8121
 5328TIP3   OH240178   3.081   2.211   7.992  0.1554  0.2267  0.4090
 5328TIP3    H140179   3.099   2.175   7.905  0.8493 -0.8376  0.9749
 5328TIP3    H240180   3.148   2.278   8.005 -1.6014  2.4110 -0.9668
 5329TIP3   OH240181   3.355   4.296   8.394 -0.0623  0.2347 -0.8287
 5329TIP3    H140182   3.319   4.258   8.474  2.6174 -0.6464  0.0634
 5329TIP3    H240183   3.446   4.315   8.416  0.7348  0.0423 -3.6461
 5330TIP3   OH240184   6.864   6.432   8.597  0.0345  0.0661  0.2761
 5330TIP3    H140185   6.770   6.417   8.583 -0.2185 -0.2094  2.0440
 5330TIP3    H240186   6.905   6.403   8.516 -1.3733 -0.1327 -0.4057
 5331TIP3   OH240187   7.089   5.360   9.390 -0.1165  0.5017 -0.8245
 5331TIP3    H140188   7.180   5.332   9.388  0.0619  1.0926 -1.6231
 5331TIP3    H240189   7.086   5.437   9.333 -1.2660  0.0259 -1.4535
 5332TIP3   OH240190   1.359   0.204   9.138 -0.6725 -0.0443  0.4660
 5332TIP3    H140191   1.413   0.130   9.167 -0.8911 -0.9429 -1.2948
 5332TIP3    H240192   1.419   0.259   9.087 -0.9796 -0.0430  0.1060
 5333TIP3   OH240193   2.580   2.552   7.076 -0.5370  0.0009 -0.1533
 5333TIP3    H140194   2.660   2.551   7.023  0.0290 -0.8280  0.6884
 5333TIP3    H240195   2.542   2.638   7.060 -0.2091 -0.0979 -1.6370
 5334TIP3   OH240196   6.924   6.760   6.961 -0.2152  0.6494 -0.0054
 5334TIP3    H140197   6.860   6.822   6.925 -0.1265  0.5249 -0.3837
 5334TIP3    H240198   6.929   6.690   6.896 -0.3862  0.1937  0.4661
 5335TIP3   OH240199   4.094   0.463   9.610 -0.2706 -0.2826 -0.1656
 5335TIP3    H140200   4.049   0.420   9.538 -1.9740  0.3226  0.4790
 5335TIP3    H240201   4.054   0.425   9.689 -1.1635  1.7430  0.4133
 5336TIP3   OH240202   1.575   2.570   9.474 -0.2138 -0.8896  0.2496
 5336TIP3    H140203   1.601   2.539   9.387  0.2344 -1.7653  0.6802
 5336TIP3    H240204   1.521   2.647   9.457  0.0524 -0.9181 -0.7949
 5337TIP3   OH240205   3.979   6.028   9.555  0.3471 -0.0251  0.4043
 5337TIP3    H140206   3.940   6.068   9.477  1.5267 -0.4869 -0.4508
 5337TIP3    H240207   3.955   6.087   9.627 -2.3240 -0.5675  0.0279
 5338TIP3   OH240208   3.615   3.520   9.260 -0.2048  0.4135  0.5540
 5338TIP3    H140209   3.705   3.551   9.256 -0.1308  0.5034  2.2617
 5338TIP3    H240210   3.569   3.572   9.193  0.9676  0.4360 -0.2633
 5339TIP3   OH240211   0.921   5.437   6.609 -0.0723  0.0424  0.3079
 5339TIP3    H140212   0.893   5.346   6.597 -0.7255  0.4910 -2.3732
 5339TIP3    H240213   1.014   5.431   6.630 -0.5208 -1.2704  2.1298
 5340TIP3   OH240214   5.102   4.371   7.131 -0.4342  0.0765 -0.1457
 5340TIP3    H140215   5.007   4.367   7.121 -0.4722 -2.1059  0.5528
 5340TIP3    H240216   5.133   4.285   7.101  0.9425 -0.5366  2.6853
 5341TIP3   OH240217   4.445   3.858   8.227 -0.2756  0.6217 -0.0529
 5341TIP3    H140218   4.508   3.787   8.218 -0.2763  0.6180 -0.0286
 5341TIP3    H240219   4.407   3.845   8.314 -0.6778  0.3212 -0.2703
 5342TIP3   OH240220   1.503   1.921   6.453  0.3649  0.3968  0.2998
 5342TIP3    H140221   1.442   1.899   6.524  0.9283  2.8103  1.6376
 5342TIP3    H240222   1.447   1.936   6.377 -0.1478 -3.9399 -0.4151
 5343TIP3   OH240223   4.546   6.799   8.492  0.1887  0.1102 -0.1645
 5343TIP3    H140224   4.638   6.827   8.485  0.6772 -0.7452  1.9808
 5343TIP3    H240225   4.546   6.710   8.458  0.2189  0.0240  0.0571
 5344TIP3   OH240226   3.020   5.631   6.756 -0.3202 -0.3923 -0.7785
 5344TIP3    H140227   2.949   5.582   6.714 -1.4300 -0.2991  0.8625
 5344TIP3    H240228   2.987   5.721   6.761 -1.7453 -0.9163  3.0546
 5345TIP3   OH240229   5.256   5.874   7.985 -0.2620 -0.1151  0.2271
 5345TIP3    H140230   5.348   5.901   7.990 -0.1454  0.0694 -1.8946
 5345TIP3    H240231   5.233   5.849   8.075  1.0987  2.1888  1.3190
 5346TIP3   OH240232   3.188   7.200   8.061  0.4691  0.1079 -0.0719
 5346TIP3    H140233   3.162   7.115   8.024 -1.7121 -0.4866  2.4347
 5346TIP3    H240234   3.235   7.177   8.141  1.1999  1.3090 -0.1391
 5347TIP3   OH240235   1.076   1.989   8.981 -0.2374 -0.0440 -0.0118
 5347TIP3    H140236   0.986   2.015   9.004 -1.0942 -0.8132 -2.1984
 5347TIP3    H240237   1.064   1.921   8.914  1.9918 -1.2801  0.7511
 5348TIP3   OH240238   6.820   0.529   7.618  0.0452 -0.5217  0.3337
 5348TIP3    H140239   6.729   0.530   7.649  0.2434  0.8553  0.9700
 5348TIP3    H240240   6.859   0.608   7.657  1.3986 -0.8657 -0.2729
 5349TIP3   OH240241   7.561   6.151   7.220 -0.3679 -0.1537 -0.3496
 5349TIP3    H140242   7.465   6.156   7.219 -0.3692  1.6639  1.4949
 5349TIP3    H240243   7.589   6.234   7.182  0.4252 -0.0806  0.3675
 5350TIP3   OH240244   7.476   7.256   7.502 -0.2772  0.0079  0.6477
 5350TIP3    H140245   7.571   7.265   7.509 -0.3402  1.1922  0.2365
 5350TIP3    H240246   7.450   7.213   7.583  0.5696 -0.0309  0.9106
 5351TIP3   OH240247   2.632   6.217   8.350  0.0127 -0.3643 -0.0654
 5351TIP3    H140248   2.625   6.189   8.259 -0.2848  2.4907 -1.0036
 5351TIP3    H240249   2.706   6.277   8.352  1.7392 -2.3431  2.2014
 5352TIP3   OH240250   7.050   3.401   9.365 -0.2894  0.0664  0.3277
 5352TIP3    H140251   7.065   3.363   9.279 -0.4019 -0.4113  0.5162
 5352TIP3    H240252   7.038   3.326   9.423 -1.7991  0.3850  0.4695
 5353TIP3   OH240253   7.608   6.527   6.725 -0.0284 -0.0150 -0.2184
 5353TIP3    H140254   7.538   6.574   6.680 -1.4100 -0.8747  0.9359
 5353TIP3    H240255   7.606   6.439   6.686  1.5758  0.4142 -1.3604
 5354TIP3   OH240256   5.900   6.770   8.823 -0.1191  0.0598  0.6999
 5354TIP3    H140257   5.976   6.828   8.822  0.9196 -1.2718 -0.5081
 5354TIP3    H240258   5.837   6.813   8.765 -0.6715  1.5574  2.2904
 5355TIP3   OH240259   5.856   5.309   7.265  0.3027 -0.3366 -0.3791
 5355TIP3    H140260   5.816   5.315   7.178 -1.2134  0.9240  0.3574
 5355TIP3    H240261   5.789   5.343   7.325  1.5998 -0.4406  1.2056
 5356TIP3   OH240262   4.645   6.678   9.466  0.2142 -0.0226  0.2377
 5356TIP3    H140263   4.719   6.717   9.511  1.0552 -1.3066 -0.0004
 5356TIP3    H240264   4.683   6.634   9.390 -0.9860  0.6801 -0.8116
 5357TIP3   OH240265   4.103   7.509   7.130  0.4704  0.4555 -0.4932
 5357TIP3    H140266   4.011   7.484   7.134  0.1676  1.6476  1.1722
 5357TIP3    H240267   4.150   7.430   7.157 -0.0857  0.0013 -0.8216
 5358TIP3   OH240268   1.127   0.316   9.252  0.5740 -0.5673 -0.0049
 5358TIP3    H140269   1.216   0.287   9.233  0.9156 -0.2352  1.0385
 5358TIP3    H240270   1.123   0.406   9.220  0.3205 -0.8770 -0.8741
 5359TIP3   OH240271   4.485   1.688   7.766 -0.3738  0.0823  0.1200
 5359TIP3    H140272   4.419   1.624   7.738 -0.6317  0.7198 -0.7774
 5359TIP3    H240273   4.567   1.656   7.728 -0.4755  0.1989 -0.2017
 5360TIP3   OH240274   3.071   5.457   7.924  0.7669 -0.1652  0.5005
 5360TIP3    H140275   3.065   5.402   8.002  0.6445  0.1752  0.7327
 5360TIP3    H240276   3.155   5.502   7.932  1.0166 -0.5612  0.1468
 5361TIP3   OH240277   1.927   2.210   8.583  0.2350  0.0006  0.2274
 5361TIP3    H140278   2.004   2.181   8.534  1.1868  2.2435  0.2797
 5361TIP3    H240279   1.911   2.140   8.646  0.4466 -1.8459 -1.6609
 5362TIP3   OH240280   5.528   7.655   7.437  0.0905 -0.2405  0.0754
 5362TIP3    H140281   5.619   7.669   7.411  0.0251 -1.2328 -0.7329
 5362TIP3    H240282   5.479   7.723   7.390  0.2680 -0.5153 -0.5156
 5363TIP3   OH240283   2.927   2.216   8.201  0.2925  0.6074 -0.4732
 5363TIP3    H140284   2.955   2.225   8.110  0.3346  1.3505 -0.3911
 5363TIP3    H240285   2.873   2.137   8.202 -0.2696  0.9781 -1.2831
 5364TIP3   OH240286   2.228   4.673   6.608  0.3498  0.3107  0.1968
 5364TIP3    H140287   2.169   4.730   6.559  1.6306  1.6060  0.1021
 5364TIP3    H240288   2.276   4.732   6.666  2.2064 -0.5600 -0.3790
 5365TIP3   OH240289   7.485   3.525   9.298  0.2491  0.1616  0.1941
 5365TIP3    H140290   7.562   3.474   9.271 -0.3187 -1.3898  1.3265
 5365TIP3    H240291   7.488   3.523   9.394 -0.7292  0.8218  0.2412
 5366TIP3   OH240292   4.088   1.363   7.326  0.4512  0.3171  0.1716
 5366TIP3    H140293   4.178   1.391   7.309  0.5876 -0.6577 -0.8380
 5366TIP3    H240294   4.077   1.285   7.272 -1.0488  0.5058  0.1661
 5367TIP3   OH240295   2.592   3.617   9.411 -0.1939  0.2014 -0.3689
 5367TIP3    H140296   2.589   3.676   9.336  1.9735  0.8246 -0.0337
 5367TIP3    H240297   2.508   3.571   9.409 -1.6689  2.7712 -1.0579
 5368TIP3   OH240298   1.555   0.291   6.802  0.2956  0.5741  0.1987
 5368TIP3    H140299   1.548   0.363   6.865 -3.3753 -0.1555  0.8286
 5368TIP3    H240300   1.574   0.214   6.855  0.3997  0.4668  0.0064
 5369TIP3   OH240301   2.684   2.827   8.315 -0.2729  0.0471 -0.3795
 5369TIP3    H140302   2.765   2.868   8.346 -1.1100  1.9526 -0.5791
 5369TIP3    H240303   2.617   2.856   8.377 -1.2639  0.6611 -1.7023
 5370TIP3   OH240304   7.479   6.164   8.695  0.7191  0.4772 -0.2771
 5370TIP3    H140305   7.541   6.201   8.633  0.1199 -0.0989 -1.2428
 5370TIP3    H240306   7.488   6.219   8.773  1.1417  1.5149 -1.0278
 5371TIP3   OH240307   0.513   5.796   7.650  0.7433  0.9880  0.2844
 5371TIP3    H140308   0.435   5.805   7.595 -0.7582 -0.4682  2.0504
 5371TIP3    H240309   0.513   5.876   7.703 -0.8451  0.0942  1.7471
 5372TIP3   OH240310   4.287   2.525   8.931  0.2074  0.1618  0.2730
 5372TIP3    H140311   4.327   2.607   8.959 -0.7412  0.1860  1.6345
 5372TIP3    H240312   4.312   2.462   8.998  1.6667 -0.9273 -1.2144
 5373TIP3   OH240313   3.133   0.858   7.572  0.2979 -0.3125 -0.3309
 5373TIP3    H140314   3.050   0.835   7.532  0.3408 -0.1790 -0.4954
 5373TIP3    H240315   3.195   0.862   7.499  0.6407 -1.2727 -0.1121
 5374TIP3   OH240316   2.029   7.365   8.720 -0.5603  0.3625 -0.6040
 5374TIP3    H140317   2.010   7.411   8.802  0.9298  0.7532 -0.4561
 5374TIP3    H240318   1.954   7.386   8.663 -0.9180  1.2494  0.1680
 5375TIP3   OH240319   6.893   4.749   7.522  0.2794 -0.3024  0.0041
 5375TIP3    H140320   6.982   4.782   7.539  0.3244 -1.2115  1.8308
 5375TIP3    H240321   6.874   4.694   7.598 -2.0745  0.3071 -0.0757
 5376TIP3   OH240322   1.419   1.798   8.025  0.1244 -0.1343 -0.0878
 5376TIP3    H140323   1.382   1.728   7.970  0.6220 -1.3720  1.0811
 5376TIP3    H240324   1.495   1.829   7.977 -1.2986  1.1382 -1.6348
 5377TIP3   OH240325   3.580   1.292   8.514  0.6283  0.1310 -0.0289
 5377TIP3    H140326   3.561   1.285   8.607 -0.1831  0.6752 -0.1422
 5377TIP3    H240327   3.668   1.327   8.510  0.8859 -0.4335  0.5282
 5378TIP3   OH240328   0.131   2.538   7.146  0.5755 -0.6170 -0.0165
 5378TIP3    H140329   0.180   2.464   7.183  0.8967  0.6844  2.3288
 5378TIP3    H240330   0.197   2.606   7.132  0.1103 -0.3683 -1.1154
 5379TIP3   OH240331   5.174   4.622   7.744 -0.3810 -0.7653  0.0703
 5379TIP3    H140332   5.162   4.711   7.711 -0.6804 -0.0147  2.0820
 5379TIP3    H240333   5.107   4.612   7.811 -1.2489 -3.0225 -1.0158
 5380TIP3   OH240334   7.071   6.842   7.393 -0.0841 -0.7499 -0.2524
 5380TIP3    H140335   7.142   6.903   7.374 -0.4577  0.2560  1.3638
 5380TIP3    H240336   7.006   6.858   7.324  1.1409 -1.5663 -1.6435
 5381TIP3   OH240337   0.752   3.540   7.944 -0.1779  0.2335 -0.4598
 5381TIP3    H140338   0.724   3.631   7.959 -1.5483 -0.2737  0.2732
 5381TIP3    H240339   0.808   3.520   8.019  2.0487  1.1778 -1.8064
 5382TIP3   OH240340   0.032   3.721   7.960  0.0159 -0.2639  0.1401
 5382TIP3    H140341  -0.032   3.755   7.897 -1.1221 -0.4351  1.1721
 5382TIP3    H240342  -0.021   3.678   8.027  1.2419 -0.7214  0.8424
 5383TIP3   OH240343   6.629   4.659   8.354  0.1660 -0.0113  0.0390
 5383TIP3    H140344   6.589   4.723   8.295 -1.7216 -0.6866  0.4857
 5383TIP3    H240345   6.554   4.610   8.388  1.1862  0.1566  2.7517
 5384TIP3   OH240346   0.202   0.920   7.878  0.2453 -0.4515 -0.4502
 5384TIP3    H140347   0.158   0.991   7.925  1.3312  2.0288 -2.9369
 5384TIP3    H240348   0.130   0.869   7.840 -0.7042  2.3387 -2.7545
 5385TIP3   OH240349   4.551   6.856   8.807 -0.0384 -0.1755 -0.1369
 5385TIP3    H140350   4.532   6.941   8.767  0.4938  0.0759  0.1369
 5385TIP3    H240351   4.611   6.876   8.879 -1.2937 -0.5765  1.0530
 5386TIP3   OH240352   6.844   5.393   7.849  0.2649 -0.4878  0.2556
 5386TIP3    H140353   6.863   5.299   7.850  1.5240 -0.2680  1.5632
 5386TIP3    H240354   6.930   5.435   7.841 -0.2242  0.5603  0.2627
 5387TIP3   OH240355   7.177   5.220   8.039 -0.5283 -0.4985  0.6737
 5387TIP3    H140356   7.231   5.145   8.013 -0.4152  0.1925 -1.1978
 5387TIP3    H240357   7.170   5.273   7.960 -1.8556  0.7216  1.5717
 5388TIP3   OH240358   5.085   2.234   8.575  0.5229 -0.1897 -0.6740
 5388TIP3    H140359   5.066   2.160   8.517 -1.4414 -1.7573  1.7376
 5388TIP3    H240360   5.125   2.194   8.652  0.4100  1.4151  0.2610
 5389TIP3   OH240361   0.162   1.746   9.220  0.2269  0.1827  0.2334
 5389TIP3    H140362   0.239   1.786   9.180  0.2666  0.4764  0.5983
 5389TIP3    H240363   0.193   1.661   9.251  0.7074  0.7704  1.4054
 5390TIP3   OH240364   0.370   7.556   8.975 -0.2931 -0.2562  0.0379
 5390TIP3    H140365   0.395   7.609   9.051 -0.1432 -0.8091  0.3796
 5390TIP3    H240366   0.427   7.587   8.905 -1.3453  1.1876 -0.2165
 5391TIP3   OH240367   0.597   1.386   3.042  0.1713 -0.5356 -0.2541
 5391TIP3    H140368   0.518   1.333   3.030  1.0689 -2.4157  1.4564
 5391TIP3    H240369   0.661   1.347   2.982  0.1447  0.2700 -0.8239
 5392TIP3   OH240370   5.015   7.463   0.902 -0.1968 -0.5887  0.1657
 5392TIP3    H140371   5.103   7.425   0.901 -0.4057 -1.1016  0.5519
 5392TIP3    H240372   4.977   7.431   0.984 -1.1668 -1.3687 -0.5669
 5393TIP3   OH240373   7.402   5.933   1.140 -0.1416  0.3268 -0.0185
 5393TIP3    H140374   7.473   5.888   1.094 -0.8868  1.4972 -2.4570
 5393TIP3    H240375   7.425   5.925   1.233  0.5262 -3.6865 -0.3585
 5394TIP3   OH240376   6.037   2.758   1.901 -0.3084 -1.4437 -0.2819
 5394TIP3    H140377   6.111   2.763   1.961 -0.2827 -0.2543 -0.3872
 5394TIP3    H240378   5.980   2.691   1.938 -0.1070 -1.0039  0.8645
 5395TIP3   OH240379   4.251   6.369   2.610 -0.0037 -0.2251  0.5350
 5395TIP3    H140380   4.189   6.399   2.677  0.1804 -1.4811  1.3118
 5395TIP3    H240381   4.337   6.381   2.651  0.2318  0.5786 -0.1546
 5396TIP3   OH240382   2.539   3.262   1.794  0.4403 -0.1499  0.1570
 5396TIP3    H140383   2.465   3.210   1.763  0.3270  0.5267 -0.7330
 5396TIP3    H240384   2.591   3.280   1.716  0.8401  0.5037  0.5615
 5397TIP3   OH240385   1.810   2.360   1.893 -0.0400  0.1797 -0.4199
 5397TIP3    H140386   1.852   2.438   1.858  0.6400 -0.3117 -0.7406
 5397TIP3    H240387   1.787   2.308   1.816  2.0430 -1.2084 -0.2045
 5398TIP3   OH240388   7.501   5.944   2.001  0.0018 -0.0490  0.2668
 5398TIP3    H140389   7.563   5.954   1.929 -1.2521 -1.6402 -1.1289
 5398TIP3    H240390   7.434   6.010   1.984  1.0179  1.3390  1.4964
 5399TIP3   OH240391   2.967   1.126   2.491 -0.3029 -0.0850 -0.4517
 5399TIP3    H140392   2.888   1.099   2.443  0.1777 -0.0777 -1.2612
 5399TIP3    H240393   3.030   1.057   2.476  0.1874  0.4019 -0.6656
 5400TIP3   OH240394   4.353   4.133   0.835 -0.0850  0.1896  0.3152
 5400TIP3    H140395   4.320   4.109   0.749  0.8884 -2.1535  0.5076
 5400TIP3    H240396   4.304   4.077   0.896  1.4565 -0.5817  0.9264
 5401TIP3   OH240397   2.743   2.932   2.626 -0.8136  0.0599 -0.4508
 5401TIP3    H140398   2.801   2.977   2.565 -0.5923  1.1041  0.5037
 5401TIP3    H240399   2.661   2.920   2.577 -0.4396  0.3360 -1.1472
 5402TIP3   OH240400   3.268   4.598   2.576  0.1483  0.5264  0.3402
 5402TIP3    H140401   3.307   4.616   2.661  1.1258  1.2873 -0.2415
 5402TIP3    H240402   3.223   4.679   2.553 -2.6444 -0.5825  1.3744
 5403TIP3   OH240403   4.991   1.326   0.640 -0.3440  0.6258  0.1085
 5403TIP3    H140404   4.895   1.326   0.646 -0.3925 -1.1948 -0.2144
 5403TIP3    H240405   5.012   1.249   0.587  1.4131 -0.3808  2.1382
 5404TIP3   OH240406   2.033   3.703   2.145  0.2425  0.1016  0.3249
 5404TIP3    H140407   2.066   3.621   2.108  0.0016  0.0137  0.3055
 5404TIP3    H240408   1.948   3.680   2.182 -0.9160  0.8580 -1.7546
 5405TIP3   OH240409   4.336   2.814   2.983  0.0034  0.0398 -0.4345
 5405TIP3    H140410   4.398   2.744   2.962  0.4760  0.7374 -1.4318
 5405TIP3    H240411   4.351   2.881   2.916  0.5112  1.7162  1.2662
 5406TIP3   OH240412   7.007   7.081   2.258  0.1829 -0.1187  0.1766
 5406TIP3    H140413   7.043   7.106   2.343  0.9191  0.2765 -0.2370
 5406TIP3    H240414   6.990   7.164   2.213  0.5491 -0.3222 -0.3559
 5407TIP3   OH240415   3.221   6.076   2.763 -0.9867 -0.0792 -0.3705
 5407TIP3    H140416   3.303   6.093   2.716 -0.6955  1.3297  0.5977
 5407TIP3    H240417   3.207   5.982   2.753  1.3062 -0.5561  0.2906
 5408TIP3   OH240418   0.639   5.474   1.190 -0.1797 -0.6596  1.1368
 5408TIP3    H140419   0.682   5.497   1.273  0.1106  1.7797  0.4068
 5408TIP3    H240420   0.636   5.557   1.142 -0.6265 -1.9516 -1.1817
 5409TIP3   OH240421   2.040   4.884   2.160  0.2769 -0.6935 -0.1980
 5409TIP3    H140422   2.116   4.861   2.213  0.4315  1.5849  0.6438
 5409TIP3    H240423   1.989   4.803   2.156  2.3573 -2.0883 -0.2011
 5410TIP3   OH240424   2.590   1.020   0.898 -0.0601  0.1499  0.0494
 5410TIP3    H140425   2.503   1.052   0.922  0.6066  0.2350  2.5836
 5410TIP3    H240426   2.649   1.090   0.924  0.7995  0.3367 -2.1629
 5411TIP3   OH240427   1.674   2.244   1.216 -0.1710 -0.3386 -0.9548
 5411TIP3    H140428   1.614   2.170   1.227 -1.7318  0.9198 -0.6626
 5411TIP3    H240429   1.714   2.256   1.302 -1.6811  0.5876 -0.3459
 5412TIP3   OH240430   6.642   4.337   1.386 -0.3144  0.3803 -0.8604
 5412TIP3    H140431   6.737   4.339   1.376  0.1470 -2.1137  1.9529
 5412TIP3    H240432   6.626   4.355   1.478 -2.6959  1.5759 -1.4113
 5413TIP3   OH240433   0.452   0.785   2.516  0.4512  0.3923 -0.2275
 5413TIP3    H140434   0.498   0.733   2.451 -1.4619 -2.0770  0.2355
 5413TIP3    H240435   0.360   0.780   2.490 -0.2562  0.1257  2.0587
 5414TIP3   OH240436   4.011   6.670   1.859 -0.1277 -0.0978  0.8081
 5414TIP3    H140437   3.967   6.665   1.944  0.3386  1.1210  1.1388
 5414TIP3    H240438   4.101   6.645   1.878 -0.2672 -0.8734  0.4631
 5415TIP3   OH240439   0.162   7.291   1.656 -0.0798  0.5454 -0.2205
 5415TIP3    H140440   0.138   7.312   1.746 -0.6880 -0.1160 -0.2163
 5415TIP3    H240441   0.255   7.269   1.660  0.9534  4.2323 -0.4150
 5416TIP3   OH240442   0.548   7.603   1.318  0.3676 -0.1317 -0.0166
 5416TIP3    H140443   0.504   7.570   1.239  1.1423 -0.0262 -0.4974
 5416TIP3    H240444   0.641   7.586   1.303  0.5564  0.2090  0.7243
 5417TIP3   OH240445   2.601   6.538   3.766  0.3880 -0.3062  0.0452
 5417TIP3    H140446   2.589   6.444   3.752  0.0259 -0.1485 -0.8412
 5417TIP3    H240447   2.514   6.569   3.793  0.5310 -0.2479  0.4270
 5418TIP3   OH240448   0.931   1.302   2.306  0.2862 -0.1767  0.2231
 5418TIP3    H140449   0.939   1.227   2.247 -2.1521 -0.1981 -0.2199
 5418TIP3    H240450   0.997   1.365   2.275 -1.3730  0.1500 -3.1649
 5419TIP3   OH240451   1.629   0.626   0.840 -0.0348  0.0386 -0.5063
 5419TIP3    H140452   1.608   0.644   0.931 -0.3068  1.6555 -0.8646
 5419TIP3    H240453   1.725   0.629   0.836 -0.0051 -0.3939 -0.2174
 5420TIP3   OH240454   3.495   3.699   0.731 -0.6195 -0.4507 -0.3324
 5420TIP3    H140455   3.547   3.623   0.704  2.2442  0.6130  1.6457
 5420TIP3    H240456   3.405   3.677   0.706  0.3106 -3.7345 -1.3171
 5421TIP3   OH240457   3.144   3.319   1.997  0.5762 -0.1907  0.4505
 5421TIP3    H140458   3.107   3.282   1.917  0.4932 -0.4064  0.5848
 5421TIP3    H240459   3.178   3.404   1.972  0.7948 -0.3754  0.1262
 5422TIP3   OH240460   4.203   5.276   3.057 -0.1277 -0.1655  0.0559
 5422TIP3    H140461   4.224   5.224   3.134 -0.8788  1.1545  1.1961
 5422TIP3    H240462   4.107   5.280   3.056 -0.1302 -0.3167 -1.0543
 5423TIP3   OH240463   1.038   7.547   3.753  0.1917  0.0971  0.1267
 5423TIP3    H140464   1.127   7.573   3.729  0.4035 -0.8410 -0.1836
 5423TIP3    H240465   0.985   7.624   3.736  0.8343  0.4367 -0.4136
 5424TIP3   OH240466   4.267   4.563   0.925 -0.4331  0.0442 -0.1706
 5424TIP3    H140467   4.310   4.492   0.879 -1.0618  0.6948 -1.8305
 5424TIP3    H240468   4.336   4.603   0.978  0.5528 -0.1545 -1.2673
 5425TIP3   OH240469   3.515   0.315   2.664  1.0568  0.4397 -0.2056
 5425TIP3    H140470   3.449   0.284   2.601  0.4654  0.2083  0.5113
 5425TIP3    H240471   3.509   0.411   2.659  0.7700  0.4209 -0.2502
 5426TIP3   OH240472   3.905   3.153   1.701 -0.2222 -0.1314 -0.5671
 5426TIP3    H140473   4.000   3.154   1.693 -0.2752  0.2457 -1.2565
 5426TIP3    H240474   3.881   3.060   1.693  0.1010 -0.2463 -0.2018
 5427TIP3   OH240475   3.911   2.129   0.476  0.2812  0.5919  0.2130
 5427TIP3    H140476   4.005   2.117   0.488  0.1573  0.6816  1.3688
 5427TIP3    H240477   3.899   2.223   0.468  0.3711  0.5281 -0.7788
 5428TIP3   OH240478   4.008   4.112   2.906 -0.2496 -0.1150 -0.2285
 5428TIP3    H140479   3.933   4.064   2.941 -0.4729 -0.4257 -1.0992
 5428TIP3    H240480   4.073   4.109   2.976 -0.9815  0.0200  0.4781
 5429TIP3   OH240481   2.332   3.686   2.829 -0.5369 -0.0667 -0.4543
 5429TIP3    H140482   2.378   3.622   2.883 -0.3246  1.1008  0.8192
 5429TIP3    H240483   2.309   3.639   2.749  1.9794 -1.0120 -0.7247
 5430TIP3   OH240484   6.445   1.456   1.066  0.4537 -0.1510 -0.0137
 5430TIP3    H140485   6.502   1.425   1.137  0.1078 -0.2554  0.2225
 5430TIP3    H240486   6.505   1.493   1.002  0.6920  1.2087  0.9575
 5431TIP3   OH240487   4.983   5.420   3.178 -0.3704  0.1399 -0.6830
 5431TIP3    H140488   4.980   5.328   3.205  0.7248  0.3642  0.2757
 5431TIP3    H240489   4.993   5.416   3.083 -1.3848 -0.7104 -0.7735
 5432TIP3   OH240490   0.366   6.325   2.598  0.0064 -0.0253  0.0313
 5432TIP3    H140491   0.414   6.329   2.681  0.8195 -1.5710 -0.3297
 5432TIP3    H240492   0.390   6.240   2.560 -0.5788  0.5167 -1.6507
 5433TIP3   OH240493   4.263   5.521   2.064  0.2533  0.4997 -0.6598
 5433TIP3    H140494   4.262   5.439   2.114 -0.0089 -0.6000 -2.3819
 5433TIP3    H240495   4.183   5.567   2.092  0.4693  0.2646  0.4145
 5434TIP3   OH240496   6.178   7.564   0.945  0.3255  0.4382 -0.3150
 5434TIP3    H140497   6.127   7.595   1.020  0.9931  0.5594  0.0935
 5434TIP3    H240498   6.130   7.487   0.914 -1.6425  2.0620 -1.6313
 5435TIP3   OH240499   4.486   0.941   1.275  0.0119 -0.2671  0.1010
 5435TIP3    H140500   4.465   0.849   1.263 -0.9829  0.1860 -2.1334
 5435TIP3    H240501   4.404   0.987   1.254  0.8663  1.1723 -0.1783
 5436TIP3   OH240502   2.405   4.760   2.056 -0.2492  0.1231  0.2606
 5436TIP3    H140503   2.390   4.834   2.115 -2.3850  0.8821 -1.1302
 5436TIP3    H240504   2.330   4.703   2.070  0.7968 -1.2591  0.4780
 5437TIP3   OH240505   1.333   6.716   3.030 -0.1749 -0.0425 -0.1942
 5437TIP3    H140506   1.322   6.624   3.008 -0.6129  0.2249 -1.1296
 5437TIP3    H240507   1.426   6.733   3.019 -0.3358  0.0213 -1.6746
 5438TIP3   OH240508   3.761   7.356   1.933 -0.5416 -0.0752  0.2073
 5438TIP3    H140509   3.669   7.350   1.905 -0.2518 -1.6559 -0.5623
 5438TIP3    H240510   3.811   7.327   1.856  0.5838  0.3349  0.7606
 5439TIP3   OH240511   2.295   5.564   2.518  0.3023  0.1194  0.0410
 5439TIP3    H140512   2.298   5.526   2.606 -0.2301  0.4314  0.2013
 5439TIP3    H240513   2.378   5.540   2.478  1.3501  1.5200  1.2843
 5440TIP3   OH240514   6.193   7.234   2.141  0.4861 -0.3633  0.2006
 5440TIP3    H140515   6.231   7.193   2.218 -0.7016 -0.8040  0.5665
 5440TIP3    H240516   6.193   7.165   2.074  1.0416 -0.1301 -0.0505
 5441TIP3   OH240517   0.998   1.286   0.615 -0.0095  0.2145  0.2758
 5441TIP3    H140518   0.948   1.218   0.570  0.7952 -0.4132  0.3093
 5441TIP3    H240519   0.931   1.340   0.659 -0.8290  0.8741 -1.6525
 5442TIP3   OH240520   7.574   3.948   2.881 -0.1415 -0.7624  0.0123
 5442TIP3    H140521   7.540   3.980   2.797 -0.5382 -1.0662  0.0553
 5442TIP3    H240522   7.497   3.910   2.925 -0.0548 -0.1096  0.7513
 5443TIP3   OH240523   7.123   4.452   0.992  0.2014 -0.3726 -0.3742
 5443TIP3    H140524   7.138   4.546   1.008  4.6036 -1.0363  0.6812
 5443TIP3    H240525   7.211   4.415   0.987 -1.3775 -4.4742 -1.0015
 5444TIP3   OH240526   3.756   6.929   2.280 -0.3561 -0.4692  0.3986
 5444TIP3    H140527   3.848   6.914   2.258 -0.0393 -1.0068  1.9594
 5444TIP3    H240528   3.725   6.845   2.313 -1.1750 -0.0729  0.6683
 5445TIP3   OH240529   1.513   7.618   0.490  0.1836 -0.3796 -0.1505
 5445TIP3    H140530   1.423   7.650   0.500 -0.0506 -0.8759 -0.6033
 5445TIP3    H240531   1.503   7.533   0.446  0.4414 -2.9517  4.1155
 5446TIP3   OH240532   0.086   5.624   1.197 -0.0657 -0.3781  0.1927
 5446TIP3    H140533  -0.009   5.615   1.207  0.0149 -0.1370  1.2648
 5446TIP3    H240534   0.122   5.589   1.278  0.7576 -0.2548 -0.1148
 5447TIP3   OH240535   1.420   6.273   1.455  0.0774  0.2142 -0.5927
 5447TIP3    H140536   1.348   6.306   1.401  0.8318  0.2143 -1.6093
 5447TIP3    H240537   1.419   6.330   1.532 -1.8366 -0.6156  0.0592
 5448TIP3   OH240538   0.338   0.040   3.048 -0.4192  0.1896  0.2691
 5448TIP3    H140539   0.432   0.027   3.037 -0.5654 -0.1452 -0.7423
 5448TIP3    H240540   0.328   0.135   3.060 -0.1234  0.5893 -2.0968
 5449TIP3   OH240541   2.658   6.012   1.982  0.3686  0.3488  0.3763
 5449TIP3    H140542   2.698   5.948   1.923  0.1114  0.0603  0.5159
 5449TIP3    H240543   2.724   6.082   1.989  0.7700 -0.0296  0.4451
 5450TIP3   OH240544   0.226   3.535   1.650  0.0896 -0.0199 -0.3465
 5450TIP3    H140545   0.317   3.508   1.662  0.1671  0.2282 -0.3906
 5450TIP3    H240546   0.186   3.524   1.736 -0.2356 -1.6400 -0.6658
 5451TIP3   OH240547   5.435   3.049   2.625  0.2249  0.2372 -0.4698
 5451TIP3    H140548   5.371   2.988   2.661  0.3789  0.3180 -0.0542
 5451TIP3    H240549   5.386   3.102   2.562 -0.9310  2.4119  2.0575
 5452TIP3   OH240550   6.777   5.584   2.460  0.2620  0.8293 -0.3514
 5452TIP3    H140551   6.773   5.679   2.455 -2.1362  0.8012 -0.2847
 5452TIP3    H240552   6.692   5.558   2.496  1.3175 -1.2858  0.8479
 5453TIP3   OH240553   0.771   6.473   1.234 -0.2261  0.9511  0.2916
 5453TIP3    H140554   0.835   6.436   1.173 -0.7984 -0.3996  0.4546
 5453TIP3    H240555   0.805   6.453   1.321 -0.2969  1.2640  0.3928
 5454TIP3   OH240556   0.243   7.390   2.400 -0.1445  0.4586 -0.1553
 5454TIP3    H140557   0.233   7.391   2.495 -1.0670  4.2741 -0.1217
 5454TIP3    H240558   0.161   7.354   2.367 -0.4339  0.5021  0.5101
 5455TIP3   OH240559   5.035   4.352   1.192  0.2535 -0.0491 -0.7102
 5455TIP3    H140560   5.064   4.260   1.191  1.1629  0.2269 -2.1505
 5455TIP3    H240561   4.940   4.347   1.201  0.0883 -1.2183 -2.7064
 5456TIP3   OH240562   4.824   5.062   1.914 -0.1812 -0.2483  0.0406
 5456TIP3    H140563   4.897   5.000   1.914 -0.9642 -1.2291 -1.2777
 5456TIP3    H240564   4.866   5.148   1.912  0.9281 -0.7064  1.6591
 5457TIP3   OH240565   4.567   1.221   3.194  0.4369  0.2204  0.0753
 5457TIP3    H140566   4.521   1.143   3.163 -0.6171  1.3159 -1.2112
 5457TIP3    H240567   4.528   1.239   3.280 -1.5586  1.0637 -0.9374
 5458TIP3   OH240568   3.735   2.685   2.518 -0.3831 -0.4413 -0.2202
 5458TIP3    H140569   3.779   2.618   2.570 -0.5313  1.1751  2.1321
 5458TIP3    H240570   3.652   2.699   2.563 -0.9112  0.4188 -1.4239
 5459TIP3   OH240571   3.278   3.590   0.640 -0.7423  0.0778  0.4803
 5459TIP3    H140572   3.320   3.542   0.568  0.4880 -0.0641  1.2596
 5459TIP3    H240573   3.201   3.632   0.600 -0.3385 -0.3650 -0.8037
 5460TIP3   OH240574   0.731   6.901   3.362  0.2700  0.4625 -0.4999
 5460TIP3    H140575   0.740   6.891   3.267  0.0651  0.0839 -0.4817
 5460TIP3    H240576   0.818   6.879   3.396  0.5450  1.2910 -0.6459
 5461TIP3   OH240577   3.981   6.793   0.705  0.2763 -0.0137  0.1706
 5461TIP3    H140578   4.046   6.791   0.776  2.4411  0.4739 -1.6692
 5461TIP3    H240579   3.967   6.887   0.689 -0.3894 -0.1206  0.1040
 5462TIP3   OH240580   1.014   1.503   2.988 -0.2352 -0.3461  0.6717
 5462TIP3    H140581   1.106   1.489   2.965  0.0432  0.3789  1.2868
 5462TIP3    H240582   0.981   1.564   2.922 -0.7815 -1.9477 -0.5882
 5463TIP3   OH240583   6.213   1.301   2.187 -0.7979 -0.1308  0.6466
 5463TIP3    H140584   6.251   1.328   2.271 -1.1113  0.4052  0.6205
 5463TIP3    H240585   6.287   1.269   2.137 -0.4695  0.3371  0.8220
 5464TIP3   OH240586   2.289   4.973   0.998  0.0452 -0.0702 -0.1066
 5464TIP3    H140587   2.222   4.953   0.933  0.2636  1.7503 -0.9533
 5464TIP3    H240588   2.351   5.029   0.952  0.1825  1.3360  1.6799
 5465TIP3   OH240589   6.465   3.764   2.654 -0.0184 -0.1320 -0.2012
 5465TIP3    H140590   6.379   3.784   2.690  0.3270 -1.2803  1.4469
 5465TIP3    H240591   6.509   3.716   2.725  1.5513 -0.5806 -1.4191
 5466TIP3   OH240592   2.785   5.857   1.793  0.7103 -0.7230  0.4348
 5466TIP3    H140593   2.789   5.780   1.736 -1.3457 -0.2567 -0.4390
 5466TIP3    H240594   2.793   5.931   1.734  1.4296 -0.2305  1.1273
 5467TIP3   OH240595   6.964   4.126   1.267  0.5220  0.5087 -0.9567
 5467TIP3    H140596   6.998   4.038   1.255  0.4643  0.2520  0.5574
 5467TIP3    H240597   6.891   4.132   1.206 -1.4158 -1.5961  0.9629
 5468TIP3   OH240598   6.934   6.753   2.497 -0.0654 -0.3638 -0.5484
 5468TIP3    H140599   6.848   6.712   2.508  1.3517 -3.5037 -0.1966
 5468TIP3    H240600   6.935   6.823   2.562 -1.9668 -0.9437  0.1851
 5469TIP3   OH240601   3.504   6.215   2.334 -0.1777  0.0844 -0.6718
 5469TIP3    H140602   3.468   6.295   2.296 -1.5929 -0.9616 -1.6306
 5469TIP3    H240603   3.562   6.246   2.404 -2.1304  1.8908  0.2581
 5470TIP3   OH240604   3.525   2.407   2.061 -0.5545 -1.0768 -0.5490
 5470TIP3    H140605   3.513   2.502   2.059 -0.3729 -1.0318  0.0903
 5470TIP3    H240606   3.571   2.387   1.980 -1.4421 -0.7490 -1.1532
 5471TIP3   OH240607   6.891   0.416   1.400 -0.1569  0.0136  0.0769
 5471TIP3    H140608   6.845   0.332   1.393  0.8335 -0.5745  0.4290
 5471TIP3    H240609   6.981   0.397   1.374  0.4143  0.6496  1.4893
 5472TIP3   OH240610   3.974   5.108   1.040  0.0654 -0.3303  0.1063
 5472TIP3    H140611   3.892   5.108   1.089 -1.0947 -0.6377 -1.7200
 5472TIP3    H240612   4.029   5.171   1.085 -1.6547  0.8557  0.6618
 5473TIP3   OH240613   3.329   0.969   0.842 -0.5453  0.1468  0.1493
 5473TIP3    H140614   3.334   1.002   0.752 -3.8357 -0.2813 -0.3283
 5473TIP3    H240615   3.403   0.909   0.849 -0.0638  0.3416 -2.2253
 5474TIP3   OH240616   3.545   1.211   2.659  0.0087 -0.5522 -0.3057
 5474TIP3    H140617   3.625   1.179   2.618 -0.3007 -0.4404 -1.0339
 5474TIP3    H240618   3.492   1.242   2.585 -0.5770 -0.3499  0.1901
 5475TIP3   OH240619   6.167   0.234   1.933  0.2934 -0.1251 -0.9522
 5475TIP3    H140620   6.242   0.256   1.988  0.3614  0.2387 -1.1949
 5475TIP3    H240621   6.120   0.167   1.983  0.9198 -0.5427 -0.9203
 5476TIP3   OH240622   0.447   6.081   1.538 -0.0792 -0.0614 -0.5048
 5476TIP3    H140623   0.543   6.082   1.530 -0.0919  1.2134 -0.7692
 5476TIP3    H240624   0.418   6.023   1.468  0.5120 -0.8040 -0.1553
 5477TIP3   OH240625   3.669   0.059   1.273  0.6461 -0.2941  0.2086
 5477TIP3    H140626   3.625  -0.026   1.264  0.6402 -0.2215 -0.5018
 5477TIP3    H240627   3.739   0.042   1.336 -1.8389  0.1898  3.3565
 5478TIP3   OH240628   0.175   7.661   0.686 -0.5341 -0.0027 -0.3632
 5478TIP3    H140629   0.090   7.620   0.670 -0.6327  0.5997 -1.4384
 5478TIP3    H240630   0.166   7.701   0.773 -0.9815 -0.8435 -0.0086
 5479TIP3   OH240631   4.467   2.466   1.705 -0.3010  0.0186 -0.2150
 5479TIP3    H140632   4.401   2.400   1.683 -1.2604  1.0253 -0.4177
 5479TIP3    H240633   4.539   2.448   1.646  0.8789 -2.9007  1.8562
 5480TIP3   OH240634   1.253   4.071   1.076  0.8504 -0.0559 -0.2102
 5480TIP3    H140635   1.323   4.010   1.052  1.7040  0.7183  0.2268
 5480TIP3    H240636   1.178   4.043   1.024  1.1089 -1.6867  0.2290
 5481TIP3   OH240637   0.596   0.226   2.632 -0.1608 -0.2185  0.5268
 5481TIP3    H140638   0.628   0.138   2.614 -3.2418 -1.1363 -1.1105
 5481TIP3    H240639   0.520   0.213   2.689  0.9588  1.6602  2.6012
 5482TIP3   OH240640   4.613   4.750   0.967  0.2061  0.3356 -0.3166
 5482TIP3    H140641   4.651   4.662   0.957  1.6418  0.7924  0.7899
 5482TIP3    H240642   4.688   4.809   0.960 -0.6627  1.4452 -0.4417
 5483TIP3   OH240643   2.669   3.333   1.154 -0.4366 -0.2947  0.1104
 5483TIP3    H140644   2.639   3.368   1.070 -2.3826 -3.2388 -0.5850
 5483TIP3    H240645   2.594   3.345   1.212  0.9114  1.7520  1.5595
 5484TIP3   OH240646   5.322   5.566   0.928  0.4214  0.0417 -0.3981
 5484TIP3    H140647   5.261   5.529   0.864 -0.0303 -1.0087  0.6084
 5484TIP3    H240648   5.270   5.576   1.007  1.5530 -0.8983  0.4969
 5485TIP3   OH240649   1.085   6.403   2.561  0.2475 -0.1098  0.0446
 5485TIP3    H140650   1.035   6.443   2.633 -0.7854 -1.0587 -0.1149
 5485TIP3    H240651   1.155   6.465   2.543  0.6623  0.0459  2.0209
 5486TIP3   OH240652   2.654   6.624   2.345  0.1737 -0.4620 -0.0202
 5486TIP3    H140653   2.606   6.576   2.412 -0.3844 -1.0381 -0.8163
 5486TIP3    H240654   2.744   6.626   2.376  0.1777 -1.8910  0.1011
 5487TIP3   OH240655   0.507   4.242   0.933  0.0633  0.4924  0.1498
 5487TIP3    H140656   0.464   4.240   0.847 -0.5390 -0.5714  0.4502
 5487TIP3    H240657   0.465   4.315   0.979 -0.7923  0.0524  0.1032
 5488TIP3   OH240658   2.234   5.077   2.760  0.0471  0.8600 -0.4556
 5488TIP3    H140659   2.149   5.097   2.798  0.7719  1.9871  0.6736
 5488TIP3    H240660   2.250   5.149   2.698  0.1281  0.6028 -0.7336
 5489TIP3   OH240661   6.153   6.781   2.697 -0.1229  0.4592  0.4001
 5489TIP3    H140662   6.162   6.694   2.657  0.8115  1.0134 -0.6329
 5489TIP3    H240663   6.088   6.768   2.766  0.4757 -1.2153  0.7095
 5490TIP3   OH240664   6.881   0.831   1.713  0.6152 -0.0209  0.1339
 5490TIP3    H140665   6.798   0.832   1.664  0.2977 -0.7291  0.6398
 5490TIP3    H240666   6.922   0.748   1.689  0.6492 -0.1861  0.7454
 5491TIP3   OH240667   0.776   5.014   2.861  0.3224  0.1009  0.1282
 5491TIP3    H140668   0.718   5.090   2.853  1.7285  1.2146  0.2203
 5491TIP3    H240669   0.834   5.020   2.785  0.1197 -1.2093 -0.1638
 5492TIP3   OH240670   0.110   2.885   2.850 -0.4462 -0.1028 -0.4633
 5492TIP3    H140671   0.148   2.972   2.867 -0.8279  0.0757 -0.5083
 5492TIP3    H240672   0.120   2.838   2.933 -1.5401  0.4773  0.0280
 5493TIP3   OH240673   4.443   2.044   1.409 -0.4282 -1.2799 -0.0819
 5493TIP3    H140674   4.415   2.093   1.487 -1.1454 -2.7411  0.6137
 5493TIP3    H240675   4.428   2.105   1.337 -0.4426 -0.1489  0.8334
 5494TIP3   OH240676   6.101   4.621   0.661  0.3500  0.5385  0.2732
 5494TIP3    H140677   6.032   4.606   0.596  1.0194 -0.4873 -0.2438
 5494TIP3    H240678   6.067   4.582   0.741  0.0395  0.6662  0.2055
 5495TIP3   OH240679   5.765   5.113   1.938  0.0671  0.0686 -0.2907
 5495TIP3    H140680   5.790   5.155   2.020  1.1321 -0.4505 -0.3271
 5495TIP3    H240681   5.793   5.174   1.870 -0.8147  0.4983 -0.2803
 5496TIP3   OH240682   3.944   3.060   1.335  0.2126 -0.5057  0.0054
 5496TIP3    H140683   4.022   3.013   1.304  0.9123  1.0545 -0.7005
 5496TIP3    H240684   3.978   3.145   1.363 -0.9791 -0.4971  1.5295
 5497TIP3   OH240685   0.234   5.134   1.147 -0.4258  0.3065  0.4622
 5497TIP3    H140686   0.302   5.067   1.156 -0.7235  0.1720  2.0810
 5497TIP3    H240687   0.249   5.193   1.221 -2.0389  0.2887  0.8364
 5498TIP3   OH240688   2.865   1.381   2.326  1.1382  0.3063 -0.3983
 5498TIP3    H140689   2.854   1.471   2.355  0.8745  0.1016  0.1666
 5498TIP3    H240690   2.881   1.332   2.407 -2.6453 -0.7670 -0.0907
 5499TIP3   OH240691   6.002   0.577   1.573 -0.4939 -0.1128  0.0299
 5499TIP3    H140692   5.995   0.601   1.665  0.3625  2.4020 -0.4757
 5499TIP3    H240693   6.091   0.543   1.564 -0.6333 -0.5126  0.1597
 5500TIP3   OH240694   0.849   5.647   2.792  0.3845  0.0526 -0.1830
 5500TIP3    H140695   0.934   5.688   2.806  0.2758  0.0726  0.4380
 5500TIP3    H240696   0.788   5.719   2.784  0.3228  0.0235  0.0391
 5501TIP3   OH240697   1.922   4.067   1.499  0.4553  0.0816  0.0304
 5501TIP3    H140698   1.848   4.046   1.441  1.6246 -1.4182 -0.9932
 5501TIP3    H240699   1.970   4.135   1.453  0.9928 -0.6078 -0.4393
 5502TIP3   OH240700   0.743   4.506   3.383 -0.0362  0.4831 -0.6482
 5502TIP3    H140701   0.746   4.441   3.313 -1.4218  2.2722 -2.4697
 5502TIP3    H240702   0.697   4.462   3.455  0.5057 -1.0551 -1.1908
 5503TIP3   OH240703   5.894   3.985   1.474  0.2386 -0.4517 -0.1869
 5503TIP3    H140704   5.883   3.985   1.569 -1.1785 -0.5728 -0.3322
 5503TIP3    H240705   5.948   4.062   1.456  1.3153 -0.9381  0.7716
 5504TIP3   OH240706   6.848   2.677   2.687  0.3060  0.4589 -0.4862
 5504TIP3    H140707   6.805   2.600   2.723 -0.5377  0.6370 -1.0756
 5504TIP3    H240708   6.912   2.702   2.753 -1.4037  0.9731  1.0659
 5505TIP3   OH240709   6.501   4.351   1.970  0.2630 -0.7455  0.1874
 5505TIP3    H140710   6.533   4.352   2.060  1.6180  1.6442 -0.2492
 5505TIP3    H240711   6.527   4.265   1.936  2.7412 -0.4176  1.0894
 5506TIP3   OH240712   6.837   1.031   1.147  0.1594  0.4024  0.1086
 5506TIP3    H140713   6.887   0.953   1.173 -0.0646 -0.0391 -0.7486
 5506TIP3    H240714   6.860   1.097   1.213  0.0127 -0.5112  1.1002
 5507TIP3   OH240715   3.547   6.927   2.533  0.0486 -0.0285 -0.3637
 5507TIP3    H140716   3.483   6.948   2.465 -0.2223  1.2606  0.2531
 5507TIP3    H240717   3.616   6.879   2.487 -0.6927 -0.2480 -1.3010
 5508TIP3   OH240718   6.747   1.335   0.688  0.3079  0.2693 -0.1623
 5508TIP3    H140719   6.661   1.323   0.648  0.3373 -0.4552 -0.0140
 5508TIP3    H240720   6.730   1.344   0.781  0.0536  3.8805 -0.4277
 5509TIP3   OH240721   5.018   2.925   1.455  0.6056 -0.1410  0.4764
 5509TIP3    H140722   5.074   2.981   1.509 -0.6128  0.3225  1.2860
 5509TIP3    H240723   5.040   2.836   1.481  1.6510 -0.0202  0.0784
 5510TIP3   OH240724   4.212   5.154   2.736 -0.1375 -0.7592 -0.0022
 5510TIP3    H140725   4.276   5.085   2.720  0.0356 -0.4898 -0.4868
 5510TIP3    H240726   4.261   5.220   2.786  0.5841  0.3797 -2.0711
 5511TIP3   OH240727   0.249   0.390   0.684 -0.3228  0.0186  0.1610
 5511TIP3    H140728   0.158   0.416   0.694 -0.1863  0.3201  0.6290
 5511TIP3    H240729   0.299   0.467   0.709  0.0625  0.8410 -2.7498
 5512TIP3   OH240730   0.586   1.407   1.119  0.0255  0.4629 -0.5615
 5512TIP3    H140731   0.615   1.317   1.132 -1.1273  0.2969  1.2021
 5512TIP3    H240732   0.663   1.454   1.089  1.1902 -0.6686  0.5674
 5513TIP3   OH240733   1.471   3.232   2.081  0.0235  0.2822 -0.1100
 5513TIP3    H140734   1.465   3.294   2.008  0.0538  0.8194  0.3318
 5513TIP3    H240735   1.499   3.150   2.041  0.5798  0.7137 -0.6322
 5514TIP3   OH240736   6.963   7.218   1.658 -0.1307  0.4855  0.5481
 5514TIP3    H140737   6.986   7.204   1.567 -0.0379  0.1462  0.6248
 5514TIP3    H240738   6.948   7.131   1.694  1.1067  0.5203  1.1960
 5515TIP3   OH240739   3.910   5.151   0.602 -0.5115  0.4372  0.0364
 5515TIP3    H140740   3.973   5.096   0.555  0.4337  1.4592  0.0704
 5515TIP3    H240741   3.887   5.101   0.680 -0.6306 -0.4405 -0.5416
 5516TIP3   OH240742   4.891   2.863   0.940 -0.1148 -0.5662 -0.6117
 5516TIP3    H140743   4.935   2.918   1.005  3.0479 -2.9555 -0.4857
 5516TIP3    H240744   4.846   2.925   0.883  2.6837  2.1820 -0.1406
 5517TIP3   OH240745   6.978   0.731   7.728 -0.4663 -0.4937  0.0353
 5517TIP3    H140746   6.934   0.815   7.743  1.1997  0.2806  0.7733
 5517TIP3    H240747   7.035   0.719   7.804 -0.1977 -2.0055 -0.3641
 5518TIP3   OH240748   4.140   1.477   1.317  0.0831  0.3783  0.4502
 5518TIP3    H140749   4.139   1.382   1.327 -0.3651  0.4272  0.9233
 5518TIP3    H240750   4.065   1.496   1.260 -0.5889  0.5404  1.3571
 5519TIP3   OH240751   3.713   7.560   2.115  0.1051 -0.2479  0.0508
 5519TIP3    H140752   3.665   7.529   2.192  0.0296 -0.6825 -0.1703
 5519TIP3    H240753   3.744   7.480   2.073 -2.4508 -0.2627 -2.0813
 5520TIP3   OH240754   3.107   6.803   3.139  0.3431 -0.7979 -0.0804
 5520TIP3    H140755   3.104   6.870   3.071  0.2342 -1.4509 -0.7384
 5520TIP3    H240756   3.162   6.841   3.208  0.5818 -0.1818 -0.5935
 5521TIP3   OH240757   3.934   0.650   1.198 -0.8225 -0.4553  0.3016
 5521TIP3    H140758   3.882   0.730   1.207 -2.3121 -1.4733  1.0956
 5521TIP3    H240759   3.880   0.592   1.145 -0.5193 -1.5442  1.1448
 5522TIP3   OH240760   4.639   6.098   1.486  0.5647  0.0165  0.2011
 5522TIP3    H140761   4.590   6.043   1.425  0.3324  1.1475 -0.6623
 5522TIP3    H240762   4.691   6.036   1.538 -0.6795 -1.1055  0.1685
 5523TIP3   OH240763   6.187   1.210   1.197 -0.0232 -0.0041 -0.1416
 5523TIP3    H140764   6.142   1.268   1.135 -2.2544 -1.0563  0.3727
 5523TIP3    H240765   6.221   1.269   1.264  1.4142  1.0402 -1.7264
 5524TIP3   OH240766   1.055   1.742   1.627 -0.1887  0.4000 -0.3085
 5524TIP3    H140767   0.962   1.738   1.604 -0.5766  1.0608  1.0265
 5524TIP3    H240768   1.077   1.835   1.627  0.3758  0.2733 -0.2617
 5525TIP3   OH240769   1.286   4.107   3.206 -0.7744 -0.3819  0.1292
 5525TIP3    H140770   1.325   4.194   3.201 -2.2258  0.6777  3.8016
 5525TIP3    H240771   1.193   4.123   3.222 -0.8355 -2.4628  2.5301
 5526TIP3   OH240772   4.080   2.813   2.264  0.0274 -0.2258  0.1706
 5526TIP3    H140773   4.171   2.832   2.288 -0.4773  1.5486  0.8668
 5526TIP3    H240774   4.086   2.744   2.199  1.8400 -0.5742  0.6482
 5527TIP3   OH240775   7.236   2.535   0.723 -0.0830 -0.1769 -0.3184
 5527TIP3    H140776   7.152   2.535   0.677  0.0218  2.5741 -0.6333
 5527TIP3    H240777   7.213   2.526   0.815 -0.5435 -1.5959 -0.5433
 5528TIP3   OH240778   0.579   6.654   1.223  0.4981 -0.1290 -0.1531
 5528TIP3    H140779   0.560   6.664   1.316  0.5892  0.4578 -0.1948
 5528TIP3    H240780   0.661   6.605   1.220  0.3924 -0.3248  0.0666
 5529TIP3   OH240781   5.846   0.421   8.207  1.0432  0.0341 -0.3830
 5529TIP3    H140782   5.849   0.517   8.217  1.0038  0.2711 -2.2517
 5529TIP3    H240783   5.782   0.393   8.271  0.4696  1.3702 -0.3230
 5530TIP3   OH240784   3.216   6.622   3.453  0.0249 -0.4494 -0.0086
 5530TIP3    H140785   3.261   6.538   3.440 -2.5433 -1.7074 -1.3467
 5530TIP3    H240786   3.280   6.688   3.425  1.5572 -2.0434 -0.4242
 5531TIP3   OH240787   6.692   0.490   1.074  0.4560  0.4475  0.0636
 5531TIP3    H140788   6.650   0.498   1.159  3.8825 -0.9565  2.1281
 5531TIP3    H240789   6.632   0.435   1.023 -0.4631 -1.1120  2.6073
 5532TIP3   OH240790   4.252   2.290   1.629 -0.4985  0.4330 -0.0380
 5532TIP3    H140791   4.209   2.278   1.544 -0.3079 -0.3426 -0.0315
 5532TIP3    H240792   4.181   2.309   1.689 -0.4798  2.8975 -0.6870
 5533TIP3   OH240793   5.510   6.481   0.993  0.9045  0.7720 -0.1147
 5533TIP3    H140794   5.526   6.461   1.085 -1.7622 -0.8798  0.1109
 5533TIP3    H240795   5.549   6.407   0.946 -0.5929 -0.1141 -0.0144
 5534TIP3   OH240796   0.915   5.345   1.682 -0.0895  0.3545 -0.3371
 5534TIP3    H140797   0.960   5.349   1.598  1.2289 -0.9815  0.2558
 5534TIP3    H240798   0.978   5.303   1.741 -1.0477  1.0868  1.2773
 5535TIP3   OH240799   1.384   2.787   1.571  0.4719 -0.2090 -0.0299
 5535TIP3    H140800   1.373   2.709   1.516 -0.7277 -0.5490  0.6576
 5535TIP3    H240801   1.304   2.792   1.622  0.8243  1.1011  0.4401
 5536TIP3   OH240802   6.237   3.608   2.031 -0.4029 -0.8040  0.1938
 5536TIP3    H140803   6.311   3.658   2.065  0.0564 -0.8684 -0.6810
 5536TIP3    H240804   6.223   3.642   1.943 -0.5552 -1.7004 -0.1408
 5537TIP3   OH240805   4.754   1.277   3.013 -0.0058  0.2554  0.6834
 5537TIP3    H140806   4.754   1.370   2.992  2.3163  0.6679  2.1395
 5537TIP3    H240807   4.697   1.269   3.090 -0.3921  0.4192  0.4167
 5538TIP3   OH240808   0.299   0.197   1.165 -0.0141 -0.6078  0.2545
 5538TIP3    H140809   0.327   0.115   1.125  2.7618  0.4259 -0.1519
 5538TIP3    H240810   0.380   0.247   1.176 -1.7385  2.9009 -1.3336
 5539TIP3   OH240811   7.074   1.305   2.826 -0.5030 -0.1242 -1.0421
 5539TIP3    H140812   7.141   1.340   2.884 -0.5435  0.8348 -1.5547
 5539TIP3    H240813   7.027   1.382   2.794 -0.4360 -0.6097 -2.3918
 5540TIP3   OH240814   4.879   1.769   1.726  0.0969  0.0088  0.2811
 5540TIP3    H140815   4.941   1.808   1.787  0.7397 -2.3517  1.2322
 5540TIP3    H240816   4.927   1.696   1.686 -0.8717  0.4481 -1.7951
 5541TIP3   OH240817   5.833   3.607   1.296 -0.1164  0.7916 -0.1992
 5541TIP3    H140818   5.909   3.663   1.279 -1.5234  2.2504 -2.1440
 5541TIP3    H240819   5.848   3.530   1.242  0.6964  0.3028  0.6733
 5542TIP3   OH240820   0.257   0.552   2.689  0.6514 -0.0290 -0.1714
 5542TIP3    H140821   0.172   0.536   2.730  0.6450 -0.6019 -0.4026
 5542TIP3    H240822   0.239   0.618   2.622  0.5769  0.5737  0.4339
 5543TIP3   OH240823   6.743   6.131   3.348 -0.1470 -0.3910  0.6376
 5543TIP3    H140824   6.658   6.098   3.320 -0.2307  0.6456 -0.3891
 5543TIP3    H240825   6.802   6.056   3.338 -0.7330 -0.8254  0.3769
 5544TIP3   OH240826   0.411   2.018   0.778 -0.1476  0.3080  0.2494
 5544TIP3    H140827   0.480   2.004   0.713  0.6754  2.5461  0.5682
 5544TIP3    H240828   0.407   1.936   0.827  0.6222 -0.6950 -1.2987
 5545TIP3   OH240829   7.259   0.843   1.291  0.3383  0.2789 -0.3595
 5545TIP3    H140830   7.215   0.784   1.352 -1.1974 -0.0363 -1.7195
 5545TIP3    H240831   7.222   0.929   1.311 -0.8626  0.0377 -1.3974
 5546TIP3   OH240832   5.334   3.745   0.694  0.1675  0.2844 -0.4958
 5546TIP3    H140833   5.299   3.808   0.631 -0.3381  0.0710 -0.4350
 5546TIP3    H240834   5.412   3.787   0.729 -0.6153  1.2387  0.1396
 5547TIP3   OH240835   0.590   2.381   2.049  0.5957  0.0380  0.0493
 5547TIP3    H140836   0.582   2.415   1.960 -2.2876  1.9597  0.8905
 5547TIP3    H240837   0.619   2.457   2.100  1.3170 -0.8007  0.9272
 5548TIP3   OH240838   7.519   3.135   0.615 -0.1344 -0.0671  0.1181
 5548TIP3    H140839   7.425   3.133   0.600 -0.4313  1.3049  1.5623
 5548TIP3    H240840   7.540   3.048   0.649 -0.6235 -0.8225 -1.4231
 5549TIP3   OH240841   0.256   5.553   1.949  0.0848 -0.6477 -0.1246
 5549TIP3    H140842   0.203   5.545   2.028  1.0051  2.3527  0.9365
 5549TIP3    H240843   0.270   5.463   1.920 -2.2117 -1.7320  1.7819
 5550TIP3   OH240844   1.681   6.264   2.518 -0.5409 -0.2299 -0.9249
 5550TIP3    H140845   1.618   6.196   2.541 -0.1826 -0.3014 -0.1262
 5550TIP3    H240846   1.759   6.216   2.490  0.0521 -0.1954  0.5429
 5551TIP3   OH240847   4.209   1.348   2.038 -0.1457  0.1830 -0.3996
 5551TIP3    H140848   4.184   1.439   2.054 -0.1151  0.1210 -0.0037
 5551TIP3    H240849   4.302   1.343   2.060 -0.2636 -0.0580  0.0687
 5552TIP3   OH240850   0.914   2.003   1.353 -0.4010 -0.2547 -0.3371
 5552TIP3    H140851   0.969   2.013   1.276 -1.2807 -2.9213 -1.4287
 5552TIP3    H240852   0.973   2.014   1.427  1.3164 -1.6281 -1.4467
 5553TIP3   OH240853   0.585   1.857   1.408  0.3251 -0.5470 -0.1617
 5553TIP3    H140854   0.642   1.924   1.370  1.0817 -0.5034  1.0078
 5553TIP3    H240855   0.543   1.816   1.332  0.9530  0.2713 -0.9783
 5554TIP3   OH240856   4.575   2.810   2.062 -0.1488  0.2521  0.0171
 5554TIP3    H140857   4.568   2.737   2.123  0.6281 -0.5146 -0.7796
 5554TIP3    H240858   4.534   2.779   1.982 -1.4786  1.3794  0.2254
 5555TIP3   OH240859   3.229   1.172   1.078  0.0263  0.4136  0.0001
 5555TIP3    H140860   3.256   1.135   0.994  0.1470  0.9714 -0.2075
 5555TIP3    H240861   3.299   1.232   1.102 -0.1823  0.5296  0.3244
 5556TIP3   OH240862   5.002   5.709   2.457  0.1483  0.1411 -0.0815
 5556TIP3    H140863   4.980   5.687   2.547 -0.0318  1.2472  0.1537
 5556TIP3    H240864   5.064   5.781   2.463  0.5619 -0.1363 -0.8350
 5557TIP3   OH240865   4.903   0.163   2.702 -0.3928  0.2845 -0.4694
 5557TIP3    H140866   4.917   0.257   2.704 -2.2662  0.6169  1.4026
 5557TIP3    H240867   4.953   0.132   2.626  2.9674  2.2690  0.7209
 5558TIP3   OH240868   5.122   4.056   1.732  0.5645  0.2588  0.5787
 5558TIP3    H140869   5.071   4.019   1.660  2.3705  0.0738 -0.6738
 5558TIP3    H240870   5.078   4.138   1.753 -0.3159  0.0466 -0.3563
 5559TIP3   OH240871   0.772   0.163   1.167  0.4093  0.2620  0.4176
 5559TIP3    H140872   0.731   0.231   1.114  2.4453  1.5116  0.3276
 5559TIP3    H240873   0.786   0.091   1.105 -1.1557 -0.0097  0.3503
 5560TIP3   OH240874   7.487   4.486   0.546  0.1582 -0.0007  0.4456
 5560TIP3    H140875   7.488   4.556   0.612  1.0815 -1.2520  1.7978
 5560TIP3    H240876   7.468   4.532   0.464 -1.7376  1.5200  1.6417
 5561TIP3   OH240877   3.656   1.893   2.426 -0.1195  0.2581 -0.3001
 5561TIP3    H140878   3.747   1.902   2.452 -0.7173  0.6825  1.8403
 5561TIP3    H240879   3.635   1.975   2.382  0.8100 -0.3251 -1.9405
 5562TIP3   OH240880   5.389   0.721   3.234  0.4853  0.0559 -0.6279
 5562TIP3    H140881   5.304   0.693   3.199 -0.8555  1.9414  0.8953
 5562TIP3    H240882   5.438   0.639   3.244 -1.4962 -1.2193 -0.6789
 5563TIP3   OH240883   5.160   4.130   2.721 -0.5062  0.2594 -0.1032
 5563TIP3    H140884   5.255   4.138   2.732 -0.8048  3.0315  1.3690
 5563TIP3    H240885   5.135   4.059   2.781  0.5633 -0.1873 -0.1657
 5564TIP3   OH240886   0.871   5.188   0.527  0.3907  0.3125  0.0454
 5564TIP3    H140887   0.880   5.111   0.581  2.5482  1.0255  0.7729
 5564TIP3    H240888   0.784   5.179   0.488 -0.4326 -1.2003  2.0526
 5565TIP3   OH240889   6.051   0.992   1.008 -0.3818 -0.1553  0.0804
 5565TIP3    H140890   6.050   1.085   1.031 -2.3070 -0.2049  0.3294
 5565TIP3    H240891   6.006   0.948   1.080 -0.0384 -1.2126 -0.3245
 5566TIP3   OH240892   3.903   4.521   1.026  0.3821 -0.1594  0.3706
 5566TIP3    H140893   3.845   4.507   1.100 -0.0397  0.0405  0.0852
 5566TIP3    H240894   3.904   4.437   0.980 -0.6169  0.1537 -0.2689
 5567TIP3   OH240895   4.755   2.075   2.384 -0.5121  0.1810 -0.5246
 5567TIP3    H140896   4.818   2.020   2.338  0.5926 -0.8148  2.0154
 5567TIP3    H240897   4.677   2.019   2.393  0.5391 -1.0600  1.8743
 5568TIP3   OH240898   7.323   2.604   1.277 -0.5837  0.1533  0.3351
 5568TIP3    H140899   7.277   2.682   1.247 -0.5585  0.5327  1.2755
 5568TIP3    H240900   7.334   2.551   1.197  0.2467  1.5310 -0.5126
 5569TIP3   OH240901   0.933   1.863   3.395  0.5798  0.0337 -0.1996
 5569TIP3    H140902   0.872   1.921   3.350  0.3583  0.0285  0.0907
 5569TIP3    H240903   1.019   1.889   3.362  0.6990  1.9203  1.3796
 5570TIP3   OH240904   7.587   1.839   0.881 -0.4464  0.7686 -0.0682
 5570TIP3    H140905   7.605   1.758   0.929 -2.7245 -0.2102 -0.7126
 5570TIP3    H240906   7.652   1.841   0.811 -1.2379 -1.3383 -0.9465
 5571TIP3   OH240907   1.932   7.069   0.918  0.0584 -0.0457 -0.2152
 5571TIP3    H140908   1.982   7.071   1.000 -0.5014 -0.5905  0.1490
 5571TIP3    H240909   1.842   7.089   0.945  0.1748  1.6744 -0.9556
 5572TIP3   OH240910   2.211   3.399   0.857 -0.0795 -0.2125 -0.6156
 5572TIP3    H140911   2.297   3.416   0.897 -0.7463  0.4543  0.5676
 5572TIP3    H240912   2.150   3.397   0.930 -1.2785  0.5305 -1.5609
 5573TIP3   OH240913   7.441   2.084   1.718  0.2974  0.6065  0.5324
 5573TIP3    H140914   7.402   2.116   1.636 -0.4567  3.3613  1.8712
 5573TIP3    H240915   7.526   2.049   1.691  0.0845  1.4491 -1.4320
 5574TIP3   OH240916   6.583   3.440   1.172  0.1489 -0.2694  0.4115
 5574TIP3    H140917   6.498   3.468   1.207 -0.0853 -1.5394  0.8964
 5574TIP3    H240918   6.645   3.459   1.242  0.1807  0.1357  0.2755
 5575TIP3   OH240919   2.500   4.104   2.238  0.3186 -0.4454  0.2618
 5575TIP3    H140920   2.513   4.116   2.144  0.7656 -0.0844  0.3643
 5575TIP3    H240921   2.588   4.088   2.273  0.0708 -1.2602  0.5269
 5576TIP3   OH240922   4.238   7.169   2.718  0.2743  1.3554 -0.2622
 5576TIP3    H140923   4.159   7.214   2.747  0.0699  0.3052  0.9037
 5576TIP3    H240924   4.299   7.178   2.792  1.3993  2.4553 -1.2743
 5577TIP3   OH240925   4.082   7.113   1.805 -0.0028 -0.3823  0.6743
 5577TIP3    H140926   4.164   7.160   1.787 -1.2195  1.1224 -1.2833
 5577TIP3    H240927   4.076   7.048   1.734 -1.7083  1.2912 -0.8342
 5578TIP3   OH240928   2.627   7.049   2.786 -0.2048  0.0969 -0.0492
 5578TIP3    H140929   2.592   7.018   2.870 -1.6913  0.3868 -0.5364
 5578TIP3    H240930   2.562   7.022   2.721  0.5274  0.5777 -1.0114
 5579TIP3   OH240931   6.584   4.344   1.669  0.6859 -0.3805 -0.1555
 5579TIP3    H140932   6.648   4.404   1.707  0.3495 -0.7987  1.1171
 5579TIP3    H240933   6.501   4.391   1.673  0.2603 -1.2018  1.6387
 5580TIP3   OH240934   4.560   3.388   2.334 -0.2487  0.0353 -0.6083
 5580TIP3    H140935   4.640   3.397   2.282  0.6772  0.0654  0.7639
 5580TIP3    H240936   4.550   3.473   2.378  0.3561 -0.7169  1.0948
 5581TIP3   OH240937   6.730   6.647   1.002  0.4453  0.0573 -0.8790
 5581TIP3    H140938   6.818   6.623   1.031 -1.3293 -3.6505  2.3004
 5581TIP3    H240939   6.709   6.726   1.051  1.0756 -0.5668  0.4345
 5582TIP3   OH240940   5.832   5.823   0.917  0.0292  0.0669  0.2930
 5582TIP3    H140941   5.755   5.777   0.884  0.8427 -0.7050 -0.5757
 5582TIP3    H240942   5.819   5.914   0.890  0.9169 -0.6086 -2.8011
 5583TIP3   OH240943   4.118   1.431   0.909  0.2615  0.0289  0.0882
 5583TIP3    H140944   4.073   1.484   0.843  1.7504  0.3421 -0.7120
 5583TIP3    H240945   4.203   1.473   0.921  1.0135 -1.4657  0.3290
 5584TIP3   OH240946   6.668   7.612   2.109 -0.3225 -0.5234 -0.0576
 5584TIP3    H140947   6.630   7.555   2.176 -0.2690  0.3110  0.7207
 5584TIP3    H240948   6.693   7.691   2.158  1.7852 -0.7768 -0.6612
 5585TIP3   OH240949   6.140   2.423   1.899  0.2098  0.2236  0.2545
 5585TIP3    H140950   6.094   2.468   1.970 -2.7256  0.0132 -1.3446
 5585TIP3    H240951   6.232   2.448   1.910 -0.8703  4.9975  0.6949
 5586TIP3   OH240952   2.784   0.536   2.205 -0.6451 -0.1765  0.1861
 5586TIP3    H140953   2.759   0.444   2.199 -0.4558 -0.3420  1.5043
 5586TIP3    H240954   2.863   0.536   2.259  0.6471  0.5783 -1.5955
 5587TIP3   OH240955   1.906   0.175   1.753 -0.4811  0.8403  0.4147
 5587TIP3    H140956   1.942   0.232   1.685  1.6555 -1.2101 -0.2674
 5587TIP3    H240957   1.814   0.165   1.729 -0.1515  1.4545 -1.2490
 5588TIP3   OH240958   5.633   1.754   1.723  0.1034  0.2001  0.1453
 5588TIP3    H140959   5.572   1.827   1.728  1.7089  1.7283 -1.3132
 5588TIP3    H240960   5.691   1.776   1.651  0.3062 -2.8281 -0.7462
 5589TIP3   OH240961   1.720   3.599   0.997 -0.5135 -0.1272  0.5426
 5589TIP3    H140962   1.752   3.509   0.998  1.4411  0.4144 -1.9098
 5589TIP3    H240963   1.770   3.644   1.064  0.3058 -0.3738  0.1060
 5590TIP3   OH240964   6.057   0.498   2.018 -0.6165 -0.0640  0.1824
 5590TIP3    H140965   6.064   0.570   1.954  2.7294  0.9035  1.4191
 5590TIP3    H240966   6.078   0.420   1.968 -0.8860  0.2754 -0.4804
 5591TIP3   OH240967   3.004   4.439   1.954  0.1798  0.1749 -0.1450
 5591TIP3    H140968   3.009   4.369   2.019 -2.4010  0.9516  1.0657
 5591TIP3    H240969   2.975   4.396   1.874 -0.4395 -0.2983  0.3202
 5592TIP3   OH240970   3.556   4.614   1.043 -0.0146 -0.1083  0.1288
 5592TIP3    H140971   3.606   4.557   0.984  0.5496 -1.6554  2.0025
 5592TIP3    H240972   3.526   4.556   1.113  0.0826  1.7944  1.8484
 5593TIP3   OH240973   7.010   7.176   1.128 -0.1756 -0.0346  0.3224
 5593TIP3    H140974   7.079   7.139   1.072  1.5404  0.2678  2.1315
 5593TIP3    H240975   7.021   7.271   1.121 -0.1081  0.0092  0.9717
 5594TIP3   OH240976   1.131   6.318   1.162  0.4491  0.7928  0.6418
 5594TIP3    H140977   1.191   6.250   1.131 -1.0907 -0.1792 -0.3425
 5594TIP3    H240978   1.174   6.401   1.140  0.8137  0.1267 -1.3070
 5595TIP3   OH240979   3.191   7.148   0.577 -0.5805  0.2975 -0.4163
 5595TIP3    H140980   3.146   7.078   0.528 -0.9002  0.2261 -0.0222
 5595TIP3    H240981   3.241   7.195   0.510  0.7885 -1.1707 -0.5001
 5596TIP3   OH240982   3.815   6.614   0.578 -0.3622  0.2502  0.5949
 5596TIP3    H140983   3.872   6.684   0.609  1.1458 -0.9978  0.8139
 5596TIP3    H240984   3.727   6.645   0.597  0.2650  1.9313  0.9753
 5597TIP3   OH240985   6.563   2.694   0.380 -0.0557 -0.6152 -0.2277
 5597TIP3    H140986   6.621   2.769   0.386 -0.7675 -0.1373  1.0225
 5597TIP3    H240987   6.620   2.622   0.353  0.6878  0.2966 -1.1459
 5598TIP3   OH240988   1.457   7.373   0.361 -0.0121 -0.1914  0.4626
 5598TIP3    H140989   1.393   7.308   0.390  0.7233 -1.7415 -1.1914
 5598TIP3    H240990   1.541   7.327   0.362  0.4364  0.4869 -1.3593
 5599TIP3   OH240991   2.503   0.769   3.056 -0.0436  0.5480  0.2282
 5599TIP3    H140992   2.584   0.738   3.097  1.8328  0.6198 -3.0814
 5599TIP3    H240993   2.445   0.693   3.058  1.8274 -1.0554 -1.2465
 5600TIP3   OH240994   6.324   0.571   2.180  0.3522  0.7137  0.3160
 5600TIP3    H140995   6.323   0.620   2.262  0.4240 -0.3079  0.9439
 5600TIP3    H240996   6.232   0.550   2.163  0.5322 -1.5838  1.7198
 5601TIP3   OH240997   1.329   1.173   2.842  0.0382  0.5994  0.0201
 5601TIP3    H140998   1.239   1.204   2.828 -0.2053 -0.9878 -2.8548
 5601TIP3    H240999   1.383   1.233   2.792  0.3670  0.5437  0.3096
 5602TIP3   OH241000   2.290   2.432   3.147  0.2751  0.2681  0.3330
 5602TIP3    H141001   2.265   2.495   3.214 -2.5116 -0.9911  0.6291
 5602TIP3    H241002   2.334   2.484   3.080 -0.9138  2.3431  1.0586
 5603TIP3   OH241003   5.404   5.843   2.496 -0.2983  0.4554 -0.6072
 5603TIP3    H141004   5.393   5.930   2.457 -2.2988 -0.1276 -1.4795
 5603TIP3    H241005   5.469   5.800   2.441  1.7980  1.8196  0.6806
 5604TIP3   OH241006   6.905   1.880   1.075 -0.3944 -0.1232  0.7805
 5604TIP3    H141007   6.975   1.836   1.027 -1.4031  0.2167 -1.1372
 5604TIP3    H241008   6.949   1.929   1.144  1.1110 -0.9154  0.4074
 5605TIP3   OH241009   5.510   3.258   1.621 -0.3306  0.1805 -0.4284
 5605TIP3    H141010   5.575   3.296   1.561 -2.2484  1.4289 -1.8440
 5605TIP3    H241011   5.462   3.334   1.655 -0.6824 -0.6729  1.0205
 5606TIP3   OH241012   3.568   4.597   2.678  0.3725 -0.4224  0.2987
 5606TIP3    H141013   3.583   4.676   2.626 -1.1709 -0.3768 -0.1092
 5606TIP3    H241014   3.548   4.529   2.613  2.3926 -1.3677  0.5830
 5607TIP3   OH241015   0.854   6.171   0.958  0.4997  0.2332 -0.2835
 5607TIP3    H141016   0.854   6.075   0.962 -1.2505  0.1967 -0.7135
 5607TIP3    H241017   0.765   6.194   0.931  1.1200  1.9556 -0.9663
 5608TIP3   OH241018   7.176   6.202   0.713 -0.3929  0.1398  0.2974
 5608TIP3    H141019   7.211   6.115   0.734 -1.5005 -0.1508  1.0216
 5608TIP3    H241020   7.160   6.242   0.799 -1.7783  0.2681  0.0018
 5609TIP3   OH241021   6.490   1.846   2.075  0.1414 -0.1394  0.2048
 5609TIP3    H141022   6.568   1.897   2.055 -1.7027  2.1805 -1.7225
 5609TIP3    H241023   6.464   1.875   2.163  2.4903 -2.5809  1.8880
 5610TIP3   OH241024   2.253   1.867   2.905  0.7066 -0.3884  0.4397
 5610TIP3    H141025   2.218   1.955   2.912  2.0319  0.3750 -1.5896
 5610TIP3    H241026   2.297   1.851   2.989 -1.1659  0.0745  1.5551
 5611TIP3   OH241027   3.133   2.419   2.626  0.1682 -0.3335 -0.3015
 5611TIP3    H141028   3.080   2.342   2.647  0.3904 -0.6799 -0.9682
 5611TIP3    H241029   3.167   2.449   2.710  0.3720 -1.1877 -0.0652
 5612TIP3   OH241030   6.108   5.392   0.870 -0.1486 -0.0490 -0.1506
 5612TIP3    H141031   6.033   5.450   0.887  0.8724  0.9925  1.0839
 5612TIP3    H241032   6.182   5.452   0.860  0.6761 -1.0972 -0.4300
 5613TIP3   OH241033   5.429   4.631   2.306 -0.0459  0.1028 -0.0043
 5613TIP3    H141034   5.478   4.557   2.340 -0.1224  0.9280  2.0299
 5613TIP3    H241035   5.479   4.661   2.230 -0.8914 -2.9993 -1.9664
 5614TIP3   OH241036   5.721   0.645   3.191  0.1355 -0.5833 -0.2389
 5614TIP3    H141037   5.646   0.586   3.198 -0.2299 -0.0066  1.0718
 5614TIP3    H241038   5.681   0.730   3.171  0.4947 -0.3893 -0.1244
 5615TIP3   OH241039   2.426   1.348   2.291  0.2210 -0.1818  0.2938
 5615TIP3    H141040   2.446   1.274   2.347 -2.8404 -0.9425  0.5303
 5615TIP3    H241041   2.446   1.317   2.202 -3.1757 -2.2809  0.1173
 5616TIP3   OH241042   0.465   1.829   1.101  0.0101 -0.0811  0.3544
 5616TIP3    H141043   0.479   1.751   1.154  0.6375  0.4118  0.9349
 5616TIP3    H241044   0.437   1.796   1.016 -1.6864 -0.8679  1.1747
 5617TIP3   OH241045   4.653   5.969   2.688 -0.0285  0.0551 -0.3359
 5617TIP3    H141046   4.661   5.971   2.593  0.9276  0.3984 -0.2507
 5617TIP3    H241047   4.740   5.991   2.721 -0.2250 -0.5208  0.6197
 5618TIP3   OH241048   3.296   6.934   2.293  0.0640  0.3677  0.6500
 5618TIP3    H141049   3.239   6.993   2.342 -0.3585  1.0673 -0.6419
 5618TIP3    H241050   3.322   6.984   2.216 -0.3712 -1.1369 -0.5355
 5619TIP3   OH241051   4.125   3.685   0.702  0.3300 -0.2582 -0.1082
 5619TIP3    H141052   4.150   3.646   0.619  1.6972  1.5642 -0.6260
 5619TIP3    H241053   4.164   3.628   0.768  0.9008 -0.6491 -0.7730
 5620TIP3   OH241054   7.523   5.601   3.412  0.4440  0.0975  0.0126
 5620TIP3    H141055   7.571   5.677   3.445 -1.0112  0.3704  1.6735
 5620TIP3    H241056   7.551   5.529   3.468 -0.1121 -0.0090  0.1624
 5621TIP3   OH241057   5.899   5.556   0.963  0.2020 -0.3716 -0.2711
 5621TIP3    H141058   5.870   5.501   1.036 -0.2203  0.5903  0.3069
 5621TIP3    H241059   5.864   5.643   0.983 -1.0158 -0.3449 -2.2497
 5622TIP3   OH241060   5.335   4.067   1.375 -0.2135  0.0194  0.3383
 5622TIP3    H141061   5.427   4.092   1.371 -0.6128  1.4414 -0.7386
 5622TIP3    H241062   5.302   4.105   1.456  0.2537 -0.9528  1.0002
 5623TIP3   OH241063   5.067   0.768   1.060 -0.0054 -0.7096 -0.3677
 5623TIP3    H141064   5.093   0.860   1.064 -1.0055 -0.3664 -1.0620
 5623TIP3    H241065   5.044   0.754   0.968 -0.0280 -1.6099 -0.2380
 5624TIP3   OH241066   3.098   0.752   1.149 -0.0018  0.4299  0.0692
 5624TIP3    H141067   3.026   0.700   1.184 -0.9695 -0.2305 -2.6491
 5624TIP3    H241068   3.086   0.839   1.188 -2.1823  0.2862 -0.1337
 5625TIP3   OH241069   3.125   3.511   1.086  0.0475  0.0859 -0.2931
 5625TIP3    H141070   3.054   3.471   1.135  0.8606 -0.2855  0.6272
 5625TIP3    H241071   3.112   3.482   0.996 -0.2725 -0.9844  0.0824
 5626TIP3   OH241072   4.863   7.158   1.341  0.0670  0.1002  0.1416
 5626TIP3    H141073   4.817   7.237   1.371 -1.8289 -1.0262  0.3912
 5626TIP3    H241074   4.880   7.109   1.421 -0.1340 -0.4291 -0.1377
 5627TIP3   OH241075   3.647   6.128   1.207  0.3497 -0.0863 -0.3875
 5627TIP3    H141076   3.707   6.198   1.180  0.1818  0.2294  0.0573
 5627TIP3    H241077   3.704   6.052   1.220  0.6309  0.1595 -0.1625
 5628TIP3   OH241078   1.801   0.303   2.891  0.3340  0.2303 -0.0815
 5628TIP3    H141079   1.736   0.237   2.870  0.7966 -0.2043 -0.1678
 5628TIP3    H241080   1.885   0.256   2.889  0.8294  1.0957 -1.5747
 5629TIP3   OH241081   5.984   0.977   2.955 -0.1641 -0.0670  0.0375
 5629TIP3    H141082   6.065   1.028   2.954 -0.7377  0.8642 -0.6527
 5629TIP3    H241083   5.914   1.043   2.958 -0.9388 -0.7889 -1.2032
 5630TIP3   OH241084   3.053   0.883   1.728  0.3140  0.1495  0.2136
 5630TIP3    H141085   3.072   0.850   1.640 -0.8772  0.9009 -0.3361
 5630TIP3    H241086   3.097   0.968   1.732  0.8342 -0.1279  0.5586
 5631TIP3   OH241087   5.235   2.354   0.514  0.0051  0.2121  0.3425
 5631TIP3    H141088   5.281   2.409   0.576  0.9724 -0.8138  0.5575
 5631TIP3    H241089   5.265   2.384   0.428 -1.9545  2.1890  0.2543
 5632TIP3   OH241090   0.113   1.668   0.970  0.8067  0.2034 -0.7627
 5632TIP3    H141091   0.131   1.610   1.045  1.1379 -0.9129 -1.6699
 5632TIP3    H241092   0.075   1.610   0.904 -3.6449  1.9020 -0.0014
 5633TIP3   OH241093   5.373   6.075   2.310 -0.5014 -0.3771 -0.4331
 5633TIP3    H141094   5.311   6.115   2.371  0.3463 -0.9733  0.8678
 5633TIP3    H241095   5.319   6.041   2.239 -1.4035  1.4681 -0.6926
 5634TIP3   OH241096   3.965   7.198   2.192 -0.4048 -0.1054 -0.1660
 5634TIP3    H141097   4.043   7.152   2.226  1.0046  0.3122 -2.6037
 5634TIP3    H241098   3.926   7.136   2.131 -0.1141  0.8406 -1.3450
 5635TIP3   OH241099   4.086   4.913   1.783  0.1605  0.3810  0.1660
 5635TIP3    H141100   4.179   4.934   1.773  0.4866 -1.5734 -1.4341
 5635TIP3    H241101   4.045   4.951   1.705  0.0380 -0.8811 -0.4000
 5636TIP3   OH241102   4.261   1.065   1.140 -0.1266  0.2557 -0.0038
 5636TIP3    H141103   4.307   1.138   1.100 -0.4051 -0.0974 -0.9890
 5636TIP3    H241104   4.213   1.024   1.068 -1.6575  0.3622  0.9152
 5637TIP3   OH241105   0.262   7.407   1.000  0.4282 -0.1275  0.5073
 5637TIP3    H141106   0.224   7.343   0.940  0.3710 -0.6813  1.1252
 5637TIP3    H241107   0.302   7.355   1.070  2.1074  0.4366  0.0245
 5638TIP3   OH241108   1.931   2.084   0.803  0.0039 -0.1455 -0.3140
 5638TIP3    H141109   1.861   2.031   0.763 -1.2812  0.6678  0.7633
 5638TIP3    H241110   1.935   2.053   0.893  1.9756 -1.0732 -0.6813
 5639TIP3   OH241111   6.384   1.761   0.621 -0.1095 -0.5659  0.5685
 5639TIP3    H141112   6.400   1.681   0.571 -0.5788 -1.0810  1.2231
 5639TIP3    H241113   6.300   1.794   0.589  0.2653 -0.1173  0.0297
 5640TIP3   OH241114   5.972   0.274   2.156  0.1705  0.5487  0.0999
 5640TIP3    H141115   5.991   0.356   2.110  2.1878 -0.6054 -1.2382
 5640TIP3    H241116   5.918   0.224   2.095  1.4840 -0.3261 -0.3695
 5641TIP3   OH241117   6.833   6.249   3.117 -0.4181  0.0154 -0.2005
 5641TIP3    H141118   6.754   6.274   3.070 -1.4645 -2.8877 -0.2210
 5641TIP3    H241119   6.800   6.209   3.198  0.8581 -2.4594 -0.7990
 5642TIP3   OH241120   0.060   6.589   3.022 -0.3361  0.1328  0.1373
 5642TIP3    H141121   0.004   6.652   2.978 -0.5798 -1.2330 -1.6254
 5642TIP3    H241122   0.107   6.640   3.087  0.4668  2.4053 -2.0750
 5643TIP3   OH241123   3.846   0.978   0.946  0.2180 -0.1624  0.4684
 5643TIP3    H141124   3.922   1.028   0.916  0.1554 -0.5838 -0.4382
 5643TIP3    H241125   3.838   0.906   0.883 -0.2743 -0.7522  1.1886
 5644TIP3   OH241126   5.878   7.087   2.905  0.3701  0.3177 -0.2096
 5644TIP3    H141127   5.792   7.096   2.947  0.2356  2.2878 -0.7982
 5644TIP3    H241128   5.868   7.131   2.821  1.9442  0.5157 -0.3164
 5645TIP3   OH241129   0.587   0.988   1.271 -0.2073 -0.2427  0.2970
 5645TIP3    H141130   0.522   0.970   1.338  1.2055  1.1970  2.1471
 5645TIP3    H241131   0.605   0.902   1.232 -4.2031 -0.5216 -1.4028
 5646TIP3   OH241132   0.343   1.018   0.692 -0.5897  0.4511 -0.0027
 5646TIP3    H141133   0.259   0.976   0.709 -0.4255  0.3655  0.6318
 5646TIP3    H241134   0.322   1.111   0.680 -0.8053  0.3853 -0.1327
 5647TIP3   OH241135   7.466   7.383   3.526  0.6176 -0.2198 -0.4419
 5647TIP3    H141136   7.420   7.340   3.598  1.6116  1.0842  1.0283
 5647TIP3    H241137   7.416   7.358   3.448 -1.7590  0.0387  0.8968
 5648TIP3   OH241138   4.743   1.196   0.884  0.1536  0.3468  0.1530
 5648TIP3    H141139   4.817   1.227   0.936 -0.0423 -1.1758  1.3911
 5648TIP3    H241140   4.761   1.103   0.870 -1.3200  0.0484  0.1131
 5649TIP3   OH241141   2.485   2.219   3.252 -0.0983 -0.6233 -0.0161
 5649TIP3    H141142   2.555   2.283   3.267  0.3268 -0.9010 -0.7777
 5649TIP3    H241143   2.413   2.271   3.216 -0.7615 -0.1251  1.8970
 5650TIP3   OH241144   7.534   0.854   2.994  0.3313  0.0437 -0.1615
 5650TIP3    H141145   7.556   0.760   2.998  0.9356  0.1130 -1.3473
 5650TIP3    H241146   7.617   0.898   3.010  0.3528  0.3511 -1.0551
 5651TIP3   OH241147   3.033   2.976   2.801 -0.0713 -0.0513 -0.7586
 5651TIP3    H141148   2.975   2.981   2.877 -1.1975 -0.6887 -1.5393
 5651TIP3    H241149   2.990   3.030   2.735  1.6359  1.6745 -0.5142
 5652TIP3   OH241150   2.717   0.436   2.555  0.2677 -0.1673 -0.0533
 5652TIP3    H141151   2.647   0.397   2.503 -1.2789  3.4993 -1.0193
 5652TIP3    H241152   2.690   0.422   2.646 -1.3691  0.5025 -0.4038
 5653TIP3   OH241153   7.353   6.680   2.545 -0.1348  0.2400 -0.0904
 5653TIP3    H141154   7.308   6.753   2.588 -3.0357 -1.5481  0.1736
 5653TIP3    H241155   7.415   6.648   2.610 -0.0892  1.3591  0.4468
 5654TIP3   OH241156   5.959   4.566   0.916  0.5040 -0.6562 -0.0253
 5654TIP3    H141157   6.046   4.543   0.950  0.9322  0.7299 -0.1125
 5654TIP3    H241158   5.916   4.611   0.989 -1.2308 -3.6755  0.9607
 5655TIP3   OH241159   1.629   0.774   3.051 -0.1945 -0.4197 -0.0147
 5655TIP3    H141160   1.603   0.818   3.132  1.9217  0.0423  0.4815
 5655TIP3    H241161   1.698   0.714   3.078  1.2580  0.4616 -1.5769
 5656TIP3   OH241162   0.828   1.218   1.325 -0.3559  0.3235  0.2031
 5656TIP3    H141163   0.823   1.138   1.273  0.5530  1.4565 -1.7478
 5656TIP3    H241164   0.842   1.288   1.261 -1.5895  2.1333  1.7922
 5657TIP3   OH241165   6.384   7.545   1.117 -0.8867  0.0264 -0.7831
 5657TIP3    H141166   6.304   7.528   1.068 -0.2840  0.5166 -1.9861
 5657TIP3    H241167   6.423   7.621   1.074  0.0713 -0.0199 -0.0294
 5658TIP3   OH241168   7.030   6.926   1.254 -0.1474 -0.5811  0.0066
 5658TIP3    H141169   6.968   6.888   1.316 -1.8550  1.0218 -0.6423
 5658TIP3    H241170   7.000   7.015   1.240  2.6147  0.4688  0.0066
 5659TIP3   OH241171   7.037   2.362   1.636 -0.3582  0.2397 -0.1049
 5659TIP3    H141172   7.070   2.450   1.619  0.2666 -0.3519 -2.3218
 5659TIP3    H241173   7.048   2.316   1.553 -2.0871 -1.5072  0.5577
 5660TIP3   OH241174   0.241   1.919   2.181 -0.0014 -0.7540  0.5811
 5660TIP3    H141175   0.183   1.947   2.110  1.2097  0.0357 -0.1320
 5660TIP3    H241176   0.254   1.998   2.234  2.3870 -0.1931 -0.6990
 5661TIP3   OH241177   1.813   6.990   2.064  0.9930  0.2819 -0.1875
 5661TIP3    H141178   1.852   6.966   2.148  0.0166 -0.8600 -0.0302
 5661TIP3    H241179   1.729   6.944   2.063  0.0351  1.9688 -0.8838
 5662TIP3   OH241180   5.086   0.347   2.640  0.0719 -0.4441  0.1356
 5662TIP3    H141181   5.122   0.364   2.553 -0.7778 -2.9978 -0.7963
 5662TIP3    H241182   5.162   0.341   2.697  0.6881  0.5362 -0.5416
 5663TIP3   OH241183   5.699   6.004   1.771 -0.5019  0.0826 -0.0295
 5663TIP3    H141184   5.792   6.029   1.765 -0.5202  0.3144  0.5653
 5663TIP3    H241185   5.675   5.981   1.682  0.5533 -1.5038  0.0526
 5664TIP3   OH241186   7.504   7.356   3.154  0.2744  0.1312 -0.6483
 5664TIP3    H141187   7.442   7.334   3.224  0.2480  1.2757 -0.2966
 5664TIP3    H241188   7.477   7.300   3.081  0.2117 -0.9785  0.1923
 5665TIP3   OH241189   0.609   0.143   1.481 -1.0656  0.3319  0.0218
 5665TIP3    H141190   0.693   0.104   1.504 -0.8415  0.6661 -0.2241
 5665TIP3    H241191   0.566   0.078   1.426 -0.1304  0.9677 -1.5145
 5666TIP3   OH241192   2.155   1.790   2.669  0.7633  0.2603 -0.7431
 5666TIP3    H141193   2.208   1.847   2.612  0.1841  3.6130  1.7879
 5666TIP3    H241194   2.184   1.811   2.758 -1.0778 -1.8782  0.4664
 5667TIP3   OH241195   0.928   1.483   3.761  0.2433  0.1738 -0.0609
 5667TIP3    H141196   0.940   1.563   3.711  0.1425  0.9775  1.1552
 5667TIP3    H241197   1.017   1.452   3.780  0.2854  0.2254 -0.1765
 5668TIP3   OH241198   4.399   1.803   1.312  0.4797 -0.2418 -0.2539
 5668TIP3    H141199   4.418   1.894   1.336 -0.5029 -0.0248 -0.2481
 5668TIP3    H241200   4.304   1.799   1.308  0.5218 -1.2126 -0.5153
 5669TIP3   OH241201   5.538   0.852   1.576  0.1883  0.1429  0.0529
 5669TIP3    H141202   5.561   0.762   1.553 -0.3841  0.0643 -0.2061
 5669TIP3    H241203   5.482   0.844   1.653  0.8685  0.3281  0.5759
 5670TIP3   OH241204   3.251   0.079   0.995  0.2079  0.3821 -0.2742
 5670TIP3    H141205   3.270   0.062   0.903 -0.2100 -1.2054 -0.1111
 5670TIP3    H241206   3.256   0.174   1.004  2.4131  0.4513 -1.4438
 5671TIP3   OH241207   2.006   4.008   0.873 -0.1155  0.3695  0.4018
 5671TIP3    H141208   1.991   3.930   0.820  0.0482 -0.4843  1.5765
 5671TIP3    H241209   2.027   4.076   0.809 -0.6955 -0.4282 -0.6759
 5672TIP3   OH241210   3.968   4.494   3.447 -0.1297 -0.1577 -0.6467
 5672TIP3    H141211   4.045   4.450   3.412  1.8934 -0.0283  3.1640
 5672TIP3    H241212   3.936   4.435   3.515 -0.6207  1.8077  0.9055
 5673TIP3   OH241213   1.600   0.453   2.593  0.1112  0.6124 -0.4398
 5673TIP3    H141214   1.693   0.437   2.609  0.3456  0.3905 -1.9089
 5673TIP3    H241215   1.565   0.368   2.567 -0.4691  0.7301 -0.0579
 5674TIP3   OH241216   2.210   5.594   1.263  0.3923 -0.1005  0.0205
 5674TIP3    H141217   2.291   5.639   1.285 -0.5091  1.2645  0.6398
 5674TIP3    H241218   2.143   5.635   1.317 -0.4744 -2.3080  0.7550
 5675TIP3   OH241219   2.581   2.989   3.278 -0.2581 -0.2765 -0.0502
 5675TIP3    H141220   2.547   3.039   3.203  2.3000  0.7169 -0.6410
 5675TIP3    H241221   2.604   2.903   3.241  0.5898  0.0630 -0.3334
 5676TIP3   OH241222   5.020   0.218   1.501 -0.2168  0.1559 -0.5455
 5676TIP3    H141223   4.940   0.174   1.531 -0.6666  1.7980  0.8447
 5676TIP3    H241224   5.089   0.152   1.512 -1.5409 -1.9564 -3.5652
 5677TIP3   OH241225   7.024   5.599   2.966  0.4553  0.1205  0.1602
 5677TIP3    H141226   7.027   5.507   2.939 -1.7486  0.1762 -0.5135
 5677TIP3    H241227   6.944   5.606   3.019  1.0059  1.4890  0.8637
 5678TIP3   OH241228   4.622   0.430   1.404 -0.3467  0.2923  0.5019
 5678TIP3    H141229   4.620   0.508   1.459 -0.5625  0.5248  0.1721
 5678TIP3    H241230   4.709   0.432   1.364 -0.4892  0.5770  0.1994
 5679TIP3   OH241231   7.657   1.612   1.554  0.5345  0.3326  0.4873
 5679TIP3    H141232   7.753   1.614   1.559  0.4892  0.5173  1.8770
 5679TIP3    H241233   7.636   1.522   1.531  1.0436  0.1418  0.7450
 5680TIP3   OH241234   6.871   5.915   3.268  0.0284  0.0090  0.2424
 5680TIP3    H141235   6.798   5.877   3.219 -0.7596  0.9599  0.6405
 5680TIP3    H241236   6.946   5.861   3.246 -0.7818 -0.9357 -0.2520
 5681TIP3   OH241237   5.170   7.418   3.074 -0.9222  0.2360  0.0209
 5681TIP3    H141238   5.205   7.465   2.998 -0.2756 -0.9518 -0.4406
 5681TIP3    H241239   5.220   7.452   3.148 -0.3323  0.1422 -0.3298
 5682TIP3   OH241240   0.162   6.709   1.621 -0.0683 -1.0221  0.1563
 5682TIP3    H141241   0.170   6.798   1.655 -0.4927  0.1644 -2.6320
 5682TIP3    H241242   0.178   6.653   1.697  0.7081  1.4012  1.8880
 5683TIP3   OH241243   0.250   1.140   0.979 -0.0924 -0.4532 -0.4042
 5683TIP3    H141244   0.238   1.084   0.903  1.2252  1.0656 -1.8223
 5683TIP3    H241245   0.162   1.152   1.015 -0.9424 -0.1996 -2.4749
 5684TIP3   OH241246   3.033   4.636   0.773  0.4861  0.1970  0.0323
 5684TIP3    H141247   2.950   4.592   0.792  0.7968  0.1949  1.5140
 5684TIP3    H241248   3.009   4.726   0.754  0.1487  0.2741  0.7702
 5685TIP3   OH241249   3.503   1.640   0.501  0.5678 -0.1999  0.3038
 5685TIP3    H141250   3.472   1.730   0.498 -1.0433 -0.7344 -1.4334
 5685TIP3    H241251   3.598   1.647   0.510  0.3472  1.6106  1.5746
 5686TIP3   OH241252   4.126   6.128   2.906 -0.4475  0.6491  0.7407
 5686TIP3    H141253   4.123   6.083   2.822 -0.6849  2.3905 -0.2145
 5686TIP3    H241254   4.035   6.151   2.925 -0.3769  0.4230  1.4160
 5687TIP3   OH241255   2.117   2.325   1.983 -0.3987  0.4978  0.7246
 5687TIP3    H141256   2.078   2.311   1.897  0.7316  0.9609  0.1174
 5687TIP3    H241257   2.073   2.402   2.017  0.4948  1.4861 -0.2892
 5688TIP3   OH241258   1.666   7.431   1.322 -0.2471  0.5330 -1.2161
 5688TIP3    H141259   1.633   7.385   1.245  0.5766 -0.0300 -1.2478
 5688TIP3    H241260   1.643   7.522   1.307 -0.7163  0.3257 -1.7965
 5689TIP3   OH241261   5.148   1.760   0.523 -0.1535 -0.5196 -0.7184
 5689TIP3    H141262   5.089   1.739   0.595 -1.9985  0.4608 -1.8796
 5689TIP3    H241263   5.153   1.680   0.472  0.0774 -0.8087 -0.2513
 5690TIP3   OH241264   6.372   5.278   1.287  0.4990 -0.3786  0.3089
 5690TIP3    H141265   6.438   5.311   1.347 -0.4320 -1.7869  2.1986
 5690TIP3    H241266   6.327   5.357   1.255  2.4427  0.5390 -0.3643
 5691TIP3   OH241267   1.732   5.828   2.423  0.3496 -0.7230 -0.2083
 5691TIP3    H141268   1.703   5.747   2.381  4.0883 -2.6008  0.3472
 5691TIP3    H241269   1.746   5.888   2.350  0.7615 -1.8059 -1.0665
 5692TIP3   OH241270   3.955   0.532   2.974  0.1031 -0.1903 -0.2630
 5692TIP3    H141271   3.980   0.473   3.045  2.9158 -0.6509 -1.5041
 5692TIP3    H241272   3.891   0.482   2.923 -0.1326 -0.7993  0.6009
 5693TIP3   OH241273   7.560   2.794   2.029  0.5620  0.5577  0.1295
 5693TIP3    H141274   7.557   2.779   1.935  0.4908 -0.5403  0.2902
 5693TIP3    H241275   7.625   2.864   2.040  0.9791  0.3147 -0.6948
 5694TIP3   OH241276   2.535   7.645   1.268 -0.4135  0.0087  0.0142
 5694TIP3    H141277   2.608   7.585   1.285 -0.5549 -0.4919 -1.0678
 5694TIP3    H241278   2.477   7.634   1.343 -0.3587 -1.1009 -0.0959
 5695TIP3   OH241279   0.133   4.193   0.698 -0.1646  0.1101  0.6444
 5695TIP3    H141280   0.223   4.221   0.715 -0.0011  1.1989 -1.6247
 5695TIP3    H241281   0.143   4.116   0.641 -0.6221  1.0679 -0.7839
 5696TIP3   OH241282   7.352   6.210   2.048 -0.2969 -0.8821  0.4574
 5696TIP3    H141283   7.393   6.296   2.058 -0.0318 -1.1188  1.5333
 5696TIP3    H241284   7.266   6.229   2.009  0.8781 -0.4070 -2.0754
 5697TIP3   OH241285   6.767   4.986   2.450 -0.3136  0.3070  0.2696
 5697TIP3    H141286   6.821   5.065   2.453 -1.6531  1.2404  0.5216
 5697TIP3    H241287   6.823   4.920   2.408  0.7463  1.4470 -0.1603
 5698TIP3   OH241288   2.459   4.136   0.808 -0.1678 -0.3640 -0.2651
 5698TIP3    H141289   2.461   4.193   0.885 -1.0802 -1.1769  0.3805
 5698TIP3    H241290   2.417   4.190   0.740 -0.0296  0.1080  0.0160
 5699TIP3   OH241291   6.714   0.217   0.421  0.2855 -0.2829 -0.3824
 5699TIP3    H141292   6.807   0.218   0.445 -0.0251  0.1759  0.8453
 5699TIP3    H241293   6.713   0.243   0.329  1.3167  0.4843 -0.1949
 5700TIP3   OH241294   5.297   1.362   2.387  0.0911  0.2718 -0.5438
 5700TIP3    H141295   5.366   1.372   2.322 -1.0201  0.6069 -1.7341
 5700TIP3    H241296   5.238   1.436   2.371 -0.0620  0.5190  1.0546
 5701TIP3   OH241297   2.728   5.782   3.424  0.1111  0.5204  0.0616
 5701TIP3    H141298   2.780   5.822   3.494 -0.7637  0.8556  0.5336
 5701TIP3    H241299   2.727   5.847   3.354  0.7632  0.2911 -0.1791
 5702TIP3   OH241300   5.030   2.010   0.457  0.2002 -0.2298 -0.4626
 5702TIP3    H141301   5.091   1.937   0.466 -0.0313 -0.5717 -1.5278
 5702TIP3    H241302   5.085   2.087   0.452  0.6030 -0.5960 -2.1085
 5703TIP3   OH241303   3.700   4.818   3.258 -0.2272  0.3189 -0.8454
 5703TIP3    H141304   3.630   4.884   3.255 -0.4717  0.1473  0.3250
 5703TIP3    H241305   3.658   4.741   3.296  0.3967 -0.0546 -0.9038
 5704TIP3   OH241306   7.383   1.177   2.107 -0.1305  0.0409  0.1998
 5704TIP3    H141307   7.452   1.110   2.114  0.5800  0.5713 -1.2170
 5704TIP3    H241308   7.400   1.236   2.180  1.0200  0.2219 -0.1867
 5705TIP3   OH241309   0.906   0.603   0.725 -0.0271 -0.1460  0.1225
 5705TIP3    H141310   0.999   0.628   0.721  0.1494 -0.8346 -0.2337
 5705TIP3    H241311   0.907   0.509   0.712 -0.7420 -0.2350  0.6929
 5706TIP3   OH241312   0.758   5.836   2.512  0.0453 -0.2345  0.4602
 5706TIP3    H141313   0.675   5.793   2.488  0.8820 -1.1391 -1.0062
 5706TIP3    H241314   0.746   5.927   2.485  0.0284 -0.6821 -1.1684
 5707TIP3   OH241315   2.506   3.885   0.892  0.0709  0.2955  0.0124
 5707TIP3    H141316   2.507   3.965   0.839 -1.0092  1.6846  1.9650
 5707TIP3    H241317   2.418   3.849   0.878 -0.3043  0.7947  0.9654
 5708TIP3   OH241318   0.946   7.501   1.902 -0.1919  0.1047  0.0745
 5708TIP3    H141319   0.875   7.530   1.959 -0.6929 -0.2625 -0.3573
 5708TIP3    H241320   1.025   7.540   1.940 -0.3882 -0.8957  1.5603
 5709TIP3   OH241321   6.976   0.297   0.550 -0.0364 -0.1261  0.2810
 5709TIP3    H141322   7.071   0.282   0.548  0.2427  1.5532 -0.4590
 5709TIP3    H241323   6.966   0.382   0.592 -1.1882 -0.0542 -0.1002
 5710TIP3   OH241324   4.739   7.201   3.112 -0.4473 -0.4886  0.0457
 5710TIP3    H141325   4.704   7.274   3.060 -1.8696 -0.5329  0.9125
 5710TIP3    H241326   4.680   7.193   3.186  1.0323 -1.0291  1.2193
 5711TIP3   OH241327   0.316   3.334   0.687  0.0003 -0.2162  0.2908
 5711TIP3    H141328   0.309   3.413   0.740  0.1518  0.4844 -0.7070
 5711TIP3    H241329   0.232   3.329   0.641  0.9599  0.9112 -1.7173
 5712TIP3   OH241330   0.446   4.745   1.599 -0.1593  0.6230 -0.3766
 5712TIP3    H141331   0.454   4.839   1.617 -0.1337  0.4054  0.8426
 5712TIP3    H241332   0.507   4.729   1.527 -0.8825  1.7055 -1.2533
 5713TIP3   OH241333   7.143   1.774   0.855  0.1820  0.0566 -0.0118
 5713TIP3    H141334   7.077   1.713   0.824 -0.7274  0.7713  0.4795
 5713TIP3    H241335   7.211   1.773   0.788 -0.8355  0.1269 -1.0657
 5714TIP3   OH241336   7.542   6.134   3.026 -0.1410 -0.8405  0.0211
 5714TIP3    H141337   7.531   6.051   3.073  0.9122  0.2244  2.2927
 5714TIP3    H241338   7.455   6.173   3.025 -0.8556 -2.2783 -1.8734
 5715TIP3   OH241339   5.926   2.494   2.480  0.3061  0.0040  0.4564
 5715TIP3    H141340   5.937   2.589   2.476  1.1396 -0.1203 -2.3466
 5715TIP3    H241341   6.012   2.460   2.504 -0.0275 -0.0844  1.6066
 5716TIP3   OH241342   5.018   1.432   1.390  0.3201  0.1420 -0.4691
 5716TIP3    H141343   4.971   1.396   1.315  0.1410 -0.4967 -0.0637
 5716TIP3    H241344   5.073   1.359   1.421 -0.9347 -0.1869  1.0946
 5717TIP3   OH241345   1.929   6.104   1.435 -0.0891  0.0741  0.2667
 5717TIP3    H141346   1.896   6.141   1.353 -0.3365  2.0073  1.1804
 5717TIP3    H241347   1.865   6.038   1.460 -0.6041  0.2674 -0.5269
 5718TIP3   OH241348   7.447   2.930   3.544 -0.0154  0.6949  0.1941
 5718TIP3    H141349   7.489   3.016   3.534 -1.2059  1.3468  0.6120
 5718TIP3    H241350   7.367   2.936   3.492 -1.1270  0.5712  1.7968
 5719TIP3   OH241351   1.521   0.007   1.329  0.7797 -0.3203 -0.2113
 5719TIP3    H141352   1.571   0.089   1.334  1.1885 -0.6262  0.9477
 5719TIP3    H241353   1.507  -0.006   1.235 -1.2475  2.2350 -0.4028
 5720TIP3   OH241354   4.782   2.125   1.731 -0.0145  0.1534  0.6601
 5720TIP3    H141355   4.747   2.138   1.643  0.3281 -0.1510  0.4755
 5720TIP3    H241356   4.758   2.205   1.779  0.3080  0.5751  0.1244
 5721TIP3   OH241357   3.226   2.918   0.960  0.0000 -0.9253 -0.1056
 5721TIP3    H141358   3.206   2.910   0.866  2.0222 -0.7973 -0.5872
 5721TIP3    H241359   3.301   2.976   0.964 -1.5978  1.1749  1.8358
 5722TIP3   OH241360   3.901   0.828   2.949  0.4621 -0.5168  0.0851
 5722TIP3    H141361   3.970   0.778   2.906 -0.0740  0.4160 -2.0085
 5722TIP3    H241362   3.834   0.763   2.971  1.0560 -1.1137  0.1392
 5723TIP3   OH241363   7.261   1.535   1.918  0.3657 -0.3099  0.4352
 5723TIP3    H141364   7.347   1.495   1.936 -0.1526 -1.2064  1.0406
 5723TIP3    H241365   7.238   1.503   1.831 -0.3364 -1.9406  1.1732
 5724TIP3   OH241366   0.484   4.030   0.566 -0.0623  0.8705 -0.6822
 5724TIP3    H141367   0.566   3.982   0.557 -0.5373 -0.6347  1.9409
 5724TIP3    H241368   0.417   3.965   0.543 -0.7373 -0.0847  3.2499
 5725TIP3   OH241369   6.847   7.097   1.996  0.2878  0.7037 -0.3339
 5725TIP3    H141370   6.823   7.094   2.089 -0.8825  0.0608 -0.6415
 5725TIP3    H241371   6.838   7.189   1.972 -0.7831  0.6584 -0.1491
 5726TIP3   OH241372   6.928   0.772   1.195 -0.4540 -0.3806 -0.1248
 5726TIP3    H141373   6.868   0.718   1.246 -0.3100 -0.1380  0.3002
 5726TIP3    H241374   7.009   0.772   1.245  0.2059 -1.4592 -1.1405
 5727TIP3   OH241375   6.894   5.560   1.379  0.7776 -0.1811 -0.1337
 5727TIP3    H141376   6.858   5.647   1.394  2.7876  0.7614 -0.4455
 5727TIP3    H241377   6.899   5.521   1.466  1.2948  0.6174  0.2035
 5728TIP3   OH241378   7.469   6.770   1.544 -0.3035  0.1173  0.2424
 5728TIP3    H141379   7.542   6.707   1.544  0.0128  0.4804 -0.2780
 5728TIP3    H241380   7.403   6.729   1.600 -0.0381 -0.6095  0.0388
 5729TIP3   OH241381   0.142   0.638   0.971  0.6650 -0.2367 -0.2233
 5729TIP3    H141382   0.221   0.624   0.919  1.7191  2.6075  0.4289
 5729TIP3    H241383   0.174   0.657   1.059 -0.7408  0.7087  0.1192
 5730TIP3   OH241384   4.579   4.291   1.489  0.0966  0.2931  0.1972
 5730TIP3    H141385   4.654   4.337   1.451  1.0384 -0.7670  0.7152
 5730TIP3    H241386   4.502   4.337   1.454  0.9813  2.0713  0.4734
 5731TIP3   OH241387   2.445   2.638   2.467  0.0779  0.3629  0.3647
 5731TIP3    H141388   2.388   2.561   2.463  0.9025 -0.2266 -0.5331
 5731TIP3    H241389   2.403   2.696   2.530 -0.4125 -0.9446  1.2895
 5732TIP3   OH241390   2.442   1.138   2.061  0.2219 -0.5519 -0.2485
 5732TIP3    H141391   2.534   1.159   2.079 -0.1314  1.6965 -0.7603
 5732TIP3    H241392   2.436   1.043   2.074  2.3090 -0.5681  1.0794
 5733TIP3   OH241393   0.924   6.211   1.272  0.2592  0.2057  0.8047
 5733TIP3    H141394   0.999   6.249   1.227  0.1024  1.2917  1.4075
 5733TIP3    H241395   0.860   6.194   1.202  1.1465 -0.9993  0.2556
 5734TIP3   OH241396   0.859   6.702   0.572  0.5967 -0.0252  0.2803
 5734TIP3    H141397   0.780   6.740   0.534  0.1226  0.2788  1.5067
 5734TIP3    H241398   0.834   6.613   0.598  0.7519 -0.0409  0.3805
 5735TIP3   OH241399   4.015   3.756   1.417  0.1426  0.2847  0.0586
 5735TIP3    H141400   3.934   3.708   1.432  0.5175  0.0726  1.6101
 5735TIP3    H241401   4.067   3.699   1.361 -0.8898  0.5853 -1.2738
 5736TIP3   OH241402   0.088   4.292   0.372  0.7885 -0.4077 -0.3391
 5736TIP3    H141403   0.084   4.232   0.446  0.5137 -0.1503 -0.1427
 5736TIP3    H241404   0.086   4.235   0.295  1.0546 -0.6748 -0.1501
 5737TIP3   OH241405   5.048   4.369   2.602 -0.0711 -0.1050 -0.4992
 5737TIP3    H141406   5.070   4.295   2.660  3.3200  1.7065  0.8419
 5737TIP3    H241407   5.026   4.440   2.662 -1.4061  0.5209 -1.6866
 5738TIP3   OH241408   3.391   6.618   1.273  0.3031  0.1053  0.1192
 5738TIP3    H141409   3.483   6.612   1.248  0.3065 -2.5893  0.5700
 5738TIP3    H241410   3.389   6.600   1.366 -0.6909  0.1243  0.1147
 5739TIP3   OH241411   6.970   3.545   1.674  0.3033  0.2873 -0.4747
 5739TIP3    H141412   7.041   3.599   1.638  0.1567  2.5215  2.2631
 5739TIP3    H241413   6.891   3.580   1.633  0.5737 -2.8604 -4.3176
 5740TIP3   OH241414   4.570   1.865   2.725 -0.2611 -0.2716  0.1972
 5740TIP3    H141415   4.498   1.849   2.786  1.9046  0.7727  3.3035
 5740TIP3    H241416   4.555   1.954   2.693 -1.3729 -0.7988 -0.8490
 5741TIP3   OH241417   4.846   3.820   1.643 -0.1266 -0.4335 -0.1741
 5741TIP3    H141418   4.877   3.818   1.552  0.8681 -0.8973  0.1683
 5741TIP3    H241419   4.812   3.909   1.654  0.7879 -0.0047 -0.6577
 5742TIP3   OH241420   3.464   4.506   2.366 -1.0385 -0.7847  0.0393
 5742TIP3    H141421   3.388   4.543   2.410 -0.3116 -0.6738  1.2693
 5742TIP3    H241422   3.529   4.576   2.368 -0.6393 -1.1429 -0.2553
 5743TIP3   OH241423   6.123   4.237   8.085 -0.0656 -0.2484 -1.0174
 5743TIP3    H141424   6.045   4.184   8.074 -2.0010  1.7524  1.5999
 5743TIP3    H241425   6.137   4.240   8.179  1.9343  1.1885 -1.2860
 5744TIP3   OH241426   0.634   6.174   1.212  0.8738 -0.0239  0.3877
 5744TIP3    H141427   0.554   6.140   1.172  2.1970 -2.0143 -0.7514
 5744TIP3    H241428   0.647   6.260   1.170 -0.3822  0.1107  0.2368
 5745TIP3   OH241429   2.092   7.613   1.595  0.5465 -0.4452 -0.0321
 5745TIP3    H141430   2.060   7.556   1.525  0.5611  0.3300 -0.6895
 5745TIP3    H241431   2.017   7.668   1.618  1.7640  3.0147 -3.1937
 5746TIP3   OH241432   6.129   0.303   1.178  0.2860  0.1224 -0.2648
 5746TIP3    H141433   6.099   0.312   1.269  2.0301 -0.3198  0.3938
 5746TIP3    H241434   6.084   0.226   1.145  1.1550 -0.9091  0.8947
 5747TIP3   OH241435   5.447   5.074   1.283 -0.1681 -0.4093  0.1502
 5747TIP3    H141436   5.378   5.104   1.342 -2.0573 -1.6666 -1.3294
 5747TIP3    H241437   5.414   5.091   1.195  1.0186 -1.8275 -0.6155
 5748TIP3   OH241438   2.960   0.515   2.452  0.2814 -0.0823 -0.2432
 5748TIP3    H141439   2.872   0.483   2.474  0.0008  0.7153 -0.1631
 5748TIP3    H241440   3.011   0.436   2.435 -0.5994 -0.5409 -0.8453
 5749TIP3   OH241441   1.856   2.201   2.617 -0.1721 -0.1020  0.2198
 5749TIP3    H141442   1.927   2.137   2.611 -0.3130 -0.4493  1.6631
 5749TIP3    H241443   1.782   2.151   2.651 -0.0738  0.9197  2.1023
 5750TIP3   OH241444   5.448   0.134   2.651  0.4761 -0.8746 -0.3288
 5750TIP3    H141445   5.390   0.062   2.678 -0.0377  0.4170  2.4167
 5750TIP3    H241446   5.495   0.157   2.731  1.6697  0.9023 -1.4929
 5751TIP3   OH241447   7.626   4.457   1.991 -0.1088 -0.4312  0.8350
 5751TIP3    H141448   7.674   4.422   2.066 -1.7785 -2.0407  1.2395
 5751TIP3    H241449   7.568   4.524   2.027  1.5089  1.2766  0.3969
 5752TIP3   OH241450   5.029   5.276   2.120  0.3520  0.3339  0.1177
 5752TIP3    H141451   5.113   5.314   2.094  0.7108  0.2209  1.0808
 5752TIP3    H241452   5.001   5.327   2.196  0.3002 -0.6023  0.7458
 5753TIP3   OH241453   7.514   6.388   0.994  0.3202  0.6477  0.3209
 5753TIP3    H141454   7.500   6.476   1.028  0.4101  0.3170  1.2594
 5753TIP3    H241455   7.442   6.336   1.030 -0.5558  0.6197 -1.3848
 5754TIP3   OH241456   6.857   4.159   2.411  0.9362 -0.1120  0.0002
 5754TIP3    H141457   6.888   4.112   2.488 -0.2584 -0.4904  0.2798
 5754TIP3    H241458   6.916   4.131   2.341  1.1736 -0.8674  0.4826
 5755TIP3   OH241459   6.394   2.355   2.205 -0.0825  0.3280 -0.2759
 5755TIP3    H141460   6.330   2.416   2.244 -2.2453 -1.6952 -0.4416
 5755TIP3    H241461   6.391   2.278   2.262  0.2939 -0.8048 -1.7406
 5756TIP3   OH241462   2.684   3.616   1.233 -0.3428  0.3330  0.1704
 5756TIP3    H141463   2.691   3.670   1.154 -1.9501 -1.1805 -1.0864
 5756TIP3    H241464   2.702   3.527   1.203 -0.7393 -0.2417  1.5629
 5757TIP3   OH241465   5.291   4.255   1.583  0.3409 -0.2669  0.7797
 5757TIP3    H141466   5.216   4.233   1.638  1.4378 -2.3271  1.5957
 5757TIP3    H241467   5.301   4.350   1.593 -1.4539 -0.1137  1.5314
 5758TIP3   OH241468   5.056   3.191   1.655 -0.3503  0.3167 -0.2230
 5758TIP3    H141469   5.128   3.242   1.619  1.2248 -1.0692  0.8209
 5758TIP3    H241470   5.047   3.220   1.745  2.0350 -2.5462  1.1012
 5759TIP3   OH241471   0.813   2.208   0.734  0.3461 -0.1244 -0.2117
 5759TIP3    H141472   0.877   2.275   0.712  0.1437  0.5030  1.0140
 5759TIP3    H241473   0.865   2.129   0.748  1.0173  0.6151  1.7854
 5760TIP3   OH241474   7.537   2.452   1.588  0.1332  0.3916 -0.1135
 5760TIP3    H141475   7.584   2.450   1.505  0.0863  1.5760 -0.1908
 5760TIP3    H241476   7.575   2.380   1.639  1.7808  1.0658 -0.3100
 5761TIP3   OH241477   1.023   6.365   0.843 -0.1991 -0.4217 -0.1151
 5761TIP3    H141478   1.077   6.311   0.785  0.4618  0.5648 -0.4355
 5761TIP3    H241479   0.997   6.305   0.913  2.2350 -0.6944  0.6536
 5762TIP3   OH241480   1.859   7.327   2.385  0.2701  0.1119 -0.0052
 5762TIP3    H141481   1.776   7.279   2.378  0.5543 -0.2406 -1.3562
 5762TIP3    H241482   1.919   7.265   2.425 -0.1909  0.4869  1.3073
 5763TIP3   OH241483   3.463   2.486   3.638  0.0538  0.1683 -0.0739
 5763TIP3    H141484   3.423   2.426   3.701 -0.1632 -0.7099 -1.0211
 5763TIP3    H241485   3.395   2.553   3.624  0.3658  0.7708  1.1195
 5764TIP3   OH241486   4.936   3.331   1.089  0.7874  0.3455  0.0324
 5764TIP3    H141487   4.986   3.308   1.011 -1.2982 -0.2828 -1.1910
 5764TIP3    H241488   4.986   3.294   1.161  2.0761 -0.2454 -1.1148
 5765TIP3   OH241489   6.933   2.354   2.474 -0.1529 -0.0332 -0.2608
 5765TIP3    H141490   6.994   2.285   2.448 -0.0176 -0.4953  1.1750
 5765TIP3    H241491   6.875   2.312   2.538 -0.5524  0.9790  0.0651
 5766TIP3   OH241492   5.229   4.665   2.745 -0.3337 -0.2722  0.0537
 5766TIP3    H141493   5.140   4.645   2.775 -0.1760  0.5431  1.1415
 5766TIP3    H241494   5.281   4.591   2.777  0.0247  1.0584  2.9557
 5767TIP3   OH241495   4.563   3.455   1.348 -0.5725  0.7564 -0.1845
 5767TIP3    H141496   4.644   3.496   1.378 -1.4977  2.0562  0.6468
 5767TIP3    H241497   4.552   3.378   1.404  1.0320 -0.5727 -1.5696
 5768TIP3   OH241498   2.997   1.831   2.225  0.0158  0.1690 -0.2703
 5768TIP3    H141499   3.012   1.893   2.296  3.5678  0.0680 -0.7917
 5768TIP3    H241500   2.917   1.862   2.183  0.0797  2.6592  1.2440
 5769TIP3   OH241501   0.366   1.423   3.248 -0.0811  0.4965  0.1422
 5769TIP3    H141502   0.344   1.347   3.303 -0.0523  0.0784 -0.4097
 5769TIP3    H241503   0.458   1.439   3.265  0.3627 -0.6725 -1.0021
 5770TIP3   OH241504   3.508   4.290   2.642  0.0682  0.6961  0.0004
 5770TIP3    H141505   3.441   4.232   2.679  0.6232 -1.6355 -2.3248
 5770TIP3    H241506   3.486   4.294   2.548  2.3173  1.0757 -0.5501
 5771TIP3   OH241507   2.505   1.809   0.906  0.2688 -0.1001 -0.5194
 5771TIP3    H141508   2.487   1.752   0.831 -1.3373  0.0062 -0.2565
 5771TIP3    H241509   2.545   1.750   0.971 -1.2428 -0.9380 -0.3045
 5772TIP3   OH241510   4.008   0.524   2.235  0.4914 -0.4497 -0.5015
 5772TIP3    H141511   4.063   0.474   2.174 -0.7986 -2.4928 -0.1052
 5772TIP3    H241512   3.990   0.606   2.190 -0.0537 -1.7083 -2.7075
 5773TIP3   OH241513   6.565   0.444   1.592  0.1308 -0.4504  0.0758
 5773TIP3    H141514   6.605   0.485   1.669 -0.8029  1.7300 -0.5426
 5773TIP3    H241515   6.595   0.496   1.518 -3.5104  1.1538 -0.4487
 5774TIP3   OH241516   7.136   6.559   0.870 -0.0932  0.0978  0.3935
 5774TIP3    H141517   7.189   6.628   0.910 -1.4720  0.8796  0.9477
 5774TIP3    H241518   7.066   6.542   0.934 -2.3474  1.3253 -1.5589
 5775TIP3   OH241519   0.960   5.485   0.572 -0.4320 -0.0449  0.2076
 5775TIP3    H141520   1.054   5.475   0.590  0.0640  0.6243 -1.7731
 5775TIP3    H241521   0.934   5.402   0.534 -0.4829  0.0015  0.1411
 5776TIP3   OH241522   7.610   4.404   0.896  0.3194  0.2843  0.8926
 5776TIP3    H141523   7.671   4.386   0.824 -0.5811 -1.5672  0.5654
 5776TIP3    H241524   7.644   4.354   0.970 -0.5717 -0.4388  0.8232
 5777TIP3   OH241525   7.367   3.541   2.078  0.2267 -0.1770  0.3897
 5777TIP3    H141526   7.428   3.498   2.138  0.6863 -0.2672 -0.1356
 5777TIP3    H241527   7.351   3.627   2.118  1.0268  0.0112  0.3189
 5778TIP3   OH241528   5.227   5.488   1.349  0.0589  0.2582  0.1277
 5778TIP3    H141529   5.142   5.496   1.305 -0.4458 -0.4489  0.9588
 5778TIP3    H241530   5.289   5.532   1.289 -0.4391 -1.4638 -1.7646
 5779TIP3   OH241531   5.979   0.628   0.890 -0.4717 -0.3948  0.2908
 5779TIP3    H141532   6.018   0.655   0.808 -2.4969 -1.7983 -1.2358
 5779TIP3    H241533   6.053   0.602   0.945  1.0609  2.3210 -0.3420
 5780TIP3   OH241534   7.027   0.267   2.861  0.3011  0.1929 -0.4155
 5780TIP3    H141535   7.066   0.257   2.947  0.2912  1.0322 -0.3052
 5780TIP3    H241536   7.014   0.361   2.851 -0.4188  0.0435 -1.0121
 5781TIP3   OH241537   5.149   0.311   0.876 -1.0084 -0.4198  0.0552
 5781TIP3    H141538   5.070   0.288   0.925 -0.7915 -0.0147  0.6011
 5781TIP3    H241539   5.179   0.393   0.915 -0.7753 -0.1402 -0.6935
 5782TIP3   OH241540   7.299   2.602   2.252 -0.1167  0.1421  0.5226
 5782TIP3    H141541   7.295   2.533   2.186 -1.4973  0.8948 -0.2255
 5782TIP3    H241542   7.381   2.585   2.299 -0.7646 -2.4334  0.8675
 5783TIP3   OH241543   1.374   5.523   3.071  0.1432  0.0129  0.1671
 5783TIP3    H141544   1.463   5.552   3.088  0.3149  0.1419 -0.8986
 5783TIP3    H241545   1.375   5.429   3.093  0.9346 -0.3194 -1.1752
 5784TIP3   OH241546   1.064   5.058   1.005 -0.3959 -0.3317 -0.5056
 5784TIP3    H141547   1.078   5.134   1.061  2.7279  0.4656 -2.1283
 5784TIP3    H241548   1.083   4.982   1.061 -2.5195  0.0436  0.8349
 5785TIP3   OH241549   6.758   0.438   2.130 -0.5050  0.0139 -0.7353
 5785TIP3    H141550   6.707   0.519   2.129 -1.1605 -0.3644  0.7200
 5785TIP3    H241551   6.828   0.454   2.193 -0.2448 -0.3275 -0.9325
 5786TIP3   OH241552   3.322   4.282   1.763 -0.8487 -0.2892 -0.1482
 5786TIP3    H141553   3.351   4.222   1.832 -2.1281  0.3178  0.9554
 5786TIP3    H241554   3.230   4.261   1.750 -1.3996  1.5633  0.4417
 5787TIP3   OH241555   3.591   7.537   1.631  0.4772  0.0889 -0.0822
 5787TIP3    H141556   3.639   7.619   1.615  0.3770  0.2419  0.3900
 5787TIP3    H241557   3.570   7.505   1.543 -0.6767  1.2895 -0.2886
 5788TIP3   OH241558   2.623   2.711   2.249  0.2095  0.5062  0.5800
 5788TIP3    H141559   2.583   2.713   2.336  1.7497  0.6295  1.3065
 5788TIP3    H241560   2.554   2.744   2.191 -1.0339 -0.1173  1.6532
 5789TIP3   OH241561   1.354   4.511   1.917 -0.7176  0.1144  0.6292
 5789TIP3    H141562   1.285   4.496   1.983 -0.3591 -1.2692  0.7250
 5789TIP3    H241563   1.435   4.489   1.963 -0.4108 -0.2881 -0.0926
 5790TIP3   OH241564   3.945   1.658   1.472 -0.2140  0.1441 -0.6020
 5790TIP3    H141565   4.013   1.637   1.536  0.1477 -1.4450 -1.4503
 5790TIP3    H241566   3.911   1.572   1.445 -1.5195  0.8615 -1.2982
 5791TIP3   OH241567   7.460   1.060   1.363  0.5385  0.3029  0.6071
 5791TIP3    H141568   7.410   0.981   1.345 -0.8309  0.7208  2.3308
 5791TIP3    H241569   7.449   1.114   1.285 -2.1713  0.6038  1.1312
 5792TIP3   OH241570   7.558   6.691   1.271  0.3097 -0.1496  0.9804
 5792TIP3    H141571   7.587   6.650   1.353  2.0608  0.8504  0.9173
 5792TIP3    H241572   7.471   6.724   1.291 -1.2610 -3.8669  0.9838
 5793TIP3   OH241573   2.860   4.342   0.985  0.5586 -0.0331 -0.0356
 5793TIP3    H141574   2.852   4.425   0.938  0.7300  0.5560  0.9270
 5793TIP3    H241575   2.769   4.312   0.996  0.5234 -0.2231 -0.8019
 5794TIP3   OH241576   7.557   5.018   2.637  0.4656 -0.0616 -0.1076
 5794TIP3    H141577   7.464   5.003   2.617  0.5108  1.0421 -1.2714
 5794TIP3    H241578   7.582   5.092   2.582  2.1345 -0.5471 -0.0729
 5795TIP3   OH241579   7.542   2.328   0.898  0.1368 -0.0273 -0.6170
 5795TIP3    H141580   7.628   2.359   0.927  0.5575 -1.7489  0.1202
 5795TIP3    H241581   7.560   2.243   0.857 -1.1933 -0.3217 -0.6366
 5796TIP3   OH241582   2.303   0.831   2.035  0.3820 -0.0341 -0.5394
 5796TIP3    H141583   2.252   0.826   1.954  0.4641 -2.6065 -0.5218
 5796TIP3    H241584   2.236   0.840   2.104 -0.0274 -2.0261 -0.6223
 5797TIP3   OH241585   2.136   4.262   1.535 -0.1262  0.5976 -0.3217
 5797TIP3    H141586   2.050   4.302   1.545 -0.4900 -0.0088 -0.9052
 5797TIP3    H241587   2.198   4.333   1.550 -0.7587  1.9068 -3.2561
 5798TIP3   OH241588   0.817   2.226   1.541 -0.0804 -0.1209  0.1907
 5798TIP3    H141589   0.910   2.212   1.522  0.2355  0.0270  1.5439
 5798TIP3    H241590   0.771   2.184   1.468  1.0284 -0.7554 -0.1627
 5799TIP3   OH241591   2.336   1.655   1.911 -0.1892 -0.0228  0.5710
 5799TIP3    H141592   2.397   1.582   1.923  1.5039  1.1485 -0.4168
 5799TIP3    H241593   2.307   1.647   1.821 -0.8915 -0.0957  0.7959
 5800TIP3   OH241594   2.903   2.496   2.960 -0.3949 -0.2967  0.1327
 5800TIP3    H141595   2.966   2.535   3.021  0.4259 -0.0515 -0.8391
 5800TIP3    H241596   2.910   2.549   2.881 -3.5302  1.2048  0.7210
 5801TIP3   OH241597   1.800   3.586   2.243 -0.2496 -0.2816 -0.4023
 5801TIP3    H141598   1.776   3.505   2.198 -0.0789  0.0578 -1.1229
 5801TIP3    H241599   1.725   3.644   2.229  0.4069  0.3412 -1.5666
 5802TIP3   OH241600   5.981   6.344   1.171 -0.1682 -0.4201 -0.6965
 5802TIP3    H141601   6.047   6.363   1.105 -0.2671  1.2233 -0.3810
 5802TIP3    H241602   5.898   6.371   1.131 -0.2700  0.2461 -0.0626
 5803TIP3   OH241603   5.823   2.993   1.521  0.2857 -0.1789  0.3442
 5803TIP3    H141604   5.857   2.949   1.443  0.4015 -0.4363  0.5349
 5803TIP3    H241605   5.901   3.007   1.576  0.7208  2.7885 -0.8968
 5804TIP3   OH241606   6.767   3.536   2.372 -0.1290 -0.2631  0.4303
 5804TIP3    H141607   6.833   3.529   2.441  0.3109 -0.0675  0.0368
 5804TIP3    H241608   6.693   3.580   2.414 -0.0973 -0.6824  0.9368
 5805TIP3   OH241609   2.577   1.471   2.603  0.7772 -0.2703  0.6848
 5805TIP3    H141610   2.596   1.377   2.591  0.4850 -0.3930  1.1789
 5805TIP3    H241611   2.495   1.473   2.651 -0.0099  0.2617 -0.6130
 5806TIP3   OH241612   6.438   4.496   1.204  0.0654  0.2011 -0.1006
 5806TIP3    H141613   6.484   4.432   1.258  2.5377  0.8410 -1.3370
 5806TIP3    H241614   6.479   4.489   1.118 -2.0454  0.9831 -1.2436
 5807TIP3   OH241615   2.420   6.326   0.780 -0.2905 -0.5444 -0.2171
 5807TIP3    H141616   2.353   6.382   0.817 -0.3379  0.0379 -1.1623
 5807TIP3    H241617   2.391   6.237   0.801  0.1294 -0.2437  1.8759
 5808TIP3   OH241618   0.358   7.600   1.516  0.5257 -0.5216 -0.1937
 5808TIP3    H141619   0.429   7.583   1.453  0.5486 -0.7533 -0.1025
 5808TIP3    H241620   0.303   7.665   1.471  0.0905 -1.2906 -0.7992
 5809TIP3   OH241621   1.849   7.326   3.541 -0.2775  0.3359 -0.0638
 5809TIP3    H141622   1.873   7.417   3.559 -0.7604  0.1475  1.7272
 5809TIP3    H241623   1.772   7.332   3.484 -0.8129  1.0893  0.7055
 5810TIP3   OH241624   4.947   5.996   1.355 -0.6977  0.4357 -0.0632
 5810TIP3    H141625   4.899   5.939   1.295 -0.0791 -0.5618  0.3655
 5810TIP3    H241626   5.031   6.011   1.313 -1.2767  2.0604 -0.7418
 5811TIP3   OH241627   3.122   4.882   1.963  0.2677  0.1425  0.1009
 5811TIP3    H141628   3.028   4.886   1.947  0.0545  1.6172  1.5168
 5811TIP3    H241629   3.156   4.830   1.890 -1.6966 -0.9768 -0.0929
 5812TIP3   OH241630   1.485   5.381   2.326  0.6401  0.3329 -0.0805
 5812TIP3    H141631   1.502   5.304   2.381  0.1837 -0.1781 -0.6450
 5812TIP3    H241632   1.410   5.356   2.273 -0.0136  1.4565  0.2772
 5813TIP3   OH241633   4.171   0.015   2.180 -0.3828 -0.0048 -0.0335
 5813TIP3    H141634   4.083   0.054   2.180 -0.4512 -0.1164  1.2884
 5813TIP3    H241635   4.164  -0.061   2.122 -1.2100 -0.1215  0.2061
 5814TIP3   OH241636   0.622   6.669   2.647  0.4023  0.1876 -0.8309
 5814TIP3    H141637   0.629   6.748   2.593 -0.5059 -1.0679 -2.9309
 5814TIP3    H241638   0.531   6.668   2.677 -0.1735 -1.0129 -2.4820
 5815TIP3   OH241639   3.221   3.668   3.024 -0.8024  0.4616  0.3554
 5815TIP3    H141640   3.240   3.762   3.015  1.8095 -0.0082  0.2143
 5815TIP3    H241641   3.305   3.625   3.006 -1.5716 -1.8436  1.8447
 5816TIP3   OH241642   5.381   6.717   1.797 -0.0664 -0.3566 -0.1317
 5816TIP3    H141643   5.304   6.760   1.760 -0.0007 -0.1687 -0.0523
 5816TIP3    H241644   5.363   6.623   1.788  1.0965 -0.3968 -3.0952
 5817TIP3   OH241645   1.409   3.560   1.052  0.0210 -0.6599  0.1247
 5817TIP3    H141646   1.494   3.544   1.010  1.0046 -2.0669  2.4277
 5817TIP3    H241647   1.384   3.475   1.088 -1.9999 -0.0839  0.1724
 5818TIP3   OH241648   2.747   6.441   1.403  0.3133  0.2528 -0.1248
 5818TIP3    H141649   2.793   6.389   1.468 -0.6475  0.0975  0.4485
 5818TIP3    H241650   2.725   6.380   1.333 -0.3128 -0.0028  0.2859
 5819TIP3   OH241651   0.872   6.746   2.742  0.0175  0.8092  0.2362
 5819TIP3    H141652   0.923   6.741   2.662  1.1497 -3.1860  1.0014
 5819TIP3    H241653   0.792   6.698   2.723  0.2859 -0.1568  1.4397
 5820TIP3   OH241654   5.841   5.212   2.191  0.2510 -0.2606 -0.2689
 5820TIP3    H141655   5.836   5.307   2.194  2.8932 -0.0401  2.3227
 5820TIP3    H241656   5.844   5.185   2.283  0.9854 -2.7286 -0.9215
 5821TIP3   OH241657   0.369   7.347   1.415  0.3009  0.1599 -0.6791
 5821TIP3    H141658   0.318   7.415   1.460  1.7583  0.7628  0.1447
 5821TIP3    H241659   0.409   7.297   1.486  1.0373 -0.1469 -1.2957
 5822TIP3   OH241660   5.541   7.444   2.860 -0.1922 -0.2721 -0.3373
 5822TIP3    H141661   5.605   7.442   2.789 -0.0194 -0.1407 -0.1830
 5822TIP3    H241662   5.502   7.356   2.859 -0.0977 -0.3126 -0.5094
 5823TIP3   OH241663   0.081   7.668   0.945  0.0672  0.2779  0.3249
 5823TIP3    H141664   0.156   7.615   0.972  0.0647 -0.5204 -1.1665
 5823TIP3    H241665   0.016   7.653   1.013  1.5441  1.7720  2.2020
 5824TIP3   OH241666   2.112   5.788   2.697  0.3452 -0.8726  0.3722
 5824TIP3    H141667   2.089   5.804   2.788 -0.6523 -1.5091  0.2391
 5824TIP3    H241668   2.059   5.713   2.670  1.5351 -1.5032 -0.3698
 5825TIP3   OH241669   2.351   5.661   0.869 -0.4858  0.2295 -0.1049
 5825TIP3    H141670   2.305   5.736   0.904  1.5396  0.4123  2.4601
 5825TIP3    H241671   2.425   5.698   0.820  0.5102 -0.0359  1.1519
 5826TIP3   OH241672   0.982   3.394   0.750  0.6277 -0.3842 -0.3040
 5826TIP3    H141673   0.937   3.395   0.834 -1.3824  1.4012 -1.2830
 5826TIP3    H241674   1.029   3.478   0.747  1.3962 -0.8152 -0.6219
 5827TIP3   OH241675   6.887   2.028   2.222  0.2984  0.2934 -0.8343
 5827TIP3    H141676   6.936   2.041   2.304 -2.5807  0.2041  1.0397
 5827TIP3    H241677   6.898   1.935   2.202  0.1531  0.0762  0.0659
 5828TIP3   OH241678   6.083   6.400   2.778 -0.6002 -0.0516  0.3785
 5828TIP3    H141679   6.097   6.443   2.863  1.2017 -1.6957  1.0018
 5828TIP3    H241680   6.136   6.451   2.717 -0.8314  0.3559  0.5158
 5829TIP3   OH241681   0.841   7.596   1.296 -0.3457  0.3977  0.0516
 5829TIP3    H141682   0.816   7.674   1.247 -1.4745  0.0893  0.1100
 5829TIP3    H241683   0.849   7.626   1.387 -1.0074  0.4067  0.1109
 5830TIP3   OH241684   6.033   6.609   1.491  0.7738 -0.7076  0.5875
 5830TIP3    H141685   6.034   6.652   1.405  0.0694 -0.2227  0.8148
 5830TIP3    H241686   5.985   6.669   1.548  0.8604 -1.2239  1.2185
 5831TIP3   OH241687   6.382   5.035   1.987  0.6741  0.0315 -0.0189
 5831TIP3    H141688   6.408   4.971   2.053 -0.3219 -1.5232 -1.0782
 5831TIP3    H241689   6.286   5.031   1.986  0.5649  1.8749  0.1833
 5832TIP3   OH241690   4.732   4.097   2.319 -0.1365  0.5145  0.2859
 5832TIP3    H141691   4.716   4.146   2.238  0.0316 -0.0074 -0.0684
 5832TIP3    H241692   4.815   4.131   2.352 -0.1516  0.6539  0.1795
 5833TIP3   OH241693   1.821   3.334   2.142  0.3504 -0.5125 -0.1363
 5833TIP3    H141694   1.774   3.318   2.060 -0.3948 -0.4447  0.2674
 5833TIP3    H241695   1.907   3.293   2.129 -0.1130 -1.3660 -0.5792
 5834TIP3   OH241696   5.946   4.682   2.338  0.1567 -0.8315  0.5625
 5834TIP3    H141697   5.858   4.711   2.314  1.5009  3.6431  0.0787
 5834TIP3    H241698   5.980   4.641   2.258 -0.5560  0.0527 -0.2317
 5835TIP3   OH241699   1.009   7.660   2.502 -0.6059  0.1227 -0.1737
 5835TIP3    H141700   1.091   7.697   2.536 -1.2928  1.9473 -0.3688
 5835TIP3    H241701   0.992   7.583   2.556  0.7753  0.2277  0.4472
 5836TIP3   OH241702   1.295   7.148   1.504  0.0551 -0.1664  0.2170
 5836TIP3    H141703   1.233   7.198   1.450 -2.5951 -2.1472  1.1924
 5836TIP3    H241704   1.261   7.157   1.593  0.4221 -2.3543  0.6202
 5837TIP3   OH241705   1.027   3.528   2.644 -0.5728 -0.4536 -0.0982
 5837TIP3    H141706   1.101   3.585   2.664 -0.0550 -1.0514 -0.2791
 5837TIP3    H241707   0.951   3.586   2.645 -0.2755 -0.0475  1.3494
 5838TIP3   OH241708   7.101   7.505   1.516 -0.0162 -0.5189 -0.2116
 5838TIP3    H141709   7.019   7.502   1.564  0.8263  1.4617  1.4650
 5838TIP3    H241710   7.150   7.429   1.546 -0.4930 -0.6722  0.1748
 5839TIP3   OH241711   5.911   2.430   1.161 -0.2099  0.1521  0.1579
 5839TIP3    H141712   5.935   2.479   1.240 -0.4495  1.1437 -0.3759
 5839TIP3    H241713   5.861   2.492   1.109  1.3241  0.0357 -1.5413
 5840TIP3   OH241714   5.687   0.831   1.927 -0.3031  0.5752  0.3620
 5840TIP3    H141715   5.725   0.778   1.997 -0.1897  1.1812  0.7668
 5840TIP3    H241716   5.635   0.769   1.876 -1.6533  0.3882  1.8851
 5841TIP3   OH241717   0.213   5.069   1.798  0.3598  0.6973  0.1751
 5841TIP3    H141718   0.168   4.992   1.834 -0.0760  0.5157 -0.7391
 5841TIP3    H241719   0.298   5.069   1.842  0.1890 -0.0324  0.5362
 5842TIP3   OH241720   6.026   4.710   1.276 -0.1488 -0.3061  0.4154
 5842TIP3    H141721   6.086   4.759   1.219 -1.0020 -1.5859 -1.6959
 5842TIP3    H241722   5.948   4.695   1.222 -0.6387 -2.3963  1.5810
 5843TIP3   OH241723   2.714   1.592   2.896  0.0045 -0.0336 -0.1819
 5843TIP3    H141724   2.710   1.625   2.806 -0.9261  0.6510  0.0938
 5843TIP3    H241725   2.629   1.550   2.910  0.5364 -1.0680  0.0435
 5844TIP3   OH241726   4.313   0.348   2.576 -0.5156  0.1864  1.0278
 5844TIP3    H141727   4.282   0.261   2.550  1.3354 -0.6283  1.4265
 5844TIP3    H241728   4.251   0.408   2.534  0.3737 -1.1342 -2.5879
 5845TIP3   OH241729   3.272   1.060   1.837 -0.4505 -0.0151  0.0217
 5845TIP3    H141730   3.281   1.155   1.829 -0.2947  0.1152  1.4187
 5845TIP3    H241731   3.232   1.047   1.923  0.9269 -1.2672  0.5124
 5846TIP3   OH241732   0.024   0.226   2.611 -0.4238 -0.1515 -0.2994
 5846TIP3    H141733   0.064   0.151   2.655 -1.5081 -1.4889 -1.4907
 5846TIP3    H241734   0.036   0.299   2.671  0.0623 -1.4233  1.2020
 5847TIP3   OH241735   1.463   1.316   2.218 -0.3397  0.2845 -0.3307
 5847TIP3    H141736   1.424   1.358   2.295  0.4061 -1.9807  1.3919
 5847TIP3    H241737   1.401   1.247   2.194 -0.0322  0.2592 -1.0833
 5848TIP3   OH241738   7.362   3.829   2.641 -0.0660  0.0570  0.4761
 5848TIP3    H141739   7.392   3.833   2.551  0.7839  0.8848  0.7810
 5848TIP3    H241740   7.291   3.765   2.640  0.0707 -0.0931 -0.7321
 5849TIP3   OH241741   2.480   6.339   1.725 -0.1904  0.4796  0.0505
 5849TIP3    H141742   2.406   6.293   1.765  0.1771  0.4905  0.7655
 5849TIP3    H241743   2.446   6.373   1.643 -1.3809  1.6665  0.9951
 5850TIP3   OH241744   6.884   3.292   0.719 -0.2754 -0.6807  0.6072
 5850TIP3    H141745   6.802   3.286   0.768 -2.2569  1.4320 -2.1673
 5850TIP3    H241746   6.860   3.331   0.635  3.4657 -0.8029 -0.7264
 5851TIP3   OH241747   1.629   0.722   8.471  0.1128  0.3790 -0.2608
 5851TIP3    H141748   1.680   0.668   8.532 -0.2683  0.7302  0.3845
 5851TIP3    H241749   1.678   0.719   8.389  0.1985 -0.7897 -0.1806
 5852TIP3   OH241750   6.513   0.570   0.553  0.2475  0.2553 -0.1403
 5852TIP3    H141751   6.580   0.571   0.484 -0.4238  0.2239 -0.8043
 5852TIP3    H241752   6.527   0.652   0.600  3.1813 -1.3563  2.1458
 5853TIP3   OH241753   2.476   0.723   1.632  0.0734 -0.2271  0.1085
 5853TIP3    H141754   2.384   0.725   1.658 -0.4389  0.4230 -1.6320
 5853TIP3    H241755   2.496   0.631   1.620 -0.5870 -0.3184 -0.2904
 5854TIP3   OH241756   0.225   1.957   1.094  0.4837  0.5416  0.3980
 5854TIP3    H141757   0.216   1.991   1.005  0.3187  1.9985  0.9457
 5854TIP3    H241758   0.313   1.919   1.096  0.6828  0.9494 -0.2422
 5855TIP3   OH241759   1.929   6.193   2.446 -0.1020 -0.0079  0.1691
 5855TIP3    H141760   1.934   6.241   2.363  0.4553 -0.4544 -0.0579
 5855TIP3    H241761   1.992   6.122   2.437 -1.0290 -0.8880  0.4516
 5856TIP3   OH241762   6.916   3.681   1.907  0.4587  0.2394  0.0617
 5856TIP3    H141763   6.906   3.588   1.885  2.0762 -0.5932  2.3878
 5856TIP3    H241764   6.834   3.721   1.879 -1.3851 -2.3748  1.2487
 5857TIP3   OH241765   6.585   5.639   1.846  0.5353  0.3452 -0.1612
 5857TIP3    H141766   6.658   5.577   1.842  0.0197 -0.3567  0.6244
 5857TIP3    H241767   6.539   5.615   1.927 -0.2411  1.1299 -0.3563
 5858TIP3   OH241768   6.947   4.482   2.570  0.0848  0.9087  0.1865
 5858TIP3    H141769   7.014   4.540   2.534  0.7802  1.2762  1.9364
 5858TIP3    H241770   6.980   4.459   2.657 -1.8904  0.7895  0.9555
 5859TIP3   OH241771   4.239   6.951   2.526 -0.2757  0.1047  0.2245
 5859TIP3    H141772   4.257   7.020   2.590  0.1450 -0.6631  0.9447
 5859TIP3    H241773   4.225   6.998   2.444  0.8193  1.0070  0.5305
 5860TIP3   OH241774   0.227   7.359   2.668 -0.6460  0.2282 -0.7383
 5860TIP3    H141775   0.141   7.376   2.706 -0.9500 -0.7599 -0.9614
 5860TIP3    H241776   0.286   7.418   2.716 -1.1420 -0.4324  0.7392
 5861TIP3   OH241777   4.753   5.210   2.373 -0.2607  0.1366 -0.0798
 5861TIP3    H141778   4.677   5.268   2.362 -0.7531 -0.8252 -2.2970
 5861TIP3    H241779   4.828   5.268   2.358 -0.3991  1.2831  2.9365
 5862TIP3   OH241780   6.347   6.522   1.152 -0.3038  0.5058 -0.3139
 5862TIP3    H141781   6.320   6.606   1.190 -0.3075  0.7714 -0.8927
 5862TIP3    H241782   6.397   6.545   1.074  1.4622  0.0093  0.6283
 5863TIP3   OH241783   7.123   1.755   2.948  0.1083  0.0792  0.2351
 5863TIP3    H141784   7.102   1.703   3.025 -1.3884  0.8701  0.4068
 5863TIP3    H241785   7.192   1.706   2.904  2.1741  0.3799  2.8745
 5864TIP3   OH241786   4.430   0.086   0.728 -0.2556 -0.2454  0.2930
 5864TIP3    H141787   4.519   0.114   0.703  0.1944 -1.0043  0.9966
 5864TIP3    H241788   4.372   0.136   0.670  0.6841 -0.7052 -1.1069
 5865TIP3   OH241789   0.663   6.537   3.019  0.4957 -0.1388 -0.2505
 5865TIP3    H141790   0.724   6.588   2.966  1.2749 -0.2819  0.4678
 5865TIP3    H241791   0.579   6.582   3.011  0.9852  0.7937 -0.2783
 5866TIP3   OH241792   5.382   7.157   2.348 -0.3608 -0.0919  0.0192
 5866TIP3    H141793   5.417   7.224   2.289  1.9623 -0.4654  0.8560
 5866TIP3    H241794   5.300   7.194   2.380 -0.3484  1.2663 -1.3797
 5867TIP3   OH241795   5.936   4.204   0.806  0.0534  0.1352  0.5248
 5867TIP3    H141796   6.002   4.255   0.760  0.6578 -0.5604  0.5946
 5867TIP3    H241797   5.978   4.178   0.888  1.1743 -3.4728 -0.9745
 5868TIP3   OH241798   1.357   3.094   2.509 -0.0196  0.1127 -0.1239
 5868TIP3    H141799   1.411   3.057   2.578  1.0698 -0.8635 -1.4512
 5868TIP3    H241800   1.281   3.131   2.555  1.3084  0.7114  1.7015
 5869TIP3   OH241801   2.140   1.484   0.759  0.4192  0.4674  0.2309
 5869TIP3    H141802   2.087   1.544   0.811 -1.4629 -0.0257 -1.0111
 5869TIP3    H241803   2.077   1.425   0.717  2.0514 -1.1064 -0.1920
 5870TIP3   OH241804   4.553   5.608   1.072 -0.4390  0.0080  0.5031
 5870TIP3    H141805   4.568   5.652   0.989  1.0145 -1.4122 -0.0406
 5870TIP3    H241806   4.600   5.663   1.136 -1.5617  1.1040  0.4212
 5871TIP3   OH241807   7.355   5.092   0.566 -0.2706  0.0882  0.1391
 5871TIP3    H141808   7.391   5.031   0.630 -0.1420 -1.1867 -1.0779
 5871TIP3    H241809   7.283   5.043   0.525 -0.4065  0.8948 -0.6122
 5872TIP3   OH241810   1.456   7.645   1.598 -0.3878 -0.2790  0.2518
 5872TIP3    H141811   1.462   7.641   1.502 -0.9964  0.9032  0.1406
 5872TIP3    H241812   1.400   7.571   1.622  0.1652 -0.8702 -0.2621
 5873TIP3   OH241813   5.450   1.798   1.018 -0.3541  0.1714 -0.5492
 5873TIP3    H141814   5.357   1.809   0.996 -0.2865 -0.2437 -1.0515
 5873TIP3    H241815   5.493   1.873   0.978 -0.5094  0.5181 -0.0725
 5874TIP3   OH241816   1.764   1.949   1.963  0.5838 -0.8764  0.2579
 5874TIP3    H141817   1.857   1.937   1.980  0.5420 -1.0635  0.3650
 5874TIP3    H241818   1.733   1.861   1.941  0.7324 -0.5770 -1.2752
 5875TIP3   OH241819   1.584   6.844   2.025  0.3608 -0.0192 -0.6843
 5875TIP3    H141820   1.513   6.898   1.990 -0.2257  0.1912  0.7576
 5875TIP3    H241821   1.542   6.791   2.093  1.6999  0.6303  0.7045
 5876TIP3   OH241822   7.446   5.039   2.271 -0.5247 -0.3470  0.3557
 5876TIP3    H141823   7.503   5.112   2.248  0.3744 -0.3222  2.4258
 5876TIP3    H241824   7.359   5.067   2.243  0.1554  0.4150 -1.1499
 5877TIP3   OH241825   0.323   3.590   1.147 -0.9149  0.2388 -0.5816
 5877TIP3    H141826   0.277   3.662   1.191  1.3753  2.0725 -0.9603
 5877TIP3    H241827   0.341   3.624   1.059  1.3660 -0.2237 -0.3510
 5878TIP3   OH241828   7.541   3.905   2.010  0.3151  1.1487  0.4666
 5878TIP3    H141829   7.447   3.899   2.024 -0.2411 -0.5767 -2.8369
 5878TIP3    H241830   7.580   3.873   2.091 -2.0541 -1.3007  0.7646
 5879TIP3   OH241831   3.927   1.496   1.129  0.0941 -0.2289 -0.3833
 5879TIP3    H141832   3.883   1.581   1.139  0.1795 -0.2078 -0.1983
 5879TIP3    H241833   3.960   1.497   1.039 -0.9403 -0.5500 -0.7904
 5880TIP3   OH241834   1.615   3.999   2.255  1.2173 -0.1933  0.0236
 5880TIP3    H141835   1.688   4.004   2.318  1.1289  3.5902  0.0713
 5880TIP3    H241836   1.652   4.031   2.173  0.1357 -0.2752 -0.5116
 5881TIP3   OH241837   5.635   2.537   1.560 -0.4213 -0.0372 -0.3455
 5881TIP3    H141838   5.567   2.485   1.518  0.5570 -1.3603 -0.3541
 5881TIP3    H241839   5.666   2.597   1.492  1.1881 -2.1897 -1.6115
 5882TIP3   OH241840   6.133   5.778   1.679 -0.1548  0.0599  0.5353
 5882TIP3    H141841   6.094   5.855   1.721 -0.5168  0.4146 -0.4179
 5882TIP3    H241842   6.156   5.720   1.751  1.6271  1.7429  1.4199
 5883TIP3   OH241843   5.450   3.938   2.256  0.5110 -0.4016  0.0933
 5883TIP3    H141844   5.458   3.844   2.243  0.1153 -0.4913  0.4905
 5883TIP3    H241845   5.524   3.975   2.208 -0.0756 -0.8194 -1.1758
 5884TIP3   OH241846   3.666   0.752   1.170 -0.1935 -0.1167  0.2361
 5884TIP3    H141847   3.643   0.755   1.078  0.8724  0.6393 -0.0270
 5884TIP3    H241848   3.660   0.843   1.200  0.3834 -0.2111  0.6658
 5885TIP3   OH241849   5.890   5.148   2.488 -0.2512  0.3742 -0.4004
 5885TIP3    H141850   5.840   5.228   2.506  0.0804  1.5401 -3.8960
 5885TIP3    H241851   5.981   5.175   2.491 -0.0169 -0.4692  0.6315
 5886TIP3   OH241852   6.357   3.861   0.645 -0.0456  0.0953  0.1171
 5886TIP3    H141853   6.274   3.854   0.694 -0.4586  0.8460 -0.4500
 5886TIP3    H241854   6.349   3.797   0.575 -0.3199  0.4494 -0.1771
 5887TIP3   OH241855   6.598   3.271   2.444 -0.2216  0.5042  0.0238
 5887TIP3    H141856   6.553   3.347   2.481 -0.0254  1.4695 -1.5976
 5887TIP3    H241857   6.655   3.239   2.514 -0.0681  2.0519  0.6273
 5888TIP3   OH241858   3.372   2.917   2.010  0.3359  0.5218  0.6432
 5888TIP3    H141859   3.285   2.909   2.048  0.5240  0.9550  1.1852
 5888TIP3    H241860   3.366   2.874   1.925 -0.0699 -0.5404  1.2010
 5889TIP3   OH241861   1.706   3.529   3.276  0.2431  0.2929 -0.1343
 5889TIP3    H141862   1.752   3.495   3.200 -0.5804  1.6697 -1.2900
 5889TIP3    H241863   1.631   3.576   3.240  0.1638  1.5025  1.5022
 5890TIP3   OH241864   5.480   3.001   1.134  0.1395 -0.2445  0.5892
 5890TIP3    H141865   5.534   3.067   1.178 -0.2733 -0.4955  1.4748
 5890TIP3    H241866   5.449   3.045   1.055 -0.9405  0.9658  1.6514
 5891TIP3   OH241867   7.273   3.939   1.288  0.5027 -0.2529 -0.7230
 5891TIP3    H141868   7.338   3.997   1.326 -1.2098  2.0355 -1.0450
 5891TIP3    H241869   7.313   3.907   1.207  1.3602  0.8200 -0.7424
 5892TIP3   OH241870   2.172   2.130   0.648  0.4014 -0.0413  0.2191
 5892TIP3    H141871   2.089   2.098   0.683  0.2383 -0.2739 -0.3722
 5892TIP3    H241872   2.204   2.060   0.591  1.0164  0.0366  0.4593
 5893TIP3   OH241873   3.101   3.282   2.268  0.5983  0.2640 -1.1823
 5893TIP3    H141874   3.019   3.323   2.296  0.0479  0.0527 -2.4384
 5893TIP3    H241875   3.102   3.292   2.173  1.1236 -1.3880 -1.3790
 5894TIP3   OH241876   3.125   4.791   1.037  0.1969  0.1379  0.1134
 5894TIP3    H141877   3.190   4.772   0.969 -0.4893 -0.5710 -0.3600
 5894TIP3    H241878   3.098   4.704   1.068  0.3568  0.4547  1.1535
 5895TIP3   OH241879   0.097   3.701   2.089 -0.2684  0.5566 -0.3422
 5895TIP3    H141880   0.089   3.722   1.995 -0.7294 -1.0272 -0.6826
 5895TIP3    H241881   0.185   3.665   2.098 -0.8700 -1.0248 -0.5489
 5896TIP3   OH241882   1.595   5.222   3.699 -0.4149 -0.1755  0.1859
 5896TIP3    H141883   1.520   5.162   3.703  0.8924 -1.8091  1.3585
 5896TIP3    H241884   1.671   5.168   3.722  0.7289  2.1040  2.2212
 5897TIP3   OH241885   0.459   5.409   2.548  0.0166 -0.2580  0.3508
 5897TIP3    H141886   0.407   5.425   2.627  0.3258 -2.2945  1.0298
 5897TIP3    H241887   0.548   5.393   2.580  0.1095 -1.3078 -0.3852
 5898TIP3   OH241888   6.651   1.354   1.189  0.0442 -0.6892 -0.4917
 5898TIP3    H141889   6.677   1.432   1.238 -2.5413 -0.4448  0.6509
 5898TIP3    H241890   6.722   1.291   1.204  2.1217  1.3112 -1.3166
 5899TIP3   OH241891   2.272   6.414   3.555 -0.3143 -0.0407  0.3747
 5899TIP3    H141892   2.213   6.338   3.548  0.0721 -0.2413 -0.9020
 5899TIP3    H241893   2.356   6.377   3.581 -0.4677  0.1196  1.1141
 5900TIP3   OH241894   0.210   5.574   2.479  0.3757  0.3914 -0.1898
 5900TIP3    H141895   0.139   5.580   2.542  1.3736  2.6877  0.8408
 5900TIP3    H241896   0.279   5.525   2.524 -0.3869 -1.6495 -1.1119
 5901TIP3   OH241897   1.510   1.425   1.055 -0.1200  0.0067  0.4108
 5901TIP3    H141898   1.417   1.436   1.076 -0.2780  0.3211 -0.4069
 5901TIP3    H241899   1.511   1.414   0.960  0.5997 -0.9415  0.5237
 5902TIP3   OH241900   5.018   1.319   1.669  0.4583 -0.4390  0.2245
 5902TIP3    H141901   5.062   1.318   1.584  1.5538 -1.7918  0.7513
 5902TIP3    H241902   4.944   1.377   1.658  1.5553  0.7643 -1.1549
 5903TIP3   OH241903   2.487   1.753   3.189 -0.3237  0.3529 -0.1670
 5903TIP3    H141904   2.405   1.704   3.189  0.0143 -0.2408  0.8886
 5903TIP3    H241905   2.551   1.693   3.227  0.0581  1.6742  1.3943
 5904TIP3   OH241906   4.456   5.071   0.547  0.0421 -0.2910  0.4013
 5904TIP3    H141907   4.490   5.155   0.577  1.1913 -0.6758  0.2359
 5904TIP3    H241908   4.383   5.052   0.606  0.4748  0.3025  1.1402
 5905TIP3   OH241909   1.215   0.966   2.218  0.6627 -0.2689 -0.0829
 5905TIP3    H141910   1.257   1.006   2.294  1.1719  2.0984 -1.4802
 5905TIP3    H241911   1.210   1.037   2.154  1.2808 -2.3819 -2.6732
 5906TIP3   OH241912   1.271   2.908   1.935  0.5303 -0.8042 -0.2762
 5906TIP3    H141913   1.261   2.853   1.857 -1.0309  0.0707 -0.7287
 5906TIP3    H241914   1.292   2.846   2.005  0.2211 -1.8093 -1.0449
 5907TIP3   OH241915   5.673   4.240   0.736 -0.2579 -0.4634  0.0669
 5907TIP3    H141916   5.769   4.236   0.726 -0.0127 -0.2262  1.8926
 5907TIP3    H241917   5.654   4.180   0.808 -1.3296  0.3719  0.5137
 5908TIP3   OH241918   7.198   3.281   1.115 -0.0114 -0.2940 -0.2424
 5908TIP3    H141919   7.138   3.207   1.105  1.3795 -1.6905  1.1451
 5908TIP3    H241920   7.183   3.312   1.204  2.2856 -1.6375  0.6897
 5909TIP3   OH241921   4.972   0.709   0.780 -0.4830 -0.2283  0.3630
 5909TIP3    H141922   4.899   0.663   0.822 -1.5651  0.6374 -0.5224
 5909TIP3    H241923   5.006   0.646   0.716 -1.0592 -0.2923  0.1194
 5910TIP3   OH241924   3.224   0.285   1.741  0.4495 -0.4655 -0.2970
 5910TIP3    H141925   3.250   0.310   1.652 -0.3298 -0.3566 -0.5048
 5910TIP3    H241926   3.282   0.213   1.764  1.3709  0.1937 -0.4832
 5911TIP3   OH241927   5.664   6.138   2.284 -0.3003  0.0671 -0.2713
 5911TIP3    H141928   5.626   6.061   2.241 -0.4323 -0.9123  1.5308
 5911TIP3    H241929   5.605   6.157   2.357 -0.4783  2.1446 -0.8909
 5912TIP3   OH241930   5.078   1.644   1.579 -0.2552 -0.0110 -0.6559
 5912TIP3    H141931   5.149   1.597   1.622  0.2338  0.6732 -0.6897
 5912TIP3    H241932   5.045   1.584   1.513 -0.9268 -1.0300  0.5759
 5913TIP3   OH241933   5.537   5.972   0.787 -0.2496 -1.1017 -0.6827
 5913TIP3    H141934   5.553   5.880   0.808  0.4861 -0.7215  0.4534
 5913TIP3    H241935   5.618   6.017   0.809 -1.5470  0.2827  1.6083
 5914TIP3   OH241936   0.603   4.326   2.523 -0.6738  0.0041  0.2557
 5914TIP3    H141937   0.512   4.343   2.500 -0.3242  0.1959 -1.0324
 5914TIP3    H241938   0.639   4.281   2.447  0.0360 -1.0413  1.1728
 5915TIP3   OH241939   6.825   1.328   1.542  0.1359  0.8396  0.3150
 5915TIP3    H141940   6.753   1.374   1.585  2.1908  2.1749  2.5582
 5915TIP3    H241941   6.861   1.271   1.609 -0.8602 -2.4736 -1.7543
 5916TIP3   OH241942   5.118   2.330   2.173 -0.0256 -0.4085  0.0784
 5916TIP3    H141943   5.059   2.301   2.103 -0.8105 -0.1197  0.6111
 5916TIP3    H241944   5.064   2.331   2.251 -0.6008  4.1569 -0.1265
 5917TIP3   OH241945   3.663   2.366   3.522  0.1488  0.0354 -0.0142
 5917TIP3    H141946   3.601   2.395   3.589 -1.9412 -1.7050 -1.0819
 5917TIP3    H241947   3.633   2.408   3.442  1.1579  0.1918 -0.3163
 5918TIP3   OH241948   3.234   7.504   2.542  0.0569 -0.2613  0.1461
 5918TIP3    H141949   3.225   7.492   2.447  0.1161 -1.0149  0.2362
 5918TIP3    H241950   3.266   7.420   2.574 -1.2102 -0.4270  1.0160
 5919TIP3   OH241951   6.419   0.278   1.204 -0.2685 -0.1531  0.1613
 5919TIP3    H141952   6.324   0.278   1.195 -0.3651 -1.0172  0.9690
 5919TIP3    H241953   6.448   0.202   1.155  0.2395  1.2242 -1.8101
 5920TIP3   OH241954   4.220   5.594   1.685 -0.0498  0.4413 -0.1934
 5920TIP3    H141955   4.232   5.647   1.764  1.4226 -0.0228 -0.0724
 5920TIP3    H241956   4.302   5.545   1.676 -1.0466 -1.2285 -0.7438
 5921TIP3   OH241957   5.153   1.202   1.449  0.7234  0.5462  0.0213
 5921TIP3    H141958   5.248   1.193   1.455  0.9354  1.3755 -1.4911
 5921TIP3    H241959   5.118   1.123   1.489  2.0678 -0.0803 -0.0073
 5922TIP3   OH241960   6.576   4.712   1.844 -0.6394  0.0076  0.0426
 5922TIP3    H141961   6.636   4.744   1.776  2.1674 -1.9208  1.4157
 5922TIP3    H241962   6.599   4.763   1.922 -0.6081 -0.8900  0.6330
 5923TIP3   OH241963   4.524   4.755   1.947 -0.0194 -0.0649 -0.0018
 5923TIP3    H141964   4.478   4.839   1.936 -1.3578 -0.7925 -0.2212
 5923TIP3    H241965   4.529   4.743   2.042  0.9615  0.6588  0.0530
 5924TIP3   OH241966   3.130   0.051   2.253 -0.1526 -0.0729  0.5042
 5924TIP3    H141967   3.056  -0.010   2.251  1.3401 -2.0515  1.7083
 5924TIP3    H241968   3.205  -0.000   2.223  1.1663  1.1938  1.4802
 5925TIP3   OH241969   0.098   2.083   2.824 -0.3102  0.1157  0.2337
 5925TIP3    H141970   0.129   2.083   2.733  3.9133 -0.2803  1.4431
 5925TIP3    H241971   0.103   2.174   2.851 -0.4339  0.0793  0.3769
 5926TIP3   OH241972   5.865   2.146   0.986  0.1614 -0.2926 -0.0465
 5926TIP3    H141973   5.842   2.073   0.927 -0.2733 -0.0591 -0.1679
 5926TIP3    H241974   5.882   2.104   1.070  0.0124 -0.5461 -0.1407
 5927TIP3   OH241975   7.539   5.293   0.603  0.3647 -0.2590  0.0733
 5927TIP3    H141976   7.473   5.227   0.583  0.1230 -0.0256  0.0987
 5927TIP3    H241977   7.612   5.273   0.545  1.7524 -2.6975  2.4084
 5928TIP3   OH241978   0.113   5.951   0.747  0.1598 -0.2827  0.4954
 5928TIP3    H141979   0.120   5.857   0.737  0.0265 -0.0503 -2.4457
 5928TIP3    H241980   0.023   5.972   0.723  0.3782  0.6613  0.4390
 5929TIP3   OH241981   6.033   2.978   0.605  0.0948 -0.1229 -0.1984
 5929TIP3    H141982   6.078   2.903   0.644  0.8561  0.5328  0.2242
 5929TIP3    H241983   5.980   2.941   0.535  0.5038 -1.0486 -0.0313
 5930TIP3   OH241984   2.438   7.071   2.009 -1.1717  0.6678  0.0237
 5930TIP3    H141985   2.445   6.982   2.044  0.0404  0.8406  0.2600
 5930TIP3    H241986   2.460   7.128   2.082 -2.8951  1.2375  0.1549
 5931TIP3   OH241987   2.212   1.892   0.865  0.6465 -0.3176 -0.3943
 5931TIP3    H141988   2.279   1.824   0.856  1.5312  0.5622 -0.5718
 5931TIP3    H241989   2.255   1.962   0.914 -0.3240  0.0323 -0.0145
 5932TIP3   OH241990   2.151   0.183   3.252  0.3556  0.7624 -0.4345
 5932TIP3    H141991   2.147   0.103   3.200  0.0292 -0.2643  1.0848
 5932TIP3    H241992   2.125   0.253   3.192  1.7749 -0.0881 -2.1141
 5933TIP3   OH241993   3.841   0.407   1.394  0.3617  0.5201  0.4943
 5933TIP3    H141994   3.763   0.454   1.362 -0.5735 -1.0990  0.2868
 5933TIP3    H241995   3.864   0.348   1.323  3.1570  2.4475 -0.3413
 5934TIP3   OH241996   4.789   6.013   0.887 -0.3598 -0.4894 -0.5056
 5934TIP3    H141997   4.782   6.093   0.834  1.6661 -0.3483 -0.6680
 5934TIP3    H241998   4.813   6.044   0.974  2.4707 -0.8802 -1.0235
 5935TIP3   OH241999   1.990   1.468   2.387  0.0477  0.1332 -0.2089
 5935TIP3    H142000   1.920   1.405   2.403 -0.3292  0.7934  0.8013
 5935TIP3    H242001   1.945   1.543   2.347  0.7452 -0.8926 -3.2434
 5936TIP3   OH242002   4.507   0.099   1.668 -0.0340 -0.1765 -0.0824
 5936TIP3    H142003   4.528   0.109   1.761 -0.8189  0.0835  0.0753
 5936TIP3    H242004   4.463   0.181   1.645 -1.4352 -0.9378 -0.2347
 5937TIP3   OH242005   3.519   2.002   1.686  0.2347 -0.5733 -0.1327
 5937TIP3    H142006   3.425   1.996   1.705  0.5482 -2.2936  1.1215
 5937TIP3    H242007   3.535   1.931   1.624  0.7379 -0.3627 -0.2465
 5938TIP3   OH242008   5.276   2.390   1.110  0.6898  0.0585  0.0732
 5938TIP3    H142009   5.228   2.447   1.171 -0.4798 -0.5432 -0.2565
 5938TIP3    H242010   5.332   2.450   1.061 -0.5748  0.9603 -0.3169
 5939TIP3   OH242011   5.343   1.504   0.454 -1.0086 -0.3341  0.1431
 5939TIP3    H142012   5.308   1.519   0.542 -0.9401 -0.2596  0.1582
 5939TIP3    H242013   5.434   1.478   0.470 -1.1232 -0.7631  0.1181
 5940TIP3   OH242014   3.518   6.849   1.512  0.3676  0.0019 -0.2898
 5940TIP3    H142015   3.611   6.829   1.504  0.5443 -0.4197  1.9891
 5940TIP3    H242016   3.513   6.903   1.591 -1.3071  0.1272 -0.4572
 5941TIP3   OH242017   7.640   2.584   2.184  0.4802 -0.0442  1.0054
 5941TIP3    H142018   7.601   2.641   2.118 -0.0241 -0.2537  1.1222
 5941TIP3    H242019   7.694   2.643   2.238  0.3749  0.2318  0.8105
 5942TIP3   OH242020   6.475   5.077   3.260 -0.4890  0.7651  0.2322
 5942TIP3    H142021   6.555   5.025   3.259 -0.6583  0.4513 -1.9107
 5942TIP3    H242022   6.406   5.015   3.283 -0.2121  0.9686  1.7530
 5943TIP3   OH242023   0.460   3.164   2.721  0.0062  0.0484  0.0319
 5943TIP3    H142024   0.376   3.141   2.761 -1.1314  3.5450  0.0016
 5943TIP3    H242025   0.482   3.249   2.759  3.2473 -0.4417 -0.4922
 5944TIP3   OH242026   1.391   0.831   1.933  0.1148  0.1209  0.0279
 5944TIP3    H142027   1.468   0.888   1.926  0.1311  0.1433  0.4121
 5944TIP3    H242028   1.403   0.782   2.014 -0.5053  0.4584  0.3282
 5945TIP3   OH242029   4.575   1.960   0.786  0.2815 -0.0794  0.0145
 5945TIP3    H142030   4.587   1.897   0.715  0.4039  0.7690 -0.7213
 5945TIP3    H242031   4.658   1.959   0.833  0.5942  0.1792 -0.5260
 5946TIP3   OH242032   2.027   3.998   1.756 -0.1175 -0.2127  0.1035
 5946TIP3    H142033   1.939   3.962   1.764 -0.1019 -0.1702  0.5077
 5946TIP3    H242034   2.034   4.027   1.665 -0.3146 -0.7494 -0.0810
 5947TIP3   OH242035   0.482   6.808   3.086 -0.3693 -0.4761 -0.2915
 5947TIP3    H142036   0.452   6.820   2.996  0.7678  2.0092 -0.4444
 5947TIP3    H242037   0.575   6.833   3.083 -0.6457  1.1179  1.7797
 5948TIP3   OH242038   2.761   2.004   1.536 -0.2859 -0.6523  0.3129
 5948TIP3    H142039   2.774   2.095   1.511  3.9163 -0.5026  2.2122
 5948TIP3    H242040   2.732   1.961   1.455  0.1420  1.8859 -1.2952
 5949TIP3   OH242041   5.804   5.296   0.730  0.1869  0.1958  0.0085
 5949TIP3    H142042   5.730   5.303   0.789 -1.1229 -0.6069 -1.4657
 5949TIP3    H242043   5.810   5.382   0.688 -2.7942 -0.8486 -3.0374
 5950TIP3   OH242044   3.841   2.448   2.636  0.4694 -0.0390  0.4081
 5950TIP3    H142045   3.916   2.390   2.624  0.3038 -0.1784  0.0496
 5950TIP3    H242046   3.769   2.404   2.591  0.2283  0.2071  0.5546
 5951TIP3   OH242047   2.583   4.157   3.438  0.3241  0.0762  0.3369
 5951TIP3    H142048   2.570   4.223   3.505 -0.5095  0.7826 -0.4858
 5951TIP3    H242049   2.664   4.184   3.393 -0.2941  0.8523 -0.3325
 5952TIP3   OH242050   7.631   1.299   2.613  0.3602  0.2446 -0.7657
 5952TIP3    H142051   7.556   1.283   2.556  0.6472 -1.1152 -0.7952
 5952TIP3    H242052   7.592   1.340   2.691 -0.5850 -1.3176 -0.3662
 5953TIP3   OH242053   5.439   1.292   2.607  0.8180  0.6284  0.5105
 5953TIP3    H142054   5.370   1.309   2.543  2.0639  2.0588 -0.5332
 5953TIP3    H242055   5.415   1.345   2.683 -0.1110 -0.2394  0.8370
 5954TIP3   OH242056   2.009   7.318   0.787  0.2041 -0.8362 -0.4534
 5954TIP3    H142057   1.969   7.374   0.853 -1.4217 -2.4882  0.0391
 5954TIP3    H242058   2.006   7.230   0.825  1.7074 -1.4530 -1.6323
 5955TIP3   OH242059   1.436   4.017   2.989 -0.5074  1.1877  0.5728
 5955TIP3    H142060   1.387   4.076   3.047 -1.5807  1.3757 -0.4763
 5955TIP3    H242061   1.410   3.929   3.017 -3.0073  1.2754 -1.1437
 5956TIP3   OH242062   5.544   4.681   7.870 -0.1312  0.0993 -0.0847
 5956TIP3    H142063   5.478   4.622   7.906  1.3983 -1.4891  0.2338
 5956TIP3    H242064   5.511   4.769   7.891 -1.7506 -0.6519  0.7077
 5957TIP3   OH242065   1.310   2.569   2.326  0.1487 -0.2315 -0.7799
 5957TIP3    H142066   1.258   2.497   2.290 -1.0725  0.5191 -0.5569
 5957TIP3    H242067   1.340   2.537   2.411  0.6446 -0.9274 -1.2072
 5958TIP3   OH242068   7.183   6.046   0.986 -0.7196 -0.1694  0.4176
 5958TIP3    H142069   7.276   6.024   0.998 -0.5449 -0.2511 -0.9097
 5958TIP3    H242070   7.177   6.138   1.013  0.1637  0.4176 -1.2151
 5959TIP3   OH242071   1.066   3.522   1.110  0.0506 -0.4069  0.2063
 5959TIP3    H142072   1.122   3.482   1.176  2.9145  0.0927 -1.7210
 5959TIP3    H242073   1.011   3.451   1.079  1.5287 -1.6698  0.3377
 5960TIP3   OH242074   3.723   2.835   3.188  0.4972  0.4594 -0.4546
 5960TIP3    H142075   3.678   2.811   3.269  0.2416 -0.3506 -0.8301
 5960TIP3    H242076   3.788   2.900   3.215 -0.5616  1.3066  0.1810
 5961TIP3   OH242077   4.833   4.623   2.072  0.0320 -0.1658  0.7064
 5961TIP3    H142078   4.790   4.622   1.986  1.5627 -0.6182 -0.0976
 5961TIP3    H242079   4.807   4.540   2.112  1.2520 -1.1205 -0.3807
 5962TIP3   OH242080   6.850   5.268   2.132  0.0375 -0.4918 -0.2433
 5962TIP3    H142081   6.782   5.205   2.107 -0.9029  0.5184 -0.3179
 5962TIP3    H242082   6.921   5.214   2.165  0.0569 -1.7112 -2.1034
 5963TIP3   OH242083   1.958   5.952   0.448 -0.1363  0.6235  0.0645
 5963TIP3    H142084   1.979   5.918   0.361  0.4787  1.3420 -0.0743
 5963TIP3    H242085   1.863   5.961   0.448 -0.1092  0.9915 -0.6741
 5964TIP3   OH242086   3.406   0.277   2.390  0.6517  0.0105  1.1328
 5964TIP3    H142087   3.398   0.194   2.438  0.8754  0.0105  1.1680
 5964TIP3    H242088   3.324   0.283   2.340 -0.7821  1.2325  3.4379
 5965TIP3   OH242089   3.251   2.005   1.780 -0.1598 -0.3577  0.0724
 5965TIP3    H142090   3.275   1.928   1.832  0.4657  0.5954  1.2264
 5965TIP3    H242091   3.159   1.991   1.758 -0.0025 -1.5261  0.1012
 5966TIP3   OH242092   7.631   7.567   3.047 -0.5523  0.3407  0.0090
 5966TIP3    H142093   7.563   7.634   3.053  0.0160  0.9212  0.1254
 5966TIP3    H242094   7.591   7.488   3.083 -1.8220  0.1385 -1.7091
 5967TIP3   OH242095   6.259   5.514   1.157 -0.0880 -0.3574 -0.1356
 5967TIP3    H142096   6.284   5.540   1.069 -0.3358 -0.7770 -0.3348
 5967TIP3    H242097   6.240   5.596   1.202  0.8010 -0.0954 -0.2321
 5968TIP3   OH242098   0.619   0.962   0.849 -0.5021  0.2101  0.2368
 5968TIP3    H142099   0.582   0.880   0.818  0.0598 -0.4886  1.3585
 5968TIP3    H242100   0.708   0.962   0.813 -0.9491  1.0125 -0.9255
 5969TIP3   OH242101   0.897   7.333   1.332 -0.6623  0.2258 -0.0918
 5969TIP3    H142102   0.889   7.426   1.311 -0.0726  0.2665 -0.1642
 5969TIP3    H242103   0.928   7.293   1.251 -1.1269 -0.0756 -0.1273
 5970TIP3   OH242104   0.804   6.771   1.067  0.0153  0.4590 -0.0685
 5970TIP3    H142105   0.864   6.697   1.054  1.1114  1.5905 -1.7120
 5970TIP3    H242106   0.717   6.735   1.048  0.4667 -0.5378 -0.2907
 5971TIP3   OH242107   0.111   1.049   2.194  0.1182 -0.5344  0.3280
 5971TIP3    H142108   0.169   0.976   2.215  2.3111  0.8931 -0.4116
 5971TIP3    H242109   0.126   1.112   2.264 -1.0126 -0.3755  0.4397
 5972TIP3   OH242110   5.093   0.501   0.648 -0.1534 -0.3372  0.1678
 5972TIP3    H142111   5.152   0.499   0.723 -0.0178  1.6518  0.1685
 5972TIP3    H242112   5.151   0.519   0.573 -0.3350 -1.9176 -0.3723
 5973TIP3   OH242113   4.446   6.966   2.176  0.2460  0.0407 -0.3153
 5973TIP3    H142114   4.448   6.897   2.242  0.0026  0.5779  0.2574
 5973TIP3    H242115   4.400   6.927   2.102 -0.4406 -0.2141  0.2366
 5974TIP3   OH242116   6.020   6.696   0.938  0.1224 -0.8762  0.3036
 5974TIP3    H142117   5.951   6.751   0.901  0.4575 -0.1814  0.6977
 5974TIP3    H242118   6.088   6.694   0.870 -0.1762 -1.3628  0.0145
 5975TIP3   OH242119   0.783   2.428   1.288 -0.0152  0.4041 -0.3397
 5975TIP3    H142120   0.726   2.353   1.268  0.1243  0.1817  0.0932
 5975TIP3    H242121   0.824   2.449   1.204 -1.3690  1.1194 -0.8675
 5976TIP3   OH242122   2.741   6.073   3.255  0.7795 -0.1053 -0.8226
 5976TIP3    H142123   2.688   6.132   3.308 -0.3771 -0.9999 -0.9457
 5976TIP3    H242124   2.700   6.075   3.168  1.2419 -0.4316 -1.0553
 5977TIP3   OH242125   0.236   0.059   2.380 -0.1990  0.0846 -0.6518
 5977TIP3    H142126   0.291  -0.005   2.336 -0.0892 -0.3641  0.1236
 5977TIP3    H242127   0.219   0.022   2.466 -1.4844  0.3435 -0.7669
 5978TIP3   OH242128   1.406   0.652   1.324  0.3263 -0.6488 -0.0226
 5978TIP3    H142129   1.429   0.627   1.413  0.3235  0.6483  0.3717
 5978TIP3    H242130   1.384   0.570   1.280 -0.3414 -1.2398  1.3639
 5979TIP3   OH242131   7.033   0.963   2.139  0.2470  0.2381  0.4245
 5979TIP3    H142132   7.125   0.950   2.118  0.2742  0.9445  0.0845
 5979TIP3    H242133   7.030   0.968   2.234  0.1259 -3.0174  0.7251
 5980TIP3   OH242134   6.889   4.376   2.082  0.9225  0.0012  0.5165
 5980TIP3    H142135   6.822   4.316   2.116  0.3132  0.6490  0.4862
 5980TIP3    H242136   6.961   4.370   2.145  0.7231 -0.4869  0.7060
 5981TIP3   OH242137   0.343   1.408   2.677  0.0429  0.2007  0.5046
 5981TIP3    H142138   0.290   1.469   2.729  0.6625  1.2819 -0.1031
 5981TIP3    H242139   0.431   1.444   2.681  0.1213  0.2553 -1.2040
 5982TIP3   OH242140   3.675   0.705   1.913 -0.2728 -0.5308  0.1474
 5982TIP3    H142141   3.724   0.763   1.972 -0.2807  0.5196 -0.8344
 5982TIP3    H242142   3.583   0.732   1.925 -0.5397 -1.7599  1.1818
 5983TIP3   OH242143   7.340   3.567   1.042 -0.9094  0.3040 -1.0959
 5983TIP3    H142144   7.406   3.559   0.973  0.8342 -0.5563  0.5550
 5983TIP3    H242145   7.309   3.478   1.055  0.5324  0.0064  0.7597
 5984TIP3   OH242146   3.106   0.992   2.972  0.3556  0.7587  0.0475
 5984TIP3    H142147   3.117   1.087   2.975 -0.9494  0.9102  0.7421
 5984TIP3    H242148   3.149   0.960   3.051  0.0451  0.8707  0.2663
 5985TIP3   OH242149   3.458   6.497   1.501  0.4748 -0.0382  0.2877
 5985TIP3    H142150   3.417   6.415   1.474 -1.9352  1.0586  0.4035
 5985TIP3    H242151   3.524   6.513   1.433 -1.7555 -0.0864 -2.0448
 5986TIP3   OH242152   0.270   2.197   2.350 -0.2642  0.0373  0.8388
 5986TIP3    H142153   0.250   2.160   2.436 -1.8052  2.3856  1.5820
 5986TIP3    H242154   0.201   2.260   2.334  1.0237  1.0281 -1.3103
 5987TIP3   OH242155   1.222   5.125   2.943  0.4396  0.0095  0.3060
 5987TIP3    H142156   1.152   5.180   2.978 -1.5962 -1.8096 -0.6718
 5987TIP3    H242157   1.245   5.067   3.016  1.5393  1.0862  0.8634
 5988TIP3   OH242158   6.830   5.414   1.599  1.3411  0.8090  0.5765
 5988TIP3    H142159   6.820   5.433   1.692  0.3620 -1.8134  1.0889
 5988TIP3    H242160   6.829   5.319   1.593  0.1598  0.8844 -2.2398
 5989TIP3   OH242161   4.534   0.514   2.975 -0.2714  0.4586  0.1663
 5989TIP3    H142162   4.467   0.577   2.999 -0.7117  0.3511 -0.7401
 5989TIP3    H242163   4.511   0.487   2.886  0.6277 -0.0291  0.0681
 5990TIP3   OH242164   1.394   5.764   2.953 -0.7541 -0.5608  0.7876
 5990TIP3    H142165   1.351   5.681   2.973  1.6075 -1.9580  0.4628
 5990TIP3    H242166   1.480   5.739   2.918 -0.5971  1.9892 -0.9535
 5991TIP3   OH242167   5.198   3.872   1.938  0.1512  0.0614  0.4079
 5991TIP3    H142168   5.186   3.881   1.843  1.4983 -1.3407  0.0662
 5991TIP3    H242169   5.264   3.938   1.960  0.2884 -0.0273  0.2636
 5992TIP3   OH242170   5.365   0.322   2.422  0.3161  0.5529 -0.3365
 5992TIP3    H142171   5.393   0.280   2.503  1.3103  1.3771 -0.2244
 5992TIP3    H242172   5.399   0.265   2.353  1.5910  1.0800 -0.1849
 5993TIP3   OH242173   2.959   0.079   1.743  0.6425 -0.0122  0.4057
 5993TIP3    H142174   2.887   0.050   1.687  0.4871  0.1526  0.5180
 5993TIP3    H242175   3.035   0.085   1.684  0.5962 -0.3181  0.3176
 5994TIP3   OH242176   6.484   6.685   1.403 -0.0171 -0.0147  0.5603
 5994TIP3    H142177   6.403   6.735   1.392 -0.1645  0.2233  2.2965
 5994TIP3    H242178   6.497   6.684   1.498  3.3685  2.1525  0.2925
 5995TIP3   OH242179   0.575   3.926   2.281 -0.3927 -0.0210 -0.0987
 5995TIP3    H142180   0.486   3.902   2.255 -0.3287 -0.9052  0.4373
 5995TIP3    H242181   0.592   3.872   2.358  0.5968  0.1774 -0.1686
 5996TIP3   OH242182   7.152   5.103   0.981 -0.0462 -0.5331  0.0585
 5996TIP3    H142183   7.084   5.171   0.980 -1.0519 -1.5133 -0.6794
 5996TIP3    H242184   7.233   5.151   0.964 -0.5894  0.6102  0.5308
 5997TIP3   OH242185   6.221   5.666   2.308  0.0826 -0.3994  0.3569
 5997TIP3    H142186   6.227   5.585   2.256  0.6229  0.0222 -0.2624
 5997TIP3    H242187   6.177   5.728   2.249 -0.8713 -0.4092  1.0459
 5998TIP3   OH242188   2.662   2.876   0.740 -0.6066  0.1728 -0.4553
 5998TIP3    H142189   2.703   2.828   0.668 -0.6907 -1.3953  0.5149
 5998TIP3    H242190   2.731   2.886   0.805  0.0612  3.3008 -1.4269
 5999TIP3   OH242191   6.049   0.310   1.450  0.3395 -0.0159 -0.2279
 5999TIP3    H142192   6.111   0.294   1.521  0.6556  1.6633 -0.0847
 5999TIP3    H242193   5.989   0.377   1.484 -1.8145 -1.8245 -0.2459
 6000TIP3   OH242194   5.364   2.766   2.449  0.3511 -0.5839  0.3925
 6000TIP3    H142195   5.449   2.727   2.470  1.8643  1.7422 -0.8853
 6000TIP3    H242196   5.325   2.787   2.533  1.6547 -0.5390  1.0060
 6001TIP3   OH242197   2.432   4.625   3.120  0.2642  0.2990  0.1299
 6001TIP3    H142198   2.497   4.649   3.053 -0.6983  0.0958 -0.9182
 6001TIP3    H242199   2.474   4.558   3.172  0.3157 -1.0868 -1.6051
 6002TIP3   OH242200   2.035   5.522   2.460  0.0214 -0.0718 -0.6673
 6002TIP3    H142201   2.013   5.498   2.550  1.9407  0.9560  0.1194
 6002TIP3    H242202   2.130   5.534   2.460  0.2851 -1.4073 -3.1800
 6003TIP3   OH242203   4.286   3.971   2.364 -0.2165 -0.4008  0.0267
 6003TIP3    H142204   4.205   3.938   2.326 -0.6909  0.0879  0.5934
 6003TIP3    H242205   4.291   4.063   2.337  0.4998 -0.5969 -0.5645
 6004TIP3   OH242206   1.701   1.941   0.746 -0.0139  0.2775  0.0602
 6004TIP3    H142207   1.609   1.967   0.733 -0.3940 -0.9223  0.2040
 6004TIP3    H242208   1.700   1.893   0.829  0.5577 -0.5897 -0.4263
 6005TIP3   OH242209   6.313   6.594   0.844 -0.2307  0.6083 -0.1657
 6005TIP3    H142210   6.292   6.687   0.839  2.1271  1.2387  0.4906
 6005TIP3    H242211   6.408   6.590   0.833 -0.0257 -1.5360  1.6667
 6006TIP3   OH242212   3.410   0.522   1.612  0.0191  0.1901  0.3759
 6006TIP3    H142213   3.423   0.601   1.561 -0.1558 -0.1383 -0.1818
 6006TIP3    H242214   3.345   0.472   1.564  1.3510 -1.0793 -0.2025
 6007TIP3   OH242215   3.445   2.154   1.069  0.2044 -0.2406 -0.3577
 6007TIP3    H142216   3.525   2.207   1.074 -0.0836  0.0756  2.1935
 6007TIP3    H242217   3.399   2.187   0.992  1.1219  1.6548 -0.1434
 6008TIP3   OH242218   1.106   6.736   1.216  0.1479  0.1086 -0.8572
 6008TIP3    H142219   1.024   6.754   1.262  1.2733  0.0095  1.3711
 6008TIP3    H242220   1.164   6.808   1.242  1.5372 -1.1683 -0.1912
 6009TIP3   OH242221   3.707   5.966   2.948  0.0932  0.5966  0.3381
 6009TIP3    H142222   3.715   5.876   2.978  0.6216  0.4255 -0.3019
 6009TIP3    H242223   3.639   6.004   3.004 -0.1398 -0.1990  0.6035
 6010TIP3   OH242224   2.042   3.206   0.766 -0.0487 -0.1509 -0.5007
 6010TIP3    H142225   2.100   3.131   0.760  3.0170  1.7944  1.7814
 6010TIP3    H242226   2.095   3.280   0.737 -2.2910  1.4503 -0.8176
 6011TIP3   OH242227   2.843   4.858   0.728  0.4767 -0.3111 -0.5170
 6011TIP3    H142228   2.827   4.905   0.646 -0.3214 -0.3518 -0.3929
 6011TIP3    H242229   2.791   4.778   0.721 -1.2566  0.6178  0.8454
 6012TIP3   OH242230   2.075   1.497   1.473 -0.9066 -0.3568  0.0448
 6012TIP3    H142231   2.080   1.407   1.440  0.9718 -0.1298 -0.3494
 6012TIP3    H242232   2.070   1.552   1.394 -0.0737 -0.0105  0.2307
 6013TIP3   OH242233   2.746   0.644   2.825  0.1292  0.0787 -0.4962
 6013TIP3    H142234   2.723   0.700   2.899  4.2952 -1.3583  2.2313
 6013TIP3    H242235   2.816   0.691   2.780  1.7049 -1.5427  0.1412
 6014TIP3   OH242236   6.203   1.307   0.514  0.1340 -0.3469  0.5134
 6014TIP3    H142237   6.214   1.212   0.520 -1.1387 -0.4843  0.9154
 6014TIP3    H242238   6.109   1.322   0.526  0.0277  0.8371 -1.3315
 6015TIP3   OH242239   3.389   5.214   0.404 -0.1213 -0.1936 -0.2592
 6015TIP3    H142240   3.440   5.294   0.419 -0.5483  0.0743 -0.2183
 6015TIP3    H242241   3.444   5.144   0.438  0.0017  0.1441  0.2526
 6016TIP3   OH242242   1.907   4.938   2.730  1.0412 -0.5580 -0.5391
 6016TIP3    H142243   1.937   4.855   2.692 -1.7147 -2.5264  1.1917
 6016TIP3    H242244   1.812   4.936   2.718  0.8141  1.9459  0.3972
 6017TIP3   OH242245   3.618   2.513   3.285  0.9156  0.1340  0.6524
 6017TIP3    H142246   3.563   2.579   3.327  0.0934  1.1230 -1.7851
 6017TIP3    H242247   3.650   2.556   3.205  0.3328 -2.3944 -1.0633
 6018TIP3   OH242248   0.810   0.841   1.908 -0.1470 -0.0766  0.0666
 6018TIP3    H142249   0.781   0.919   1.956 -2.8282  0.2361 -1.8295
 6018TIP3    H242250   0.877   0.873   1.848  0.2976  0.3152  0.7578
 6019TIP3   OH242251   0.996   0.874   2.381 -0.3614  0.6093 -0.3385
 6019TIP3    H142252   1.052   0.826   2.443 -0.6722  2.2190  1.2734
 6019TIP3    H242253   1.056   0.902   2.312  0.6282  1.2595  0.7375
 6020TIP3   OH242254   5.007   6.718   2.147  0.0856  0.4388  0.5015
 6020TIP3    H142255   5.058   6.674   2.215  1.4819  1.1198 -0.0431
 6020TIP3    H242256   4.929   6.750   2.191 -0.0812 -1.0096  1.2817
 6021TIP3   OH242257   3.358   2.171   0.613 -0.3938 -0.4086 -0.2045
 6021TIP3    H142258   3.280   2.197   0.565 -0.4436  0.2452  0.2182
 6021TIP3    H242259   3.358   2.226   0.691 -0.6876 -1.9123  0.9072
 6022TIP3   OH242260   3.007   1.488   2.054 -0.4779  0.1622  0.0342
 6022TIP3    H142261   2.997   1.455   2.144 -0.6430  0.2175  0.0363
 6022TIP3    H242262   2.948   1.563   2.050 -0.5376  0.1048 -0.1480
 6023TIP3   OH242263   3.834   1.238   2.241  0.8853  1.0549 -0.4018
 6023TIP3    H142264   3.814   1.254   2.149  1.5399 -1.6004 -1.0965
 6023TIP3    H242265   3.751   1.256   2.286 -0.1784  0.1102 -1.8622
 6024TIP3   OH242266   6.294   4.707   1.890  0.6293  0.1133  0.5469
 6024TIP3    H142267   6.305   4.652   1.967  1.6867  1.1738  1.1746
 6024TIP3    H242268   6.383   4.729   1.863  0.2814 -0.2949 -1.0381
 6025TIP3   OH242269   2.106   0.521   2.237 -0.3370 -0.8530  0.7085
 6025TIP3    H142270   2.102   0.617   2.243  0.9221 -0.7616  0.5485
 6025TIP3    H242271   2.087   0.502   2.145  0.7018 -0.6306  0.4276
 6026TIP3   OH242272   4.533   3.272   1.563  0.3159 -0.4477  0.1675
 6026TIP3    H142273   4.616   3.247   1.603 -0.1283 -1.7642  0.3141
 6026TIP3    H242274   4.471   3.277   1.636  0.3116  0.8142  0.1005
 6027TIP3   OH242275   4.015   3.918   0.770  0.2977 -0.1309  0.8001
 6027TIP3    H142276   3.923   3.905   0.796  0.3070  1.5248  1.8667
 6027TIP3    H242277   4.046   3.832   0.745 -1.6515 -0.6791  0.1258
 6028TIP3   OH242278   5.197   7.537   2.608 -0.3108  0.1609  0.0264
 6028TIP3    H142279   5.102   7.538   2.597 -0.4290  0.6074  0.9253
 6028TIP3    H242280   5.230   7.488   2.533 -1.1048  1.7542 -1.4323
 6029TIP3   OH242281   7.643   6.560   1.496 -0.0866 -0.0898 -0.5460
 6029TIP3    H142282   7.716   6.573   1.558 -0.3655  1.1048 -0.4487
 6029TIP3    H242283   7.654   6.470   1.466  0.6763 -0.3528  0.4482
 6030TIP3   OH242284   3.890   1.377   1.973  0.0074  0.4698 -0.4221
 6030TIP3    H142285   3.957   1.435   2.008  1.3164 -0.2533 -1.6375
 6030TIP3    H242286   3.923   1.288   1.989 -0.6663  0.0955 -1.0130
 6031TIP3   OH242287   0.811   0.740   2.186 -0.0374  0.2757 -0.0683
 6031TIP3    H142288   0.834   0.748   2.094 -1.9795 -1.2843 -0.7628
 6031TIP3    H242289   0.868   0.803   2.231  1.4707  0.5339 -2.2130
 6032TIP3   OH242290   1.440   4.919   1.851 -0.0810 -0.2881 -0.0948
 6032TIP3    H142291   1.347   4.916   1.874 -0.5629  0.7006 -1.7450
 6032TIP3    H242292   1.455   5.009   1.823  1.2638 -0.5628 -0.3290
 6033TIP3   OH242293   0.933   1.041   0.909 -0.6283 -0.0055 -0.7257
 6033TIP3    H142294   0.918   1.018   1.001 -1.1623 -0.0491 -0.8194
 6033TIP3    H242295   0.997   0.976   0.879  2.1728  2.0030  0.4864
 6034TIP3   OH242296   1.334   2.086   2.456 -0.4337 -0.4050 -0.2758
 6034TIP3    H142297   1.345   2.041   2.540 -4.4174 -1.3634 -0.0442
 6034TIP3    H242298   1.297   2.171   2.478 -1.9439 -0.8325 -0.9824
 6035TIP3   OH242299   6.666   3.402   2.703 -0.1255 -0.0713  0.6387
 6035TIP3    H142300   6.601   3.339   2.733  0.1327 -0.2725  0.7915
 6035TIP3    H242301   6.735   3.347   2.665  0.0905  0.1202  0.7527
 6036TIP3   OH242302   3.456   0.583   2.667 -0.2900  0.0464  0.4451
 6036TIP3    H142303   3.377   0.587   2.721  1.5094  0.5950  3.2404
 6036TIP3    H242304   3.484   0.674   2.658  1.3036 -0.2755  1.6410
 6037TIP3   OH242305   2.484   5.179   2.144  0.2714 -0.9136  0.4056
 6037TIP3    H142306   2.468   5.129   2.063  0.0603 -0.1082 -0.0609
 6037TIP3    H242307   2.406   5.232   2.155  0.4872 -0.6979  0.9068
 6038TIP3   OH242308   0.689   6.098   2.203  0.5077  0.3545 -0.1646
 6038TIP3    H142309   0.723   6.115   2.291  0.4942 -0.4401  0.0007
 6038TIP3    H242310   0.613   6.041   2.216  0.1144  0.7468 -0.6519
 6039TIP3   OH242311   2.066   3.209   3.061 -0.3008 -0.0497 -0.5089
 6039TIP3    H142312   2.135   3.151   3.093  0.9299  1.8622  0.4273
 6039TIP3    H242313   2.073   3.204   2.966 -1.2717 -2.5843 -0.5448
 6040TIP3   OH242314   1.688   4.934   1.520  0.2548  0.1052  0.6744
 6040TIP3    H142315   1.678   4.849   1.562  0.0397 -0.6484 -0.8386
 6040TIP3    H242316   1.783   4.946   1.511  0.2767 -0.1731  0.5258
 6041TIP3   OH242317   2.203   7.516   2.553  0.1889 -0.0443 -0.8660
 6041TIP3    H142318   2.281   7.480   2.596  0.4924  0.5758 -0.8975
 6041TIP3    H242319   2.229   7.529   2.462  0.3322  0.9920 -0.6847
 6042TIP3   OH242320   3.477   4.241   1.256  0.0946  0.3074  0.0259
 6042TIP3    H142321   3.407   4.237   1.322 -0.6085 -2.3892 -0.7692
 6042TIP3    H242322   3.532   4.166   1.276  0.1339 -0.2792 -2.1396
 6043TIP3   OH242323   2.421   6.473   2.591 -0.3212  0.2587 -0.2226
 6043TIP3    H142324   2.490   6.423   2.548  0.1818  0.6163  0.1562
 6043TIP3    H242325   2.369   6.407   2.638 -0.3910 -0.0365 -0.7097
 6044TIP3   OH242326   6.536   7.319   1.148  0.6598 -0.2171  0.1253
 6044TIP3    H142327   6.480   7.397   1.144  0.6610 -0.2493 -2.3267
 6044TIP3    H242328   6.596   7.336   1.221  1.1039  2.4331 -0.7446
 6045TIP3   OH242329   3.293   3.751   2.191 -0.1613  0.0181  0.2674
 6045TIP3    H142330   3.345   3.682   2.152 -1.9938 -1.5251  0.3765
 6045TIP3    H242331   3.215   3.757   2.136 -0.2346  1.7182  0.5072
 6046TIP3   OH242332   2.238   5.380   3.139 -0.3109 -0.4599  0.2298
 6046TIP3    H142333   2.216   5.441   3.209 -0.0128 -0.8096  0.6356
 6046TIP3    H242334   2.159   5.329   3.126 -1.5296  1.8049 -2.0350
 6047TIP3   OH242335   3.295   5.013   1.670 -0.0038  0.5462  0.2336
 6047TIP3    H142336   3.291   4.919   1.689 -1.8834  0.5141 -0.1335
 6047TIP3    H242337   3.380   5.025   1.629 -0.9761 -1.6144 -2.7685
 6048TIP3   OH242338   3.130   4.118   1.241 -0.8580 -0.0890  0.3457
 6048TIP3    H142339   3.146   4.179   1.314  1.0208 -0.6879  0.4973
 6048TIP3    H242340   3.156   4.032   1.276 -1.0515 -0.5723 -0.6593
 6049TIP3   OH242341   1.732   2.244   3.105 -0.1328 -0.0678 -0.4930
 6049TIP3    H142342   1.748   2.328   3.061  2.0549  0.0183  0.3037
 6049TIP3    H242343   1.669   2.265   3.174 -0.6634  0.6092 -1.1622
 6050TIP3   OH242344   4.178   7.607   1.499 -0.3663 -0.2280  0.0382
 6050TIP3    H142345   4.209   7.679   1.554  0.4392  0.2132 -0.9505
 6050TIP3    H242346   4.223   7.621   1.415 -0.7262 -1.4930 -0.3792
 6051TIP3   OH242347   4.924   7.558   1.680  0.2370  0.9361 -0.2687
 6051TIP3    H142348   4.871   7.616   1.626  0.6826  1.3027 -0.3238
 6051TIP3    H242349   5.013   7.594   1.675  0.4133  0.5892  0.1663
 6052TIP3   OH242350   0.026   6.217   1.155 -0.0187 -0.0567  0.4385
 6052TIP3    H142351  -0.051   6.260   1.120  0.1323  0.2204  0.4462
 6052TIP3    H242352   0.099   6.250   1.103  0.6582  2.7340  2.8695
 6053TIP3   OH242353   6.693   3.853   1.867  0.4346  0.0646  0.2064
 6053TIP3    H142354   6.660   3.936   1.901  1.4895  0.2713  0.7694
 6053TIP3    H242355   6.615   3.808   1.834 -0.1904  1.1378  0.1796
 6054TIP3   OH242356   2.080   0.419   3.617  0.2418  0.0265  0.3709
 6054TIP3    H142357   2.075   0.418   3.522 -1.0639  2.0236  0.3534
 6054TIP3    H242358   2.153   0.361   3.638  0.9939  0.0738 -1.8636
 6055TIP3   OH242359   2.772   2.020   3.226 -0.1879  0.5220 -0.1525
 6055TIP3    H142360   2.810   2.083   3.286 -0.9833  1.4319 -0.5766
 6055TIP3    H242361   2.847   1.980   3.182  0.3193  1.7022 -0.3965
 6056TIP3   OH242362   6.919   7.455   2.664  0.1109 -0.7258 -0.1142
 6056TIP3    H142363   7.002   7.407   2.673  0.5529  0.1293  0.5249
 6056TIP3    H242364   6.868   7.429   2.741  0.1733 -0.5293 -0.0038
 6057TIP3   OH242365   3.017   4.988   0.889  0.2174  0.0172 -0.0637
 6057TIP3    H142366   2.937   4.957   0.846  0.7777 -0.9216 -0.4736
 6057TIP3    H242367   3.048   4.911   0.939  0.6171  0.5068  0.4569
 6058TIP3   OH242368   2.665   4.694   1.011 -0.0557  0.1441 -0.1714
 6058TIP3    H142369   2.570   4.700   1.006  0.0520  0.8168 -2.6617
 6058TIP3    H242370   2.692   4.778   1.048 -0.3809  0.4773 -0.6762
 6059TIP3   OH242371   2.436   6.906   1.718  0.2729 -0.2179  0.3483
 6059TIP3    H142372   2.402   6.870   1.800  0.1574 -3.0099 -0.7854
 6059TIP3    H242373   2.500   6.840   1.689 -0.2992  0.2690 -2.1823
 6060TIP3   OH242374   3.064   7.405   0.705 -0.4546  0.2965 -0.6737
 6060TIP3    H142375   3.088   7.312   0.705  0.0482  0.4147 -0.1135
 6060TIP3    H242376   2.972   7.406   0.729  0.1740  0.0501  2.1232
 6061TIP3   OH242377   1.931   6.347   1.620 -0.3776  0.0504 -0.2649
 6061TIP3    H142378   1.914   6.297   1.700  2.0620 -0.3958  0.0650
 6061TIP3    H242379   1.977   6.285   1.563  3.7361  1.9895  0.5653
 6062TIP3   OH242380   7.668   3.929   1.078 -0.1882 -0.7222  0.2291
 6062TIP3    H142381   7.640   3.840   1.098 -2.4170 -0.3155 -0.6963
 6062TIP3    H242382   7.586   3.975   1.055  0.7886  1.7110  1.2376
 6063TIP3   OH242383   1.993   2.370   0.577 -0.3526  0.4202 -0.4599
 6063TIP3    H142384   2.029   2.402   0.494 -1.3698  0.1495 -1.0317
 6063TIP3    H242385   2.052   2.300   0.603  0.0808  0.6267 -0.8660
 6064TIP3   OH242386   7.614   6.026   1.590 -0.4357 -0.2100 -0.0158
 6064TIP3    H142387   7.690   5.983   1.552 -0.2289 -0.0467  0.2169
 6064TIP3    H242388   7.644   6.059   1.674 -1.0146 -0.9760  0.5106
 6065TIP3   OH242389   1.262   7.463   1.513 -0.0838  0.4826 -0.0604
 6065TIP3    H142390   1.287   7.473   1.421 -1.2802  0.2515 -0.4224
 6065TIP3    H242391   1.210   7.383   1.515  2.2941 -1.1615  1.3385
 6066TIP3   OH242392   2.097   2.065   2.998 -0.2516  0.6622  0.1935
 6066TIP3    H142393   2.082   2.145   3.048  0.5080  1.5943 -1.0232
 6066TIP3    H242394   2.010   2.037   2.970 -0.7913 -0.3375  2.6497
 6067TIP3   OH242395   7.601   4.965   3.161  0.5457  1.0305  0.2655
 6067TIP3    H142396   7.559   4.883   3.185 -2.2612  2.1656 -0.3145
 6067TIP3    H242397   7.596   4.968   3.065 -0.2573  2.2240  0.3136
 6068TIP3   OH242398   1.145   0.316   1.352 -0.5663 -0.1715 -0.3586
 6068TIP3    H142399   1.166   0.242   1.409  2.1663  2.0785  1.8572
 6068TIP3    H242400   1.092   0.375   1.407 -1.8219  0.0463 -1.7313
 6069TIP3   OH242401   0.364   5.884   1.352 -0.0687  0.9351 -0.5880
 6069TIP3    H142402   0.284   5.915   1.310 -1.1015 -0.6601  0.1295
 6069TIP3    H242403   0.401   5.821   1.291  0.3453  1.2537 -0.6689
 6070TIP3   OH242404   2.334   5.914   2.683  0.2523  0.2949  0.2466
 6070TIP3    H142405   2.353   5.898   2.590  1.0204  1.1439  0.2518
 6070TIP3    H242406   2.257   5.858   2.701 -0.2634  0.5483 -1.0403
 6071TIP3   OH242407   3.443   0.364   3.469  0.4416  0.0448 -0.0386
 6071TIP3    H142408   3.486   0.284   3.501  0.9002 -0.6553 -2.2348
 6071TIP3    H242409   3.502   0.435   3.493  1.7229 -0.6672 -0.9519
 6072TIP3   OH242410   3.485   7.545   2.823 -0.1059 -0.5172  0.5849
 6072TIP3    H142411   3.544   7.474   2.849 -0.2366 -1.2890 -1.0872
 6072TIP3    H242412   3.543   7.617   2.798  0.1180 -0.9636 -0.2082
 6073TIP3   OH242413   5.510   2.383   2.573 -0.1756  0.6420 -0.2336
 6073TIP3    H142414   5.429   2.391   2.622 -1.7110 -0.6887 -2.3723
 6073TIP3    H242415   5.557   2.311   2.616 -0.3271  1.0912  0.7149
 6074TIP3   OH242416   0.533   7.166   2.773  0.0771 -0.1619 -0.2298
 6074TIP3    H142417   0.518   7.184   2.866  1.4011 -2.7158  0.5731
 6074TIP3    H242418   0.481   7.232   2.727 -1.1359  0.7744  2.3018
 6075TIP3   OH242419   5.249   4.193   2.019  0.3241 -0.4242  0.6412
 6075TIP3    H142420   5.318   4.243   2.062 -0.2869  0.2793  0.8281
 6075TIP3    H242421   5.295   4.129   1.965  1.1278  0.5628  0.1264
 6076TIP3   OH242422   3.981   7.679   2.590  0.0154  0.1609  0.2500
 6076TIP3    H142423   3.994   7.772   2.572  1.0032 -0.4188 -2.7215
 6076TIP3    H242424   4.067   7.639   2.573 -0.5400 -1.3789  0.8503
 6077TIP3   OH242425   4.639   5.934   2.406 -0.1508  0.0360 -0.5835
 6077TIP3    H142426   4.603   6.018   2.379 -1.1190 -0.3909 -0.6354
 6077TIP3    H242427   4.694   5.907   2.332  0.4225  0.7650 -0.4340
 6078TIP3   OH242428   4.546   3.242   2.999  0.3904 -0.5339  0.1251
 6078TIP3    H142429   4.498   3.172   3.044 -1.4306  0.1675 -0.6083
 6078TIP3    H242430   4.504   3.322   3.030  1.5496  0.1651 -0.0812
 6079TIP3   OH242431   2.943   1.112   3.350  0.2978 -0.3307 -0.1028
 6079TIP3    H142432   2.882   1.123   3.424 -0.9433 -1.0170 -0.9791
 6079TIP3    H242433   3.029   1.102   3.391 -0.0172  1.4723  1.1648
 6080TIP3   OH242434   4.196   0.883   1.900  0.2650 -0.1477  0.2674
 6080TIP3    H142435   4.136   0.834   1.844  1.0325  0.5540 -1.2104
 6080TIP3    H242436   4.140   0.945   1.946 -0.4041 -0.8850  0.4752
 6081TIP3   OH242437   3.497   1.405   2.069 -0.3368 -0.0158 -0.2551
 6081TIP3    H142438   3.422   1.376   2.122 -0.1755 -0.9760 -0.5358
 6081TIP3    H242439   3.464   1.401   1.979  0.1058 -0.6484 -0.3963
 6082TIP3   OH242440   0.505   1.976   1.938 -0.3817 -0.1110  0.1407
 6082TIP3    H142441   0.476   2.030   2.011 -3.0366 -0.7217 -0.3652
 6082TIP3    H242442   0.544   1.899   1.980  1.8307  1.3081  0.8457
 6083TIP3   OH242443   3.166   0.915   2.526 -0.6905 -0.2578  0.2105
 6083TIP3    H142444   3.246   0.916   2.580 -1.1959  0.7126  0.9663
 6083TIP3    H242445   3.179   0.842   2.466  1.0787  0.2850 -0.1382
 6084TIP3   OH242446   4.083   6.096   1.631  0.2312 -0.2227 -0.1321
 6084TIP3    H142447   4.107   6.084   1.723  1.0323  1.5871 -0.0579
 6084TIP3    H242448   4.166   6.109   1.586 -0.0760 -2.1023 -1.3323
 6085TIP3   OH242449   5.946   5.869   1.455  0.1409 -0.0323 -0.0310
 6085TIP3    H142450   6.018   5.840   1.511 -1.2254 -2.0774  0.7649
 6085TIP3    H242451   5.955   5.816   1.376  0.7647  1.2870 -0.8800
 6086TIP3   OH242452   2.443   2.508   1.102 -0.1939  0.3129 -0.1031
 6086TIP3    H142453   2.527   2.514   1.147  0.5237  1.1223 -1.5085
 6086TIP3    H242454   2.409   2.597   1.102  0.4636  0.6161 -2.2970
 6087TIP3   OH242455   0.592   0.671   1.841  0.1219 -0.2937 -0.2869
 6087TIP3    H142456   0.633   0.585   1.847  1.3024  0.3256  1.0943
 6087TIP3    H242457   0.659   0.732   1.871 -0.2545  1.2798 -2.3952
 6088TIP3   OH242458   3.437   6.739   2.086 -0.1669  0.2404 -0.3016
 6088TIP3    H142459   3.389   6.657   2.072  0.8822 -1.0724  3.0238
 6088TIP3    H242460   3.385   6.786   2.151  1.2858  0.3012  0.8625
 6089TIP3   OH242461   6.516   5.451   2.373 -0.2452 -0.2896  0.1667
 6089TIP3    H142462   6.534   5.360   2.349 -0.0346 -0.3541  0.5578
 6089TIP3    H242463   6.435   5.447   2.425 -0.0629 -0.2984  0.4568
 6090TIP3   OH242464   2.324   4.075   1.078 -0.3183  0.7211  0.2171
 6090TIP3    H142465   2.409   4.030   1.081 -0.3243  0.6469 -0.5432
 6090TIP3    H242466   2.286   4.049   0.994 -0.9073  1.0972  0.3614
 6091TIP3   OH242467   4.200   5.075   2.085  0.6655 -0.2471 -0.0666
 6091TIP3    H142468   4.239   5.003   2.135  0.2773  0.1540  0.8525
 6091TIP3    H242469   4.238   5.154   2.124  1.3914  0.0439 -1.3317
 6092TIP3   OH242470   0.579   6.019   0.697 -0.0909  0.0438  0.3273
 6092TIP3    H142471   0.574   6.081   0.624  2.0749 -0.0941 -0.0145
 6092TIP3    H242472   0.489   6.014   0.731 -0.5877  2.3556 -0.4480
 6093TIP3   OH242473   5.522   3.225   1.995 -0.1924  0.0232 -0.3522
 6093TIP3    H142474   5.594   3.181   1.952  0.9034  1.6760 -0.3126
 6093TIP3    H242475   5.504   3.172   2.073  1.6033  0.0589  0.1222
 6094TIP3   OH242476   5.782   2.935   2.032  0.9900 -0.8730 -0.0177
 6094TIP3    H142477   5.762   2.960   1.942  1.1762  0.4124  0.2805
 6094TIP3    H242478   5.809   2.843   2.026 -1.2992 -1.5454 -0.9374
 6095TIP3   OH242479   6.421   5.967   1.980 -0.4492 -0.3628 -0.0626
 6095TIP3    H142480   6.444   6.056   1.954 -0.7103  0.0749  1.1228
 6095TIP3    H242481   6.501   5.932   2.019  0.1327 -1.2393 -1.9094
 6096TIP3   OH242482   5.212   6.312   2.097 -0.3302  0.0038 -0.7810
 6096TIP3    H142483   5.191   6.323   2.189  1.8656 -0.7868 -0.1117
 6096TIP3    H242484   5.233   6.219   2.088  1.8548  0.4947 -1.4800
 6097TIP3   OH242485   7.106   7.284   3.141 -0.1056 -0.3494 -0.1252
 6097TIP3    H142486   7.092   7.244   3.055 -1.1384  0.8359 -0.5497
 6097TIP3    H242487   7.063   7.370   3.134 -1.3958 -0.7509  2.0210
 6098TIP3   OH242488   2.101   6.311   3.259 -0.1723 -0.6973  0.4926
 6098TIP3    H142489   2.186   6.266   3.260  0.3179  0.1980  0.6324
 6098TIP3    H242490   2.079   6.321   3.352  0.4662  0.6823  0.5145
 6099TIP3   OH242491   6.650   1.951   1.482 -0.1447  0.1755  0.3390
 6099TIP3    H142492   6.611   2.023   1.434  0.4955  1.3802  1.5501
 6099TIP3    H242493   6.745   1.964   1.475 -0.0242 -0.3325  0.8535
 6100TIP3   OH242494   1.144   2.504   1.653 -0.5458 -0.0809 -0.2174
 6100TIP3    H142495   1.184   2.417   1.644  0.3515  0.2795  0.1431
 6100TIP3    H242496   1.091   2.514   1.575 -0.8901 -1.0719 -0.1250
 6101TIP3   OH242497   1.162   6.693   1.851 -0.5143 -0.1173 -0.0332
 6101TIP3    H142498   1.181   6.727   1.764 -0.9538 -0.5154 -0.2831
 6101TIP3    H242499   1.219   6.745   1.909  1.4244 -1.3324 -0.7490
 6102TIP3   OH242500   0.375   5.919   1.779  0.7183  0.3519 -0.4239
 6102TIP3    H142501   0.406   5.829   1.780 -0.0652  0.0770 -0.6333
 6102TIP3    H242502   0.394   5.950   1.690  0.7237  0.3055 -0.4385
 6103TIP3   OH242503   0.069   5.264   1.921  0.0465  0.3052  0.7086
 6103TIP3    H142504   0.092   5.222   1.838 -1.3872 -0.4136  0.6435
 6103TIP3    H242505   0.062   5.191   1.984 -0.4013  0.6717  1.0921
 6104TIP3   OH242506   1.964   1.870   1.571 -0.0116 -0.1288 -0.0318
 6104TIP3    H142507   1.941   1.780   1.593  0.3712 -0.9294 -2.6387
 6104TIP3    H242508   1.907   1.923   1.627 -2.7677 -1.9984 -0.8401
 6105TIP3   OH242509   2.236   6.427   3.054  0.1239 -0.2406 -0.4408
 6105TIP3    H142510   2.167   6.449   2.991 -0.0563 -0.6871 -0.4026
 6105TIP3    H242511   2.193   6.370   3.118  0.5472 -0.5838 -0.4594
 6106TIP3   OH242512   2.633   1.459   0.904  0.6611 -0.2181 -0.3907
 6106TIP3    H142513   2.539   1.442   0.910  0.4849  1.0372  1.1368
 6106TIP3    H242514   2.674   1.385   0.948  0.3453 -0.4059 -0.4105
 6107TIP3   OH242515   6.892   6.943   1.770 -0.2080  0.0561  0.1249
 6107TIP3    H142516   6.829   6.873   1.789 -0.5029 -0.1554 -1.4386
 6107TIP3    H242517   6.884   7.003   1.844 -2.0386 -0.1243  0.1395
 6108TIP3   OH242518   7.077   2.097   2.439  0.3735 -0.0539  0.4175
 6108TIP3    H142519   7.143   2.110   2.371 -1.4959 -2.7146 -2.1467
 6108TIP3    H242520   7.118   2.036   2.500  1.1028  0.1739  0.1704
 6109TIP3   OH242521   4.190   3.150   1.582  0.3223  0.1874  0.2337
 6109TIP3    H142522   4.197   3.057   1.603 -0.0885  0.2908  0.8684
 6109TIP3    H242523   4.261   3.190   1.631  0.4882  0.2112 -0.0260
 6110TIP3   OH242524   1.820   1.146   2.020  0.1733 -0.0362  0.0853
 6110TIP3    H142525   1.767   1.168   2.096  0.3539  3.0951 -0.5716
 6110TIP3    H242526   1.897   1.101   2.057 -1.0077 -1.0488  1.4204
 6111TIP3   OH242527   3.196   3.173   0.553 -0.3955  0.3191  0.4644
 6111TIP3    H142528   3.172   3.131   0.470  1.0593 -0.6214  0.4877
 6111TIP3    H242529   3.244   3.252   0.528  1.8754 -1.0240  0.3272
 6112TIP3   OH242530   3.240   6.602   2.638  0.1708 -0.1157  0.6574
 6112TIP3    H142531   3.185   6.527   2.662  1.3275 -1.1365  0.2264
 6112TIP3    H242532   3.195   6.677   2.676 -1.3811 -0.9355  0.5449
 6113TIP3   OH242533   7.134   5.446   0.776  0.0549 -0.0906 -0.0117
 6113TIP3    H142534   7.229   5.448   0.762  0.1611  0.6324  0.7212
 6113TIP3    H242535   7.101   5.385   0.710  0.8686  0.6607 -1.1400
 6114TIP3   OH242536   6.313   6.974   1.636  0.1350 -0.0112 -0.8210
 6114TIP3    H142537   6.381   7.042   1.646  0.1049 -0.0380 -0.4144
 6114TIP3    H242538   6.235   7.013   1.676 -0.3279  0.3570 -2.0354
 6115TIP3   OH242539   0.782   5.053   3.139 -0.4087  0.7917 -0.2151
 6115TIP3    H142540   0.791   5.055   3.043 -1.1171 -0.1311 -0.3135
 6115TIP3    H242541   0.869   5.030   3.171 -0.3262  0.4580 -0.6692
 6116TIP3   OH242542   0.758   6.355   3.553 -0.1038  0.2306 -0.2512
 6116TIP3    H142543   0.805   6.378   3.472 -0.2978  1.1711 -0.1090
 6116TIP3    H242544   0.827   6.345   3.619  0.0469 -0.4340 -0.4990
 6117TIP3   OH242545   4.926   6.303   1.804 -0.1243  0.3132  0.1740
 6117TIP3    H142546   4.880   6.288   1.887 -2.7503 -0.3353 -1.2626
 6117TIP3    H242547   4.912   6.395   1.785  0.9451  0.5927  0.6680
 6118TIP3   OH242548   0.838   1.296   0.836 -0.4999 -0.5648 -0.8603
 6118TIP3    H142549   0.896   1.220   0.841 -0.0360 -0.1440  0.6584
 6118TIP3    H242550   0.837   1.332   0.925 -0.3403  1.4698 -1.6170
 6119TIP3   OH242551   2.652   6.198   3.005  0.2789  0.2406 -0.2030
 6119TIP3    H142552   2.735   6.242   3.024 -1.0204  2.2075  1.3663
 6119TIP3    H242553   2.591   6.269   2.985 -1.2448 -1.0863 -0.5103
 6120TIP3   OH242554   2.341   3.516   1.069 -0.1791  0.6307 -0.0177
 6120TIP3    H142555   2.343   3.586   1.134  3.1652 -0.6718  1.5071
 6120TIP3    H242556   2.427   3.521   1.026 -0.2644 -1.8223 -0.6112
 6121TIP3   OH242557   0.728   2.892   2.267 -0.1008 -0.1880 -0.0860
 6121TIP3    H142558   0.686   2.966   2.224  0.0544  0.2239  0.4624
 6121TIP3    H242559   0.816   2.923   2.288 -0.7930  0.3201  2.2938
 6122TIP3   OH242560   1.401   0.383   1.273 -0.1015 -0.0677 -0.1291
 6122TIP3    H142561   1.448   0.314   1.320 -0.5160  1.5824  2.9312
 6122TIP3    H242562   1.309   0.356   1.274 -0.0636 -0.2177 -0.4032
 6123TIP3   OH242563   3.172   2.533   1.337 -0.2180 -0.2287  0.1181
 6123TIP3    H142564   3.163   2.523   1.242  1.3475  0.9855 -0.2024
 6123TIP3    H242565   3.253   2.486   1.358 -0.6222 -0.6007  0.8918
 6124TIP3   OH242566   1.326   7.632   1.886  0.5913  0.1558 -0.6645
 6124TIP3    H142567   1.260   7.605   1.822 -0.1256  0.5156 -0.0887
 6124TIP3    H242568   1.407   7.591   1.856  0.5120  1.1701 -2.4213
 6125TIP3   OH242569   6.760   2.189   2.623  0.1341  0.5519 -0.2348
 6125TIP3    H142570   6.755   2.124   2.693  0.5711  0.7663 -0.0031
 6125TIP3    H242571   6.712   2.149   2.550  1.3207 -0.5124 -0.4769
 6126TIP3   OH242572   0.059   0.317   1.138 -1.0873  0.4004  0.9294
 6126TIP3    H142573   0.023   0.254   1.076 -1.2239 -2.1948  3.4128
 6126TIP3    H242574   0.154   0.313   1.124 -1.2151  1.6351 -0.5984
 6127TIP3   OH242575   6.296   0.717   2.417 -0.1966 -0.3391  0.6368
 6127TIP3    H142576   6.330   0.698   2.504 -1.8764  0.7970  1.5909
 6127TIP3    H242577   6.361   0.775   2.378  1.2444 -1.9282  0.5582
 6128TIP3   OH242578   4.826   5.915   1.585  0.2762  0.0341  0.2072
 6128TIP3    H142579   4.880   5.955   1.517  3.7563 -0.1564  2.5756
 6128TIP3    H242580   4.831   5.821   1.567  0.4707  0.0387  0.2348
 6129TIP3   OH242581   6.935   7.514   1.261  0.3809  0.4032  0.0789
 6129TIP3    H142582   6.976   7.512   1.348  0.5481 -0.5829 -0.0052
 6129TIP3    H242583   6.843   7.495   1.277  0.4657 -0.0781  0.0235
 6130TIP3   OH242584   0.753   1.853   2.040 -0.0787 -0.1986  0.1740
 6130TIP3    H142585   0.830   1.808   2.005  1.7359  2.0790  0.9733
 6130TIP3    H242586   0.692   1.782   2.063  0.5424 -1.9826 -3.0713
 6131TIP3   OH242587   0.171   3.971   0.552  0.0381 -0.4919  0.1694
 6131TIP3    H142588   0.215   3.919   0.485  0.5686 -1.8777  1.5379
 6131TIP3    H242589   0.097   3.916   0.580 -0.8775  0.5734 -0.0672
 6132TIP3   OH242590   3.002   7.432   1.066  0.2164 -0.2284 -0.2906
 6132TIP3    H142591   2.961   7.489   1.001 -1.1948  0.2839  0.9882
 6132TIP3    H242592   2.929   7.399   1.118  1.3904  0.9083  2.2563
 6133TIP3   OH242593   6.851   5.483   0.599 -0.3611 -0.0311  0.1440
 6133TIP3    H142594   6.819   5.520   0.682 -3.0633 -0.2162 -0.7292
 6133TIP3    H242595   6.831   5.389   0.606 -0.7494 -0.0233 -0.7496
 6134TIP3   OH242596   6.309   6.987   2.769 -0.5612 -0.1431  0.1473
 6134TIP3    H142597   6.290   7.075   2.734  3.1057 -0.1975 -2.5252
 6134TIP3    H242598   6.241   6.932   2.730 -1.4403  1.1224 -0.2096
 6135TIP3   OH242599   3.989   6.739   2.857 -0.1754  0.2849 -0.0690
 6135TIP3    H142600   3.959   6.830   2.863  0.5202  0.5227 -0.0843
 6135TIP3    H242601   4.085   6.746   2.855 -0.0738 -0.4969  0.9841
 6136TIP3   OH242602   5.854   0.764   2.597  0.2478  0.4235  0.2608
 6136TIP3    H142603   5.782   0.813   2.557 -0.5970 -2.1288 -1.6478
 6136TIP3    H242604   5.910   0.740   2.523  0.8210 -1.1304  1.1544
 6137TIP3   OH242605   6.975   6.067   2.936  0.2312  0.3810  0.0697
 6137TIP3    H142606   6.932   6.138   2.985  2.4550  1.4833  0.5420
 6137TIP3    H242607   6.952   5.988   2.984 -0.8307  0.9851  0.5964
 6138TIP3   OH242608   0.312   2.949   2.230  0.2148  0.4927 -0.7059
 6138TIP3    H142609   0.338   2.924   2.141  1.3022  1.4319 -0.6715
 6138TIP3    H242610   0.392   2.943   2.282 -0.5852 -0.8489  0.4195
 6139TIP3   OH242611   1.261   2.229   1.602 -0.2575 -0.9209  0.3070
 6139TIP3    H142612   1.276   2.219   1.508 -0.5862 -2.6696  0.4138
 6139TIP3    H242613   1.348   2.242   1.638 -0.2292  1.1146 -0.3333
 6140TIP3   OH242614   7.463   5.704   1.745 -0.0001 -0.5536 -0.3043
 6140TIP3    H142615   7.554   5.730   1.754 -0.1359  0.9311 -2.4645
 6140TIP3    H242616   7.465   5.610   1.728  1.1681 -0.4399 -0.8500
 6141TIP3   OH242617   1.999   6.655   0.955  0.6778  0.1563 -0.2856
 6141TIP3    H142618   2.093   6.649   0.975  0.4771  0.8268  0.9237
 6141TIP3    H242619   1.957   6.605   1.024  0.2216 -1.9903 -2.0066
 6142TIP3   OH242620   4.017   4.423   1.586 -0.0101 -0.3346 -0.3898
 6142TIP3    H142621   4.043   4.351   1.644 -2.1888 -0.5309  0.4266
 6142TIP3    H242622   4.100   4.466   1.563  1.1215 -1.6293  1.0337
 6143TIP3   OH242623   5.161   1.149   2.308 -0.2047 -0.6509  0.0180
 6143TIP3    H142624   5.185   1.112   2.393 -0.0793 -0.4355  0.0795
 6143TIP3    H242625   5.199   1.237   2.310 -1.1679 -0.2211  0.2025
 6144TIP3   OH242626   1.579   7.245   2.348 -0.1461  0.9805  0.5221
 6144TIP3    H142627   1.533   7.320   2.386 -0.1678  1.4727 -0.4360
 6144TIP3    H242628   1.588   7.267   2.255  0.1811 -0.0415  0.2963
 6145TIP3   OH242629   5.352   6.655   2.434 -0.2497  0.3943  0.0466
 6145TIP3    H142630   5.337   6.749   2.431 -1.6276  0.3274  2.5970
 6145TIP3    H242631   5.361   6.634   2.527 -0.9936 -2.1146 -0.3562
 6146TIP3   OH242632   0.390   0.543   3.496 -0.0142  0.2722 -0.6530
 6146TIP3    H142633   0.462   0.536   3.434  0.3619 -0.6323 -0.1339
 6146TIP3    H242634   0.363   0.453   3.513 -0.0976  0.4966  0.5091
 6147TIP3   OH242635   3.896   2.999   2.776 -0.1904 -0.1421 -0.6044
 6147TIP3    H142636   3.889   2.924   2.837 -0.7443 -1.3173 -2.0615
 6147TIP3    H242637   3.840   3.066   2.814 -0.8249 -0.9915  0.0070
 6148TIP3   OH242638   0.481   2.321   1.123  0.2731  0.3415  0.2058
 6148TIP3    H142639   0.452   2.289   1.038  0.6715  0.6374 -0.0469
 6148TIP3    H242640   0.495   2.415   1.110 -0.8058  0.6168  0.9177
 6149TIP3   OH242641   0.762   0.867   0.638 -0.0132  0.0625  0.0813
 6149TIP3    H142642   0.672   0.851   0.610 -0.6430  0.0353  2.0146
 6149TIP3    H242643   0.802   0.780   0.642  0.0152  0.0457 -0.4538
 6150TIP3   OH242644   6.068   4.217   1.050 -0.1536  0.3361  0.1422
 6150TIP3    H142645   6.121   4.296   1.038 -0.2116  0.0952 -2.1207
 6150TIP3    H242646   6.132   4.147   1.061 -0.0360  0.3868 -0.1949
 6151TIP3   OH242647   2.463   5.222   1.635  0.6553 -0.0216 -0.2558
 6151TIP3    H142648   2.532   5.156   1.628  1.2679  0.6473 -0.7757
 6151TIP3    H242649   2.461   5.264   1.549 -0.4613 -0.0721 -0.2644
 6152TIP3   OH242650   4.227   5.548   0.670  0.0493 -0.4539  0.2144
 6152TIP3    H142651   4.210   5.640   0.647  0.7840 -0.4119 -0.1799
 6152TIP3    H242652   4.155   5.500   0.630  1.2817 -0.3841 -2.2308
 6153TIP3   OH242653   2.313   3.027   3.410  0.0934  0.0309  0.5511
 6153TIP3    H142654   2.278   3.084   3.478 -0.5275  0.7267 -0.3373
 6153TIP3    H242655   2.401   3.006   3.440  0.0364  0.7999  1.2889
 6154TIP3   OH242656   2.865   5.121   2.290 -0.5743  0.0707  0.2307
 6154TIP3    H142657   2.919   5.194   2.262 -1.1707 -0.3894 -2.3449
 6154TIP3    H242658   2.921   5.044   2.280 -1.1700 -0.2316 -0.9075
 6155TIP3   OH242659   2.421   0.234   2.688 -0.0756  0.0191  0.1493
 6155TIP3    H142660   2.399   0.263   2.599  0.8798  1.1223  0.2506
 6155TIP3    H242661   2.384   0.301   2.745 -0.4158 -0.5259  0.5811
 6156TIP3   OH242662   6.893   2.029   1.509  0.1537  0.1669  0.1883
 6156TIP3    H142663   6.942   1.971   1.451 -0.5139 -1.5307  1.2624
 6156TIP3    H242664   6.949   2.038   1.587 -0.9668 -1.4284  1.2365
 6157TIP3   OH242665   6.088   2.635   1.052 -0.0146 -0.4669  1.0320
 6157TIP3    H142666   6.006   2.683   1.053  0.4337  0.4017 -0.3533
 6157TIP3    H242667   6.073   2.562   0.993  0.4493  0.2046  0.0556
 6158TIP3   OH242668   1.484   2.039   2.703 -0.0824  0.5268 -0.3654
 6158TIP3    H142669   1.566   1.991   2.695 -1.4480 -2.2049  0.7118
 6158TIP3    H242670   1.471   2.049   2.797 -0.3703  2.1633 -0.5452
 6159TIP3   OH242671   1.672   2.151   2.144  0.3819  0.1160 -0.5689
 6159TIP3    H142672   1.704   2.100   2.070 -0.7128 -0.1915 -0.8422
 6159TIP3    H242673   1.741   2.141   2.211  0.3104 -1.5337 -0.6984
 6160TIP3   OH242674   6.780   5.123   3.033 -0.0511  0.2143 -0.4529
 6160TIP3    H142675   6.775   5.080   3.118 -0.1019 -3.3866 -2.1069
 6160TIP3    H242676   6.868   5.105   3.001 -0.2930  0.7828 -1.5254
 6161TIP3   OH242677   0.542   4.684   2.783  0.3917  0.3500  1.0264
 6161TIP3    H142678   0.488   4.704   2.706  1.2093 -1.8417 -0.1975
 6161TIP3    H242679   0.632   4.697   2.753  0.7634 -1.3899  1.2936
 6162TIP3   OH242680   7.586   6.995   3.474  0.4763 -0.0181  0.4080
 6162TIP3    H142681   7.674   6.982   3.508  0.7763 -1.2248 -0.7505
 6162TIP3    H242682   7.558   6.909   3.443 -2.1880 -0.2888  3.1178
 6163TIP3   OH242683   7.144   4.875   1.760 -0.0466  0.0665  0.5322
 6163TIP3    H142684   7.166   4.962   1.724 -0.3316  0.0836  0.4004
 6163TIP3    H242685   7.229   4.833   1.773  0.0637  0.0506 -0.1951
 6164TIP3   OH242686   4.452   2.180   0.653  0.2106 -0.0780 -0.3179
 6164TIP3    H142687   4.540   2.200   0.619  0.8446 -2.2162 -0.0743
 6164TIP3    H242688   4.463   2.098   0.699 -2.4016 -1.6885 -2.3085
 6165TIP3   OH242689   3.139   3.947   2.423  0.1284  0.7960  0.5871
 6165TIP3    H142690   3.119   3.930   2.515  0.9802  1.3253  0.8777
 6165TIP3    H242691   3.230   3.919   2.413  0.2986  1.5057  0.1118
 6166TIP3   OH242692   1.085   2.585   3.258  0.3281  0.0475 -0.1573
 6166TIP3    H142693   1.094   2.577   3.353  0.9384 -1.7165 -0.3383
 6166TIP3    H242694   1.066   2.497   3.227 -0.6782  0.7325 -1.6157
 6167TIP3   OH242695   0.709   1.542   1.936  0.7070 -0.4201  0.1322
 6167TIP3    H142696   0.794   1.581   1.915  1.1857 -1.5349 -0.0689
 6167TIP3    H242697   0.674   1.514   1.852 -0.1934  0.6493  0.1312
 6168TIP3   OH242698   0.884   7.365   3.863  0.0310 -0.3565  0.1134
 6168TIP3    H142699   0.956   7.428   3.856  1.1025 -1.7550 -4.2170
 6168TIP3    H242700   0.813   7.404   3.813 -0.7183 -0.9167  0.7120
 6169TIP3   OH242701   0.339   6.991   7.308  0.3055 -0.2797 -0.3396
 6169TIP3    H142702   0.434   6.999   7.296  0.1965  1.0733 -0.3902
 6169TIP3    H242703   0.323   6.896   7.307  1.7571 -0.5669  0.4579
 6170TIP3   OH242704   4.036   3.480   1.137 -0.2820  0.5561 -0.4919
 6170TIP3    H142705   4.083   3.506   1.216 -0.9730  0.5470 -0.0767
 6170TIP3    H242706   3.944   3.484   1.161 -0.5505  1.5265 -1.5874
 6171TIP3   OH242707   4.639   6.916   3.167  0.0201 -0.0090  0.1752
 6171TIP3    H142708   4.588   6.973   3.224  0.0446 -0.1053  0.2959
 6171TIP3    H242709   4.730   6.931   3.194  0.0579  0.1911 -0.0644
 6172TIP3   OH242710   4.511   5.806   0.659 -0.1271 -0.1914  0.1483
 6172TIP3    H142711   4.515   5.817   0.564  1.3355  2.7254  0.4394
 6172TIP3    H242712   4.417   5.799   0.678 -0.4979  0.2463 -1.4040
 6173TIP3   OH242713   2.639   3.150   2.330 -0.3266  0.3371 -0.3685
 6173TIP3    H142714   2.602   3.086   2.390 -0.5099  0.6787 -0.1091
 6173TIP3    H242715   2.567   3.210   2.312 -0.1853  0.4143 -0.6839
 6174TIP3   OH242716   0.919   2.817   1.777 -0.5425  0.0270  0.3933
 6174TIP3    H142717   0.900   2.740   1.831  0.1122 -0.2450  0.2495
 6174TIP3    H242718   0.843   2.825   1.720 -1.9940  1.2863  2.4101
 6175TIP3   OH242719   2.702   6.682   0.692 -0.4326  0.8219 -0.1408
 6175TIP3    H142720   2.621   6.717   0.728 -0.3450  0.0279  0.8769
 6175TIP3    H242721   2.770   6.742   0.723 -0.7612  2.6451 -2.6097
 6176TIP3   OH242722   3.863   6.321   1.925 -0.1592  0.5051 -0.1121
 6176TIP3    H142723   3.788   6.379   1.916 -0.7881 -0.1141  0.9024
 6176TIP3    H242724   3.901   6.344   2.010  1.8199  1.9320 -1.2867
 6177TIP3   OH242725   0.264   0.334   3.076 -0.2691 -0.1433 -0.3279
 6177TIP3    H142726   0.301   0.410   3.121  2.6379 -0.1434 -2.4021
 6177TIP3    H242727   0.172   0.356   3.063 -0.3696  1.3662  2.3223
 6178TIP3   OH242728   6.025   3.859   1.967  0.2187 -0.7618  0.4212
 6178TIP3    H142729   6.065   3.882   2.051  0.8393  0.1276 -0.1063
 6178TIP3    H242730   5.941   3.819   1.991 -0.6781  1.5461  1.4416
 6179TIP3   OH242731   6.055   1.198   1.752  0.2892  0.0671  0.1105
 6179TIP3    H142732   5.998   1.121   1.754  0.6096 -0.1737  0.0739
 6179TIP3    H242733   6.133   1.168   1.705 -0.4635  1.0209 -1.8642
 6180TIP3   OH242734   7.270   6.240   3.108  0.2855 -0.2037  0.4979
 6180TIP3    H142735   7.249   6.169   3.169 -0.2903 -0.3635  0.1247
 6180TIP3    H242736   7.191   6.293   3.104 -0.0786 -0.8086 -0.9256
 6181TIP3   OH242737   6.581   4.694   3.160 -0.3854 -0.0446  0.0486
 6181TIP3    H142738   6.607   4.628   3.095 -0.6462  0.4450 -0.5705
 6181TIP3    H242739   6.485   4.694   3.158 -0.4102 -0.4133  0.8448
 6182TIP3   OH242740   0.979   4.730   1.867  0.0581  0.0977  0.1569
 6182TIP3    H142741   0.945   4.666   1.930 -2.9962 -1.0118 -2.4046
 6182TIP3    H242742   0.921   4.806   1.876  1.4229  1.1379  0.6195
 6183TIP3   OH242743   2.319   0.152   1.666 -0.0329 -0.8916 -0.4904
 6183TIP3    H142744   2.370   0.076   1.637  0.4597 -0.7659  0.0284
 6183TIP3    H242745   2.286   0.191   1.585  3.5045  1.0330 -1.2227
 6184TIP3   OH242746   5.523   5.633   3.299  0.0747 -0.5331 -0.0905
 6184TIP3    H142747   5.597   5.577   3.276 -0.7388 -1.9995  0.7064
 6184TIP3    H242748   5.555   5.722   3.285  2.5210 -1.0213  1.6334
 6185TIP3   OH242749   1.516   5.777   3.513 -0.0009  0.1914  0.3109
 6185TIP3    H142750   1.491   5.704   3.570  1.6302 -0.0049  0.8281
 6185TIP3    H242751   1.492   5.855   3.564  1.7638  0.0217  1.4823
 6186TIP3   OH242752   1.389   4.799   2.379 -0.1645 -0.6524  0.1942
 6186TIP3    H142753   1.410   4.729   2.317 -5.6215 -1.1678 -1.6016
 6186TIP3    H242754   1.406   4.880   2.330  1.3180 -0.7955  0.4133
 6187TIP3   OH242755   0.264   5.810   1.076  0.7885  0.5737 -0.6795
 6187TIP3    H142756   0.201   5.755   1.124  1.2179  1.3388  0.8432
 6187TIP3    H242757   0.283   5.761   0.997 -2.2019  0.5708 -1.5375
 6188TIP3   OH242758   4.921   7.599   2.477  0.0882  0.4582  0.2186
 6188TIP3    H142759   4.940   7.638   2.392  1.3354 -1.3095 -0.3615
 6188TIP3    H242760   4.849   7.538   2.462 -1.0331  1.5651  0.8753
 6189TIP3   OH242761   6.844   2.297   2.168 -0.3879 -0.1988  0.2407
 6189TIP3    H142762   6.921   2.311   2.112 -1.4692  0.9293 -1.0438
 6189TIP3    H242763   6.834   2.202   2.172  1.4284 -0.4121  0.9956
 6190TIP3   OH242764   0.606   4.165   2.762  0.8851 -0.0413  0.4833
 6190TIP3    H142765   0.524   4.180   2.809 -0.9893 -2.5237 -1.6599
 6190TIP3    H242766   0.593   4.207   2.677  0.8928 -2.1784 -0.6464
 6191TIP3   OH242767   1.306   7.501   1.218 -0.0159  0.0779  0.0424
 6191TIP3    H142768   1.308   7.410   1.188 -1.3802 -0.1957  0.7099
 6191TIP3    H242769   1.391   7.536   1.191 -0.0845 -0.9245 -1.6666
 6192TIP3   OH242770   5.396   2.221   2.793  0.6514  0.2833  0.2330
 6192TIP3    H142771   5.489   2.227   2.816  0.5947  0.7678  0.3447
 6192TIP3    H242772   5.366   2.312   2.789  0.2057  0.1339  0.0937
 6193TIP3   OH242773   5.612   2.638   2.476 -0.0987 -0.6632 -0.0265
 6193TIP3    H142774   5.592   2.572   2.409 -0.7085 -0.6516  0.1392
 6193TIP3    H242775   5.629   2.588   2.555  0.5869 -0.6743 -0.1666
 6194TIP3   OH242776   4.078   0.043   1.100 -0.3305  0.1182 -0.5685
 6194TIP3    H142777   4.033  -0.017   1.040 -0.3147  0.0889 -0.5511
 6194TIP3    H242778   4.154  -0.007   1.130 -0.1434  0.2573 -0.7996
 6195TIP3   OH242779   4.325   3.972   1.387 -0.0388  0.5306  0.0445
 6195TIP3    H142780   4.338   4.065   1.406 -2.9020  0.7161  1.6273
 6195TIP3    H242781   4.313   3.932   1.472  2.3435 -1.6227 -0.5085
 6196TIP3   OH242782   5.833   0.136   1.561  0.2159  0.2528 -0.3321
 6196TIP3    H142783   5.744   0.141   1.595  0.3355  0.2757 -0.0277
 6196TIP3    H242784   5.829   0.182   1.477 -0.2172 -0.3485 -0.6456
 6197TIP3   OH242785   2.565   1.492   1.773 -0.0657 -0.2640 -0.1704
 6197TIP3    H142786   2.659   1.484   1.755  0.2779 -0.7670  1.6537
 6197TIP3    H242787   2.533   1.402   1.772 -0.7889 -0.0234 -1.8689
 6198TIP3   OH242788   2.233   6.289   1.526  0.5247 -0.0459 -0.6851
 6198TIP3    H142789   2.253   6.246   1.443 -2.7268  0.3319 -1.8076
 6198TIP3    H242790   2.244   6.382   1.509 -1.5359  0.1535 -1.2576
 6199TIP3   OH242791   2.866   0.784   1.918 -0.2249  0.6502 -0.0322
 6199TIP3    H142792   2.936   0.814   1.860 -0.4061 -1.7590 -1.6323
 6199TIP3    H242793   2.873   0.841   1.995  1.2353  2.7327 -1.5945
 6200TIP3   OH242794   0.074   3.856   1.840  0.5931  0.2068  0.0306
 6200TIP3    H142795   0.052   3.794   1.771 -0.0797  1.5206 -0.9760
 6200TIP3    H242796  -0.006   3.867   1.890  0.8223 -0.0175  0.4594
 6201TIP3   OH242797   4.759   2.156   2.666  0.3105 -0.0716 -0.2388
 6201TIP3    H142798   4.760   2.145   2.570  2.3681 -1.0487 -0.1655
 6201TIP3    H242799   4.690   2.220   2.682 -1.5110 -1.3801 -2.1907
 6202TIP3   OH242800   3.209   2.006   0.894 -0.4317 -0.3852 -0.3088
 6202TIP3    H142801   3.237   2.088   0.854  1.6055 -0.6121  0.5401
 6202TIP3    H242802   3.171   2.032   0.978  0.7536 -0.3327  0.2225
 6203TIP3   OH242803   2.936   3.176   1.820 -0.0316  0.2017  0.5122
 6203TIP3    H142804   2.889   3.186   1.737  0.0046 -1.0347  0.3281
 6203TIP3    H242805   2.911   3.089   1.852  1.7102 -0.2808  0.6657
 6204TIP3   OH242806   5.939   6.949   1.912 -0.2606  0.7260  0.0597
 6204TIP3    H142807   5.924   6.953   1.817  2.2214 -1.1931 -0.5321
 6204TIP3    H242808   5.856   6.916   1.947 -0.9978  0.7513 -1.5329
 6205TIP3   OH242809   4.858   1.010   0.555 -0.5119  0.8030  0.5199
 6205TIP3    H142810   4.804   0.952   0.609  0.8358  0.3232  1.4069
 6205TIP3    H242811   4.864   0.965   0.471  2.5488 -1.7596  1.9107
 6206TIP3   OH242812   3.570   3.919   3.269 -0.0149  0.2410 -0.4369
 6206TIP3    H142813   3.509   3.973   3.218  0.8252  0.2165 -1.4832
 6206TIP3    H242814   3.656   3.939   3.233  0.4078 -1.1229 -0.2300
 6207TIP3   OH242815   6.522   1.271   0.564  0.1965  0.2549  0.3505
 6207TIP3    H142816   6.579   1.204   0.527  1.2440  1.5479 -0.4676
 6207TIP3    H242817   6.434   1.246   0.534  0.6371 -0.4421 -0.4117
 6208TIP3   OH242818   1.839   3.019   0.808 -1.1338  0.2895 -0.1120
 6208TIP3    H142819   1.911   3.076   0.780 -1.7649  0.7230 -0.9018
 6208TIP3    H242820   1.773   3.080   0.841 -0.6694 -0.1727  1.7602
 6209TIP3   OH242821   3.095   6.406   1.608 -0.0819 -0.1261 -0.4968
 6209TIP3    H142822   3.014   6.366   1.575 -0.6140 -2.0322  2.7402
 6209TIP3    H242823   3.159   6.334   1.607  0.3799  0.2458  0.8229
 6210TIP3   OH242824   1.044   7.502   1.119  0.0776  0.1353  0.2649
 6210TIP3    H142825   1.129   7.487   1.160  0.0757  0.3740  0.3572
 6210TIP3    H242826   0.988   7.534   1.190 -0.1372 -0.1804  0.2424
 6211TIP3   OH242827   2.462   4.333   0.494  0.7756  0.5676 -0.6561
 6211TIP3    H142828   2.399   4.302   0.559  0.1808  0.4870 -1.2616
 6211TIP3    H242829   2.456   4.270   0.422  0.8706  1.0752 -1.1181
 6212TIP3   OH242830   6.613   6.009   0.781 -0.2684 -0.0789 -0.8951
 6212TIP3    H142831   6.597   6.092   0.737 -0.9141  0.4654  0.3063
 6212TIP3    H242832   6.666   6.033   0.857  0.1867 -0.8818 -0.9509
 6213TIP3   OH242833   5.864   4.356   2.254 -0.5976  0.5328  0.1088
 6213TIP3    H142834   5.864   4.285   2.189 -2.1298  1.5353 -1.0682
 6213TIP3    H242835   5.919   4.423   2.215  0.7888  0.0572  1.1894
 6214TIP3   OH242836   2.478   4.416   1.841 -0.0914 -0.2058 -0.5233
 6214TIP3    H142837   2.523   4.423   1.925 -1.4353 -0.2733  0.2326
 6214TIP3    H242838   2.414   4.346   1.854  0.5316 -1.1095 -2.0210
 6215TIP3   OH242839   5.140   0.672   2.964 -0.0304  0.0897  0.0766
 6215TIP3    H142840   5.084   0.730   3.015  1.1959 -0.5166  2.2187
 6215TIP3    H242841   5.124   0.585   3.000  0.6867 -0.3977 -0.7374
 6216TIP3   OH242842   6.601   6.457   1.816  0.3983  0.3378  0.2233
 6216TIP3    H142843   6.665   6.449   1.744  0.5606  0.1464  0.3893
 6216TIP3    H242844   6.648   6.427   1.893 -0.0377 -0.2316  0.2735
 6217TIP3   OH242845   1.900   1.206   1.749 -0.2509 -0.0189 -0.3864
 6217TIP3    H142846   1.880   1.178   1.838 -0.2456  0.0049 -0.3778
 6217TIP3    H242847   1.822   1.254   1.720 -0.6105 -0.7876 -0.7124
 6218TIP3   OH242848   3.198   1.048   3.399 -0.0817  0.0396 -0.3874
 6218TIP3    H142849   3.242   1.111   3.341 -0.4210 -0.7296 -1.4988
 6218TIP3    H242850   3.181   0.972   3.344 -2.6891  0.2254  0.0230
 6219TIP3   OH242851   6.791   4.551   1.165 -0.2193  0.2241 -0.6619
 6219TIP3    H142852   6.782   4.606   1.243 -1.7604 -0.2743 -0.4711
 6219TIP3    H242853   6.744   4.599   1.097 -0.5831 -0.3116 -0.7864
 6220TIP3   OH242854   4.064   4.357   2.421 -0.1416 -0.7639  0.2940
 6220TIP3    H142855   4.003   4.419   2.460  0.3728  0.5421 -0.9255
 6220TIP3    H242856   4.108   4.317   2.496 -1.5686 -0.8165  1.1454
 6221TIP3   OH242857   3.343   2.000   2.553  0.4521 -0.6268  0.6271
 6221TIP3    H142858   3.341   2.052   2.473 -0.0200 -1.1355  0.2963
 6221TIP3    H242859   3.424   2.025   2.597  0.7649 -0.4217 -0.0653
 6222TIP3   OH242860   2.261   3.146   2.136  0.5146 -0.5696  0.2747
 6222TIP3    H142861   2.250   3.238   2.113 -0.4239 -0.5361  0.8018
 6222TIP3    H242862   2.203   3.099   2.077 -0.3636 -0.6557  1.1748
 6223TIP3   OH242863   6.373   0.702   3.226 -0.3234  0.1470 -0.5903
 6223TIP3    H142864   6.299   0.642   3.219  0.4649 -0.7214 -2.0301
 6223TIP3    H242865   6.352   0.773   3.165  0.2775 -0.4128 -1.4748
 6224TIP3   OH242866   3.830   2.836   2.053  0.6949  0.3946  0.2604
 6224TIP3    H142867   3.872   2.787   1.982  0.8615  0.9866 -0.0576
 6224TIP3    H242868   3.855   2.789   2.133 -1.2613 -1.5601 -0.1856
 6225TIP3   OH242869   0.004   4.275   2.526 -0.3738  0.3407  0.0823
 6225TIP3    H142870  -0.051   4.352   2.542 -0.7862  0.1555 -0.4238
 6225TIP3    H242871  -0.052   4.201   2.551  0.1803  0.2189  1.0028
 6226TIP3   OH242872   4.480   4.490   1.136 -0.2974 -0.8171  0.7371
 6226TIP3    H142873   4.470   4.446   1.051 -0.4691 -1.1211  0.9121
 6226TIP3    H242874   4.536   4.431   1.186 -1.1029 -1.1852  1.2175
 6227TIP3   OH242875   1.161   0.930   1.385  0.3476 -0.0261 -0.5084
 6227TIP3    H142876   1.124   0.985   1.454  0.6214 -1.6844  1.0181
 6227TIP3    H242877   1.202   0.992   1.325 -0.2622  1.4919  0.5711
 6228TIP3   OH242878   7.676   3.679   1.609  0.0488  0.7903  0.0629
 6228TIP3    H142879   7.760   3.634   1.604 -0.1499  0.4492 -0.2311
 6228TIP3    H242880   7.630   3.636   1.681 -0.0342  0.7008 -0.0428
 6229TIP3   OH242881   2.362   1.440   2.895 -0.3211  0.6528 -0.5006
 6229TIP3    H142882   2.319   1.461   2.978 -0.8542  3.1904 -1.3218
 6229TIP3    H242883   2.438   1.387   2.920 -1.7056 -0.5630  1.3529
 6230TIP3   OH242884   1.681   3.730   1.456 -0.2928 -0.1174  0.2891
 6230TIP3    H142885   1.604   3.680   1.427 -0.0198 -1.4679  1.7854
 6230TIP3    H242886   1.724   3.674   1.519  1.9357  0.6398 -0.4658
 6231TIP3   OH242887   0.535   5.259   1.660 -0.0242 -0.5366  0.3702
 6231TIP3    H142888   0.583   5.317   1.600  0.1556 -0.0079  1.0196
 6231TIP3    H242889   0.602   5.205   1.700 -0.1920 -1.2143 -0.2350
 6232TIP3   OH242890   7.375   1.164   1.079 -0.2207  0.2423  0.0934
 6232TIP3    H142891   7.339   1.220   1.010 -0.5352  0.9579  0.8172
 6232TIP3    H242892   7.321   1.182   1.155 -0.7022 -1.5084  0.2112
 6233TIP3   OH242893   5.401   2.888   2.163  0.5343  0.1422 -0.7853
 6233TIP3    H142894   5.412   2.841   2.246  1.6089 -0.4437 -1.2381
 6233TIP3    H242895   5.425   2.824   2.096 -1.1834  0.3250 -1.6232
 6234TIP3   OH242896   3.511   6.243   1.414 -0.1397 -0.4289 -0.3766
 6234TIP3    H142897   3.600   6.212   1.396 -0.6978 -2.0233 -0.6026
 6234TIP3    H242898   3.459   6.211   1.340 -0.6793  1.6875 -0.9689
 6235TIP3   OH242899   5.554   5.720   0.899 -0.2173 -0.1087 -0.5986
 6235TIP3    H142900   5.580   5.701   0.990 -2.4877 -1.2098 -0.1152
 6235TIP3    H242901   5.468   5.679   0.890 -0.5618  1.0029 -2.9085
 6236TIP3   OH242902   6.503   5.969   3.281 -0.4424  0.2486  0.4033
 6236TIP3    H142903   6.521   5.929   3.367  1.0400 -1.7168 -0.7336
 6236TIP3    H242904   6.556   5.917   3.220 -2.4954  0.7333 -1.8904
 6237TIP3   OH242905   5.609   4.244   1.365 -0.4808  0.1530 -0.1851
 6237TIP3    H142906   5.676   4.225   1.301  0.5334 -1.9423  1.3948
 6237TIP3    H242907   5.567   4.324   1.333  2.5505  1.4163 -1.3836
 6238TIP3   OH242908   6.478   5.356   0.863 -0.6435  0.6762  0.4071
 6238TIP3    H142909   6.567   5.343   0.830 -1.1555  1.4453 -1.3411
 6238TIP3    H242910   6.464   5.450   0.859 -1.9758  0.4684 -0.5619
 6239TIP3   OH242911   1.097   2.876   0.664  0.0971  0.4862  0.4756
 6239TIP3    H142912   1.040   2.800   0.651  2.2289 -1.0557 -0.5139
 6239TIP3    H242913   1.076   2.908   0.751 -2.7931  0.5236 -0.1462
 6240TIP3   OH242914   5.146   1.762   2.199 -0.9033 -0.1436  0.4241
 6240TIP3    H142915   5.138   1.681   2.250 -0.6061 -0.8625 -0.6371
 6240TIP3    H242916   5.226   1.750   2.148 -0.4889  1.1186  0.7338
 6241TIP3   OH242917   4.877   6.016   2.821 -0.1598  0.5101  0.5613
 6241TIP3    H142918   4.903   6.046   2.908  0.6356  1.4371  0.0284
 6241TIP3    H242919   4.919   6.078   2.761  2.1637 -2.0377 -0.6553
 6242TIP3   OH242920   1.850   3.251   1.205  0.4997  0.0248  0.0519
 6242TIP3    H142921   1.903   3.190   1.258 -1.9915 -0.7948  1.7903
 6242TIP3    H242922   1.856   3.334   1.252 -1.7333 -0.7084  1.8280
 6243TIP3   OH242923   3.832   5.248   1.689  0.3567  0.2003 -0.0430
 6243TIP3    H142924   3.825   5.178   1.623  0.6916 -1.0449  1.1996
 6243TIP3    H242925   3.747   5.247   1.733  0.4251  0.4580  0.0942
 6244TIP3   OH242926   3.680   1.913   0.922  0.1839  0.3347  0.0596
 6244TIP3    H142927   3.652   1.983   0.981 -1.0465  0.1725 -0.2975
 6244TIP3    H242928   3.695   1.957   0.838  0.7126  0.3716  0.1710
 6245TIP3   OH242929   6.426   2.603   2.056 -0.1065 -0.0638  0.3479
 6245TIP3    H142930   6.437   2.508   2.049  2.4531  0.0790  1.3778
 6245TIP3    H242931   6.499   2.640   2.006 -2.2100  1.5045 -1.8247
 6246TIP3   OH242932   4.350   6.244   0.959 -0.4738  0.9769 -0.1843
 6246TIP3    H142933   4.357   6.155   0.996 -1.1939  0.9917  0.0026
 6246TIP3    H242934   4.440   6.267   0.936 -0.2240  0.3474  0.1223
 6247TIP3   OH242935   3.319   4.496   0.937 -0.1120 -0.1547  0.1722
 6247TIP3    H142936   3.330   4.462   0.848  0.1755  0.7074 -0.1212
 6247TIP3    H242937   3.294   4.419   0.988  0.2450 -0.7613 -0.5462
 6248TIP3   OH242938   1.384   0.321   0.861 -0.1835 -0.4189 -0.0425
 6248TIP3    H142939   1.315   0.265   0.825 -0.5479 -0.2085  0.3209
 6248TIP3    H242940   1.340   0.405   0.878  0.1198 -0.3329  0.3341
 6249TIP3   OH242941   0.802   6.292   2.004 -0.7334  0.2982  0.0806
 6249TIP3    H142942   0.886   6.261   2.037  0.0812  0.2657 -1.9277
 6249TIP3    H242943   0.807   6.387   2.010 -0.4567  0.3045 -0.2671
 6250TIP3   OH242944   0.420   0.590   0.760  0.1081  0.0748  0.2067
 6250TIP3    H142945   0.463   0.675   0.745 -1.0009  0.8955  1.4712
 6250TIP3    H242946   0.492   0.527   0.760  1.6108  1.5379  3.5102
 6251TIP3   OH242947   2.193   1.107   2.682  0.3563  0.2309  0.0722
 6251TIP3    H142948   2.276   1.070   2.651  0.0057  0.9142 -1.7995
 6251TIP3    H242949   2.201   1.201   2.666 -0.7407  0.3154 -0.0325
 6252TIP3   OH242950   7.092   3.808   2.483  0.0551  0.6148 -0.8470
 6252TIP3    H142951   7.002   3.795   2.454 -0.0254  2.0674 -1.3451
 6252TIP3    H242952   7.123   3.720   2.505 -0.6106 -0.3061 -3.2020
 6253TIP3   OH242953   5.757   6.532   1.374 -0.4642  0.4321 -0.5943
 6253TIP3    H142954   5.849   6.508   1.385 -0.0287  2.0063 -0.6751
 6253TIP3    H242955   5.754   6.625   1.393 -2.1311  0.3092 -0.1646
 6254TIP3   OH242956   3.932   3.552   1.853 -0.0644  0.7579  0.3006
 6254TIP3    H142957   3.873   3.511   1.790  0.4658 -0.0545  0.3159
 6254TIP3    H242958   3.916   3.506   1.935 -1.3645  2.3814  1.0097
 6255TIP3   OH242959   2.853   7.095   0.558 -0.0913 -0.0941 -0.1081
 6255TIP3    H142960   2.861   7.078   0.464 -0.7119 -1.0063 -0.0112
 6255TIP3    H242961   2.899   7.177   0.572 -0.8057  0.5399 -1.3669
 6256TIP3   OH242962   0.872   5.925   2.106  0.1249  0.2164 -0.2883
 6256TIP3    H142963   0.867   5.954   2.015  0.0449  2.9122  0.4911
 6256TIP3    H242964   0.798   5.968   2.149  1.7085  1.2250  1.5725
 6257TIP3   OH242965   4.501   5.677   2.091 -0.0726 -0.5425 -0.6186
 6257TIP3    H142966   4.506   5.677   2.187  1.3695 -0.4016 -0.6646
 6257TIP3    H242967   4.436   5.610   2.070  0.3975 -1.3590  0.4430
 6258TIP3   OH242968   1.564   0.878   3.306 -0.1510  0.6713  0.6321
 6258TIP3    H142969   1.593   0.817   3.374 -0.0016 -0.4496 -0.3989
 6258TIP3    H242970   1.528   0.952   3.354 -0.8062 -0.4529  1.9363
 6259TIP3   OH242971   5.788   6.084   0.850  0.6542 -0.2484 -0.2568
 6259TIP3    H142972   5.873   6.129   0.844  0.3314  0.2930 -1.0689
 6259TIP3    H242973   5.752   6.113   0.934  0.6303  0.7149 -0.5831
 6260TIP3   OH242974   1.853   2.195   2.325 -0.8337 -0.4944  0.2896
 6260TIP3    H142975   1.867   2.160   2.414  1.5543  0.2366  0.2840
 6260TIP3    H242976   1.930   2.167   2.276 -0.7246  1.4776 -0.7683
 6261TIP3   OH242977   6.155   1.554   2.799  0.6063 -0.1622 -0.2342
 6261TIP3    H142978   6.248   1.537   2.783  0.4661  0.0656 -1.4625
 6261TIP3    H242979   6.120   1.573   2.712 -0.4040  0.6667  0.3315
 6262TIP3   OH242980   4.347   5.350   1.872  0.6719  0.6374 -0.1218
 6262TIP3    H142981   4.311   5.407   1.939  2.1413  0.6941  0.6328
 6262TIP3    H242982   4.274   5.291   1.850 -1.1592  3.1763 -1.4831
 6263TIP3   OH242983   0.279   4.578   1.384 -0.5998 -0.4888  0.4213
 6263TIP3    H142984   0.369   4.602   1.405 -1.1715  1.1112  1.1896
 6263TIP3    H242985   0.253   4.519   1.455  0.0552 -1.5590 -0.2028
 6264TIP3   OH242986   2.984   3.663   1.361 -0.2424 -0.2256  0.1612
 6264TIP3    H142987   3.052   3.616   1.311  0.8077 -0.5681  1.8219
 6264TIP3    H242988   2.902   3.637   1.320  0.5925 -0.1753 -1.6188
 6265TIP3   OH242989   7.646   1.152   1.887 -0.6175  0.6627  0.0157
 6265TIP3    H142990   7.601   1.099   1.952  0.2399 -0.1462 -0.0390
 6265TIP3    H242991   7.677   1.090   1.821 -1.5835  1.4652 -1.2663
 6266TIP3   OH242992   5.366   0.190   1.051  0.8281  0.1444 -0.6222
 6266TIP3    H142993   5.343   0.265   1.107 -0.4889 -0.3443 -0.4803
 6266TIP3    H242994   5.337   0.216   0.964 -1.0686 -0.7735 -0.3145
 6267TIP3   OH242995   5.566   1.530   1.898 -0.1061 -0.1745 -0.2214
 6267TIP3    H142996   5.578   1.607   1.842 -0.3896 -0.5659 -0.8220
 6267TIP3    H242997   5.651   1.519   1.942 -0.3677  1.0859  0.6556
 6268TIP3   OH242998   3.643   3.353   1.836 -0.1723 -0.5744  0.0986
 6268TIP3    H142999   3.666   3.295   1.908  0.5549 -1.9538 -1.1960
 6268TIP3    H243000   3.651   3.441   1.873 -1.3777 -1.2432  2.1252
 6269TIP3   OH243001   1.464   1.363   0.792  0.4045 -0.9317 -0.6526
 6269TIP3    H143002   1.538   1.312   0.759 -0.1114 -1.5931 -0.8016
 6269TIP3    H243003   1.395   1.349   0.728 -0.1475 -1.0727 -0.0401
 6270TIP3   OH243004   2.389   0.219   3.745 -0.3745  0.4283  0.2458
 6270TIP3    H143005   2.457   0.197   3.809 -0.5995  0.1798  0.4041
 6270TIP3    H243006   2.360   0.134   3.712 -1.1693  0.4812  0.7735
 6271TIP3   OH243007   4.877   0.776   1.539 -0.3351  0.4506  0.0624
 6271TIP3    H143008   4.837   0.690   1.528  1.0253 -0.3627  1.0447
 6271TIP3    H243009   4.878   0.813   1.451 -1.3081 -0.3630 -0.3147
 6272TIP3   OH243010   1.743   1.082   2.575 -0.1511  0.4944 -0.4718
 6272TIP3    H143011   1.794   1.011   2.537  0.8623  1.3835 -0.8337
 6272TIP3    H243012   1.694   1.041   2.646 -0.1518 -0.6961 -1.1285
 6273TIP3   OH243013   3.879   7.665   1.857  0.4258  0.0912 -0.2390
 6273TIP3    H143014   3.799   7.716   1.844 -0.5383 -1.5126 -0.9552
 6273TIP3    H243015   3.850   7.584   1.898  1.7976 -0.2454  0.1313
 6274TIP3   OH243016   7.528   5.989   0.655 -0.3912  0.6381  0.6783
 6274TIP3    H143017   7.467   5.926   0.618  0.6192  0.7660 -1.3322
 6274TIP3    H243018   7.516   6.068   0.603  2.1771  0.3319 -0.5574
 6275TIP3   OH243019   6.261   3.298   1.496 -0.3757  0.1605 -0.0209
 6275TIP3    H143020   6.322   3.226   1.508 -0.4296 -0.2872 -2.1413
 6275TIP3    H243021   6.265   3.347   1.579  0.4688 -1.6234  1.0518
 6276TIP3   OH243022   2.649   1.016   2.822 -0.1686  0.6591  0.6120
 6276TIP3    H143023   2.556   1.009   2.843 -0.1392  1.7197  1.2021
 6276TIP3    H243024   2.680   1.089   2.876  0.5548  1.6451 -1.0295
 6277TIP3   OH243025   2.451   1.657   2.261 -0.4261 -0.0412  0.1063
 6277TIP3    H143026   2.392   1.582   2.261 -0.8686  0.2987  0.0251
 6277TIP3    H243027   2.439   1.697   2.347  3.6297 -2.9693  2.3396
 6278TIP3   OH243028   5.674   1.762   2.127 -0.7275  0.2809 -0.9460
 6278TIP3    H143029   5.724   1.772   2.046 -0.6245 -1.3776 -1.1203
 6278TIP3    H243030   5.697   1.839   2.179  1.1403  0.1372 -1.4819
 6279TIP3   OH243031   2.178   2.549   0.910  0.0364  0.1710  0.2990
 6279TIP3    H143032   2.094   2.551   0.956 -0.3965 -1.0000 -0.3808
 6279TIP3    H243033   2.195   2.455   0.897  0.2499  0.4572 -1.6975
 6280TIP3   OH243034   6.843   2.889   1.791  0.0570  0.4883  0.1264
 6280TIP3    H143035   6.812   2.813   1.741  1.0653 -0.2412  0.5816
 6280TIP3    H243036   6.937   2.894   1.771  0.2829  0.7604  1.2036
 6281TIP3   OH243037   2.505   4.513   0.717  0.4427  0.0159 -0.2014
 6281TIP3    H143038   2.477   4.449   0.651  1.6358 -1.4093  0.5931
 6281TIP3    H243039   2.429   4.521   0.776 -0.2996  0.6098 -1.2060
 6282TIP3   OH243040   7.409   6.595   0.690 -0.4450  0.2252 -0.0224
 6282TIP3    H143041   7.319   6.619   0.713 -0.2212  0.3974  0.7106
 6282TIP3    H243042   7.457   6.678   0.690 -0.3176  0.1511 -0.5544
 6283TIP3   OH243043   5.180   7.019   1.282  0.2185  0.3491  0.7345
 6283TIP3    H143044   5.181   7.114   1.276  1.4806  0.3565  0.6203
 6283TIP3    H243045   5.102   6.992   1.235 -0.7058  1.3692  1.6249
 6284TIP3   OH243046   7.537   1.425   1.981  0.4848 -0.8954 -0.4469
 6284TIP3    H143047   7.521   1.352   1.921 -1.0605  0.0833 -1.2782
 6284TIP3    H243048   7.614   1.470   1.945  0.5141 -1.2253 -0.7986
 6285TIP3   OH243049   2.590   6.155   1.027  0.2695  0.8355 -0.2358
 6285TIP3    H143050   2.624   6.203   0.951  1.0199 -1.2108 -1.2675
 6285TIP3    H243051   2.497   6.144   1.008  0.8091 -1.4032 -1.9336
 6286TIP3   OH243052   0.179   2.994   2.482  0.7175  0.1714 -0.2638
 6286TIP3    H143053   0.188   2.906   2.520  1.9516  0.0584 -0.7591
 6286TIP3    H243054   0.206   2.983   2.391 -0.0312  0.8914 -0.5790
 6287TIP3   OH243055   0.440   4.940   1.931 -0.1518  0.2849  0.7756
 6287TIP3    H143056   0.453   4.873   1.998 -0.0555 -0.2510  0.2320
 6287TIP3    H243057   0.513   4.928   1.870 -0.0727  0.9625  0.7339
 6288TIP3   OH243058   1.375   1.164   1.595 -0.4391 -0.0846 -0.5676
 6288TIP3    H143059   1.429   1.107   1.540 -0.7639 -1.2999  0.3454
 6288TIP3    H243060   1.285   1.141   1.571 -0.6233 -1.4174  1.1708
 6289TIP3   OH243061   1.974   4.979   1.462  0.3015 -0.2693  0.8048
 6289TIP3    H143062   2.029   4.958   1.386 -0.6011 -0.6223  0.2386
 6289TIP3    H243063   2.035   5.017   1.525  1.3906 -1.5459  0.5688
 6290TIP3   OH243064   6.549   5.931   2.657  0.0334  0.3794 -0.4145
 6290TIP3    H143065   6.629   5.900   2.617 -1.2037 -2.2659 -1.0680
 6290TIP3    H243066   6.480   5.911   2.593 -1.2997  1.4531  0.6064
 6291TIP3   OH243067   0.150   5.483   2.226 -0.1277 -0.1213 -0.3375
 6291TIP3    H143068   0.080   5.545   2.203  0.4804  0.5956 -0.3139
 6291TIP3    H243069   0.181   5.513   2.311  1.8881  1.1521 -1.4438
 6292TIP3   OH243070   6.279   3.193   1.129 -0.7680  0.4396  0.1729
 6292TIP3    H143071   6.188   3.200   1.158 -1.0302 -0.8316 -0.2627
 6292TIP3    H243072   6.275   3.212   1.035 -0.6739 -0.1802  0.0423
 6293TIP3   OH243073   7.522   3.579   1.396 -0.0894 -0.5410  0.1992
 6293TIP3    H143074   7.590   3.568   1.462 -1.0369 -0.3444  1.2347
 6293TIP3    H243075   7.447   3.615   1.443 -0.5363  0.3875 -1.1404
 6294TIP3   OH243076   2.361   4.948   2.244 -0.0099 -0.0072  0.2975
 6294TIP3    H143077   2.441   5.000   2.233 -0.9020  1.3066 -0.2913
 6294TIP3    H243078   2.316   4.988   2.318 -0.7006  0.0544 -0.1427
 6295TIP3   OH243079   3.429   1.848   3.364  0.1495 -0.3677 -0.7434
 6295TIP3    H143080   3.456   1.760   3.337 -1.4513 -0.9401 -0.6404
 6295TIP3    H243081   3.369   1.833   3.438  0.9524  0.9082  0.2091
 6296TIP3   OH243082   5.058   3.651   1.510 -0.0752 -0.4177 -0.2695
 6296TIP3    H143083   5.153   3.660   1.517 -0.0225 -1.0467 -0.0916
 6296TIP3    H243084   5.025   3.676   1.596 -0.0292 -0.7325 -0.1614
 6297TIP3   OH243085   1.309   2.743   2.558  0.3257  0.3338  0.4926
 6297TIP3    H143086   1.250   2.816   2.576 -0.6785 -0.3719  0.1171
 6297TIP3    H243087   1.355   2.729   2.641  0.5262  1.3755  0.5722
 6298TIP3   OH243088   7.511   5.536   2.343  0.4032 -0.5080  0.0241
 6298TIP3    H143089   7.464   5.526   2.261 -0.5916 -0.0663  0.5218
 6298TIP3    H243090   7.504   5.629   2.364 -1.0986 -0.9044  1.5830
 6299TIP3   OH243091   0.829   4.681   1.231 -0.4757  0.1969  0.2899
 6299TIP3    H143092   0.892   4.647   1.294 -0.5457  0.2330  0.3794
 6299TIP3    H243093   0.830   4.776   1.243  0.0936  0.2737 -0.3148
 6300TIP3   OH243094   1.785   0.608   2.300  0.0629 -0.5054 -0.0616
 6300TIP3    H143095   1.807   0.553   2.374 -1.8719  0.1778  1.1107
 6300TIP3    H243096   1.733   0.679   2.337  0.4609  0.8118 -1.8464
 6301TIP3   OH243097   1.603   2.549   2.542 -0.0735  0.6179  0.5418
 6301TIP3    H143098   1.669   2.508   2.486 -0.4820 -1.0460  1.2265
 6301TIP3    H243099   1.564   2.476   2.591 -1.4117  1.7381  1.2153
 6302TIP3   OH243100   1.961   6.972   0.652  0.5460 -0.7876  0.3621
 6302TIP3    H143101   1.974   7.059   0.615 -2.7756 -0.7292 -1.0343
 6302TIP3    H243102   1.937   6.987   0.743 -1.2934 -0.0337 -0.1956
 6303TIP3   OH243103   7.271   1.341   1.307 -0.4976 -0.0040  0.2211
 6303TIP3    H143104   7.353   1.383   1.282 -0.3773 -0.3346  0.0667
 6303TIP3    H243105   7.204   1.387   1.256 -0.1491 -1.3938 -1.5868
 6304TIP3   OH243106   2.815   5.590   0.757  0.2762 -0.0717  0.1629
 6304TIP3    H143107   2.901   5.550   0.743  1.7572  2.4371  1.4212
 6304TIP3    H243108   2.797   5.575   0.850 -1.4359 -1.8733 -0.3981
 6305TIP3   OH243109   6.071   6.088   2.747  0.1435 -0.0493  0.2944
 6305TIP3    H143110   6.120   6.168   2.765  0.8917  0.2678 -2.6369
 6305TIP3    H243111   5.984   6.104   2.785  0.2065  2.2723 -0.3892
 6306TIP3   OH243112   7.444   7.098   1.241 -0.1940  0.2284  0.0946
 6306TIP3    H143113   7.533   7.065   1.246 -0.1064  0.5684  1.1279
 6306TIP3    H243114   7.445   7.161   1.169  0.5538  0.6328  0.4434
 6307TIP3   OH243115   5.902   6.821   2.847 -0.5282  0.2826  0.1788
 6307TIP3    H143116   5.912   6.910   2.881 -2.0618  0.5066  0.1259
 6307TIP3    H243117   5.875   6.769   2.923  2.5823 -0.6968  0.7543
 6308TIP3   OH243118   2.898   4.211   2.081 -0.1511  0.2141 -0.0544
 6308TIP3    H143119   2.811   4.250   2.080 -1.5035 -2.5519 -0.7903
 6308TIP3    H243120   2.905   4.169   2.166 -0.0343 -0.5227 -0.4167
 6309TIP3   OH243121   1.115   3.190   1.394 -0.2350 -0.0402 -0.7293
 6309TIP3    H143122   1.135   3.113   1.341  0.2936 -1.1414  0.9713
 6309TIP3    H243123   1.108   3.156   1.484  1.3626  2.0875  0.2976
 6310TIP3   OH243124   6.549   1.720   1.625  0.0159  0.0097  0.1142
 6310TIP3    H143125   6.552   1.809   1.591 -1.3064 -0.1117 -0.3882
 6310TIP3    H243126   6.640   1.699   1.646  0.6585  0.7266 -1.7414
 6311TIP3   OH243127   7.127   7.121   2.509  0.2915 -0.3288 -0.0744
 6311TIP3    H143128   7.146   7.060   2.580 -0.2325  0.8988  1.1420
 6311TIP3    H243129   7.106   7.204   2.552  1.0366  0.7512 -1.6940
 6312TIP3   OH243130   0.522   5.701   2.511 -0.4438 -0.4520  0.6134
 6312TIP3    H143131   0.437   5.717   2.554 -1.0333 -0.9879 -0.3426
 6312TIP3    H243132   0.531   5.606   2.510  0.2393 -0.3951  0.8124
 6313TIP3   OH243133   6.043   7.300   1.715 -0.2857  0.0239 -0.3235
 6313TIP3    H143134   6.124   7.326   1.758  0.3530 -0.9608 -0.8999
 6313TIP3    H243135   6.004   7.383   1.687 -0.2716  0.6256  1.3020
 6314TIP3   OH243136   2.001   4.396   3.395  0.0679  0.2402 -0.1165
 6314TIP3    H143137   1.966   4.427   3.478 -4.6547  2.5466 -2.5712
 6314TIP3    H243138   1.938   4.331   3.365  1.7414 -0.6820 -1.8636
 6315TIP3   OH243139   1.479   5.149   1.721  0.0326 -0.3306 -0.0473
 6315TIP3    H143140   1.569   5.179   1.713  0.4089 -0.9284  1.5462
 6315TIP3    H243141   1.448   5.140   1.630  1.0910  1.2184 -0.5939
 6316TIP3   OH243142   4.511   6.878   1.418  0.1525  0.7030  0.5753
 6316TIP3    H143143   4.506   6.784   1.399  0.6333  0.7888 -0.0138
 6316TIP3    H243144   4.419   6.906   1.419  0.0308  1.0012 -3.4223
 6317TIP3   OH243145   7.060   5.494   2.241  0.1749  0.1889 -0.0076
 6317TIP3    H143146   7.132   5.442   2.277 -0.5880  0.2558  1.6863
 6317TIP3    H243147   7.091   5.584   2.246  0.3614  0.1429 -0.2563
 6318TIP3   OH243148   0.247   4.071   1.786  0.1134  0.1668  0.1786
 6318TIP3    H143149   0.197   3.995   1.816 -1.3243  0.4517 -1.3953
 6318TIP3    H243150   0.185   4.143   1.786  0.6160  0.6427 -1.3602
 6319TIP3   OH243151   4.100   0.610   0.728  0.0435 -0.0859 -0.2806
 6319TIP3    H143152   4.092   0.564   0.645  1.5131  0.2424 -0.6313
 6319TIP3    H243153   4.192   0.634   0.734 -0.4027  1.5834  0.5585
 6320TIP3   OH243154   4.576   0.744   0.522  0.3942  0.8906  0.2165
 6320TIP3    H143155   4.513   0.788   0.580  1.9005  1.2289  1.6853
 6320TIP3    H243156   4.574   0.652   0.551  1.1604  1.0632  0.8393
 6321TIP3   OH243157   7.436   7.262   1.026 -0.4208  0.1648  0.5050
 6321TIP3    H143158   7.360   7.307   1.063 -1.0832 -0.5693  0.0832
 6321TIP3    H243159   7.510   7.319   1.046 -0.7577 -0.1158  2.8161
 6322TIP3   OH243160   0.397   3.077   0.800  0.2557 -0.0893  0.7350
 6322TIP3    H143161   0.386   3.155   0.746 -0.6182  0.6574  1.9299
 6322TIP3    H243162   0.454   3.020   0.749 -0.2385  0.7273 -0.7951
 6323TIP3   OH243163   2.913   7.050   1.269  0.0607 -0.2022  0.0182
 6323TIP3    H143164   2.997   7.084   1.298 -0.3782 -0.3544  1.5627
 6323TIP3    H243165   2.918   7.049   1.174  1.2190  1.2623  0.0489
 6324TIP3   OH243166   2.427   0.206   3.349 -0.2464 -0.0576  0.2978
 6324TIP3    H143167   2.336   0.180   3.336  0.2819 -1.1121 -1.6318
 6324TIP3    H243168   2.425   0.302   3.353 -1.5741 -0.0958  1.8937
 6325TIP3   OH243169   5.018   4.067   2.103 -0.1933 -0.1277  0.2220
 6325TIP3    H143170   5.095   4.091   2.052 -0.7686 -1.4842 -1.3742
 6325TIP3    H243171   5.039   3.981   2.140 -0.6337 -0.1416  0.4502
 6326TIP3   OH243172   4.553   3.768   3.140 -0.2099 -0.3193  0.5055
 6326TIP3    H143173   4.641   3.801   3.157  0.9242 -2.2535 -1.1661
 6326TIP3    H243174   4.500   3.847   3.126  1.5650  0.8635  0.1246
 6327TIP3   OH243175   1.474   1.999   1.926 -0.3212 -0.0715  0.5166
 6327TIP3    H143176   1.450   1.977   2.016 -0.2500 -0.7159  0.3842
 6327TIP3    H243177   1.567   1.978   1.920 -0.8036 -2.2851 -0.3423
 6328TIP3   OH243178   0.761   6.091   1.491 -0.2211 -0.0007  0.3689
 6328TIP3    H143179   0.826   6.034   1.531  0.0461 -0.0524 -0.1352
 6328TIP3    H243180   0.808   6.138   1.423 -0.5317  0.5345  0.5158
 6329TIP3   OH243181   3.001   2.211   2.711 -0.4417 -0.1204 -0.5359
 6329TIP3    H143182   3.020   2.210   2.804 -0.6012 -0.3792 -0.5037
 6329TIP3    H243183   3.015   2.120   2.683 -1.7300 -0.3526 -0.4880
 6330TIP3   OH243184   7.271   2.473   1.847 -0.3795 -0.3145  0.4933
 6330TIP3    H143185   7.331   2.399   1.857 -0.2737 -0.3807 -0.5214
 6330TIP3    H243186   7.266   2.487   1.753 -2.1265 -0.4366  0.5452
 6331TIP3   OH243187   5.653   3.872   2.928  0.3181  0.1270 -0.3351
 6331TIP3    H143188   5.691   3.909   3.008 -0.1969  0.2194 -0.1295
 6331TIP3    H243189   5.717   3.807   2.899  0.2629 -0.2923  0.4487
 6332TIP3   OH243190   7.256   5.555   2.775 -0.5777  0.0404 -0.5724
 6332TIP3    H143191   7.283   5.515   2.692 -1.1407  1.0420 -1.2641
 6332TIP3    H243192   7.184   5.501   2.807 -1.7191  0.7769 -1.7894
 6333TIP3   OH243193   6.735   7.215   0.979 -0.3284 -0.6154 -0.4707
 6333TIP3    H143194   6.756   7.173   1.063  1.1301  0.8159 -0.0523
 6333TIP3    H243195   6.693   7.297   1.004  2.3323  1.0156 -0.9567
 6334TIP3   OH243196   2.642   7.582   2.243  0.1056  0.3025  0.3372
 6334TIP3    H143197   2.616   7.537   2.163  0.4494 -0.4303  0.6225
 6334TIP3    H243198   2.738   7.585   2.238  0.1334  0.1687  0.7621
 6335TIP3   OH243199   2.573   2.420   1.864  0.3541 -0.0438  0.8797
 6335TIP3    H143200   2.604   2.485   1.927  0.7951  1.6633 -0.9958
 6335TIP3    H243201   2.487   2.451   1.836  1.1656  0.5944 -1.0876
 6336TIP3   OH243202   6.991   2.104   2.832  0.1502  0.1180 -0.6491
 6336TIP3    H143203   6.924   2.051   2.790  0.7091  0.5912 -2.2173
 6336TIP3    H243204   6.943   2.159   2.893 -0.4425 -2.0836  0.9776
 6337TIP3   OH243205   7.082   1.040   2.403  1.0413  0.0454 -0.6510
 6337TIP3    H143206   7.105   1.128   2.432  1.2917 -0.4564  0.7668
 6337TIP3    H243207   7.165   0.991   2.409  0.5990 -0.6447  0.0582
 6338TIP3   OH243208   0.593   7.144   3.411 -0.1699  0.1160  0.2457
 6338TIP3    H143209   0.665   7.171   3.355  0.2805 -1.1877  0.1705
 6338TIP3    H243210   0.620   7.060   3.447 -2.1519 -1.0046 -0.7263
 6339TIP3   OH243211   2.954   2.363   3.241 -0.5709 -0.3923 -0.1169
 6339TIP3    H143212   2.925   2.313   3.317 -0.9058  0.6058  0.4367
 6339TIP3    H243213   3.028   2.414   3.274  0.9493 -1.8367 -1.1407
 6340TIP3   OH243214   2.757   2.378   0.925 -0.3740 -0.5109 -0.3550
 6340TIP3    H143215   2.787   2.457   0.969 -1.5769 -0.6498  0.7874
 6340TIP3    H243216   2.807   2.375   0.843 -0.3024  1.4269 -0.4265
 6341TIP3   OH243217   4.259   6.560   2.302 -0.1489 -0.6209  0.2408
 6341TIP3    H143218   4.265   6.467   2.324  0.7472 -0.7576 -0.5138
 6341TIP3    H243219   4.202   6.597   2.369 -1.4205 -1.9124 -0.0658
 6342TIP3   OH243220   5.854   5.283   1.414  0.0885 -0.7935 -0.0422
 6342TIP3    H143221   5.772   5.238   1.433 -0.6485 -0.7495 -2.7757
 6342TIP3    H243222   5.921   5.215   1.420 -0.0104 -0.7741  2.4865
 6343TIP3   OH243223   0.880   2.605   1.960 -0.0335 -0.1276 -0.0115
 6343TIP3    H143224   0.842   2.599   2.048 -1.6762 -0.8893 -0.7160
 6343TIP3    H243225   0.964   2.560   1.966 -1.4863 -3.0060  0.5051
 6344TIP3   OH243226   5.867   3.684   2.944  0.0014  0.6268 -0.1520
 6344TIP3    H143227   5.882   3.592   2.925 -0.2356  0.5744 -0.0822
 6344TIP3    H243228   5.918   3.702   3.023  1.1082  0.8785 -0.8964
 6345TIP3   OH243229   5.411   1.585   1.452  0.2320 -0.5074 -0.6281
 6345TIP3    H143230   5.397   1.600   1.358  1.4390  1.5752 -0.5432
 6345TIP3    H243231   5.492   1.632   1.472 -0.2999 -0.4115  1.5817
 6346TIP3   OH243232   7.134   4.192   2.543 -0.0592  0.2294 -0.7221
 6346TIP3    H143233   7.182   4.149   2.472 -0.4451 -0.7666 -0.4051
 6346TIP3    H243234   7.098   4.119   2.594 -0.2464  0.9388  0.1753
 6347TIP3   OH243235   2.746   3.768   1.004  0.5044  0.0739 -0.4160
 6347TIP3    H143236   2.680   3.822   0.962  0.1849 -0.4180 -0.5551
 6347TIP3    H243237   2.802   3.830   1.050 -0.0247  0.5008 -0.3378
 6348TIP3   OH243238   6.946   6.383   0.723 -0.2023  0.0842 -0.3080
 6348TIP3    H143239   6.999   6.308   0.699 -2.2122 -1.9949  1.2957
 6348TIP3    H243240   7.008   6.446   0.760  1.3180 -1.6468  0.2057
 6349TIP3   OH243241   2.954   1.467   2.818 -0.1454 -0.3321  0.3323
 6349TIP3    H143242   2.869   1.476   2.861 -0.3741  1.3117 -0.3846
 6349TIP3    H243243   2.972   1.554   2.781  1.1048 -1.0618 -0.9034
 6350TIP3   OH243244   4.794   1.600   1.334 -0.1897 -0.6808  0.7510
 6350TIP3    H143245   4.836   1.515   1.338 -0.2396 -0.6707  1.8558
 6350TIP3    H243246   4.739   1.604   1.413 -1.8187 -0.4627 -0.3310
 6351TIP3   OH243247   5.943   0.921   2.345  0.4575  1.1078 -0.1743
 6351TIP3    H143248   5.851   0.928   2.318  0.2016 -1.3078 -0.1829
 6351TIP3    H243249   5.991   0.972   2.280 -0.7447  1.1207 -1.0936
 6352TIP3   OH243250   4.112   0.217   1.504  0.7606  0.5258 -0.3463
 6352TIP3    H143251   4.206   0.227   1.520  1.1937  0.2244 -2.3673
 6352TIP3    H243252   4.072   0.221   1.591  2.7233 -0.3651  0.6694
 6353TIP3   OH243253   0.232   7.469   2.990 -0.0438 -0.1643  0.0730
 6353TIP3    H143254   0.147   7.485   3.031  0.4495 -1.9762  2.0224
 6353TIP3    H243255   0.287   7.541   3.022 -0.5556  0.4100 -0.3128
 6354TIP3   OH243256   4.815   4.688   0.451  0.0421  0.1180 -0.5619
 6354TIP3    H143257   4.785   4.670   0.362 -0.1133  1.4642 -0.8063
 6354TIP3    H243258   4.759   4.760   0.481  1.6189  1.2837 -0.2638
 6355TIP3   OH243259   3.872   6.146   2.440  0.1506 -1.0338  0.2637
 6355TIP3    H143260   3.820   6.107   2.510  0.4966 -0.5777  0.7792
 6355TIP3    H243261   3.832   6.112   2.359  0.3296 -2.2928  0.6884
 6356TIP3   OH243262   1.903   5.218   1.092 -0.4170 -0.0683  0.0466
 6356TIP3    H143263   1.973   5.245   1.151  0.0779 -1.7136  0.2359
 6356TIP3    H243264   1.941   5.224   1.005 -1.2086  2.5567 -0.2108
 6357TIP3   OH243265   2.814   4.273   3.321 -0.3978  0.1171  0.2739
 6357TIP3    H143266   2.844   4.233   3.240  1.6291 -0.1129  1.1001
 6357TIP3    H243267   2.893   4.285   3.374 -1.5514  1.0067  1.9001
 6358TIP3   OH243268   7.495   0.397   2.298  0.2787 -0.2241 -0.6483
 6358TIP3    H143269   7.453   0.322   2.257 -1.5610 -0.3512  1.3194
 6358TIP3    H243270   7.435   0.470   2.281  1.2795  0.4824 -1.2196
 6359TIP3   OH243271   3.285   6.189   3.064  0.3179  0.7543 -0.5382
 6359TIP3    H143272   3.223   6.239   3.117 -0.8487  0.5219 -1.6285
 6359TIP3    H243273   3.339   6.255   3.020  0.7082  0.9658  0.2496
 6360TIP3   OH243274   5.071   1.866   2.908  0.0367 -0.3577  0.2197
 6360TIP3    H143275   5.001   1.881   2.844  0.6369  0.2428 -0.2985
 6360TIP3    H243276   5.147   1.912   2.873  0.7714 -1.2002  0.6575
 6361TIP3   OH243277   1.594   7.208   1.167  0.0844  0.8377 -0.2963
 6361TIP3    H143278   1.502   7.190   1.152  0.5461 -1.5021 -0.7168
 6361TIP3    H243279   1.640   7.155   1.101  1.7346  2.3595 -0.4577
 6362TIP3   OH243280   2.729   7.478   0.536  0.3180 -0.3544  0.1424
 6362TIP3    H143281   2.672   7.459   0.462 -1.1511 -0.0955  1.1753
 6362TIP3    H243282   2.710   7.409   0.599  0.3333  0.3503  0.9372
 6363TIP3   OH243283   2.506   2.399   0.847 -0.7319  0.2656  0.7390
 6363TIP3    H143284   2.445   2.439   0.908  1.3488  1.2350  2.3175
 6363TIP3    H243285   2.584   2.380   0.900  0.2215 -1.2695 -1.0766
 6364TIP3   OH243286   4.364   6.004   1.432 -0.2324  0.8531  0.1336
 6364TIP3    H143287   4.364   5.991   1.527 -1.2026  1.8857  0.2962
 6364TIP3    H243288   4.317   5.928   1.398  0.9232  0.0063  0.3884
 6365TIP3   OH243289   5.149   7.645   1.217 -0.1878 -0.0300  0.6473
 6365TIP3    H143290   5.148   7.596   1.136 -0.4670 -0.8226  1.1213
 6365TIP3    H243291   5.066   7.693   1.218 -0.1572  0.0271  0.4434
 6366TIP3   OH243292   1.742   1.061   0.878 -0.1153 -0.4684  0.3245
 6366TIP3    H143293   1.787   0.977   0.879  0.4219 -0.2134 -0.9860
 6366TIP3    H243294   1.730   1.082   0.971 -1.2223 -2.4580  0.6907
 6367TIP3   OH243295   1.091   3.621   0.657  0.1149 -0.3323  0.0358
 6367TIP3    H143296   1.105   3.692   0.594 -1.0925  0.4675  0.6400
 6367TIP3    H243297   1.152   3.639   0.728  0.8305 -0.7266 -0.4622
 6368TIP3   OH243298   3.571   2.973   2.235  0.0816 -0.4855 -0.1435
 6368TIP3    H143299   3.507   2.943   2.170 -0.0888  0.2512 -0.3326
 6368TIP3    H243300   3.653   2.981   2.186  0.2004 -0.9477 -0.0192
 6369TIP3   OH243301   5.898   0.306   1.772 -0.2004 -0.4314 -0.2735
 6369TIP3    H143302   5.884   0.228   1.826  1.0712 -0.6079 -0.1616
 6369TIP3    H243303   5.926   0.272   1.687 -2.8212 -0.1745 -1.3145
 6370TIP3   OH243304   3.291   5.965   0.425  0.2979  0.4516  0.4819
 6370TIP3    H143305   3.279   5.929   0.513  0.4254 -1.6397 -0.3000
 6370TIP3    H243306   3.204   5.996   0.399  0.2535  1.0554  1.3056
 6371TIP3   OH243307   4.789   7.406   2.179 -0.2431  0.6377 -0.0778
 6371TIP3    H143308   4.883   7.403   2.160 -0.0138  2.3832  0.5410
 6371TIP3    H243309   4.785   7.418   2.274 -1.1315 -0.3194  0.0170
 6372TIP3   OH243310   4.911   2.392   2.394  0.4049 -0.5025 -0.3288
 6372TIP3    H143311   4.888   2.474   2.439  0.1268  0.5559 -2.2644
 6372TIP3    H243312   4.981   2.355   2.447  1.1431  1.4470  0.1671
 6373TIP3   OH243313   5.686   5.607   2.562  0.5759 -0.7881  0.2668
 6373TIP3    H143314   5.695   5.593   2.657 -1.1586 -3.4534  0.1627
 6373TIP3    H243315   5.598   5.575   2.542  0.4555  0.8238 -2.1075
 6374TIP3   OH243316   3.572   0.840   0.896  0.0147  0.1171  0.1345
 6374TIP3    H143317   3.628   0.768   0.867  0.1497 -0.2829  1.3358
 6374TIP3    H243318   3.613   0.918   0.858  0.2509 -0.3556 -0.6203
 6375TIP3   OH243319   1.662   5.933   0.796  0.8648  0.0307 -0.1105
 6375TIP3    H143320   1.622   5.938   0.883  0.6773 -0.0497 -0.1915
 6375TIP3    H243321   1.748   5.896   0.811  2.2423  3.1286  0.5205
 6376TIP3   OH243322   6.358   5.099   1.648 -0.2163  0.7208 -0.3341
 6376TIP3    H143323   6.372   5.066   1.560  0.3904 -1.4476  0.5011
 6376TIP3    H243324   6.286   5.046   1.683  1.2213 -0.2709  1.2956
 6377TIP3   OH243325   6.315   7.649   1.831  0.0704 -0.1738 -0.0224
 6377TIP3    H143326   6.399   7.604   1.834  0.1466 -0.0658 -0.5455
 6377TIP3    H243327   6.337   7.740   1.808 -0.3225 -0.5100 -1.8436
 6378TIP3   OH243328   7.085   6.730   1.767  0.0970  0.4735 -0.5327
 6378TIP3    H143329   7.020   6.684   1.821  0.1976 -0.0557 -0.8534
 6378TIP3    H243330   7.043   6.813   1.745  0.5983  1.3147  1.4963
 6379TIP3   OH243331   2.888   2.706   2.753 -0.4275  0.1391 -0.2459
 6379TIP3    H143332   2.958   2.684   2.692 -0.7598  1.0348 -0.9927
 6379TIP3    H243333   2.862   2.795   2.727 -1.4752  0.0227  0.3532
 6380TIP3   OH243334   0.995   4.369   2.766  0.2161  0.2309  0.0829
 6380TIP3    H143335   0.981   4.297   2.705 -1.3920  2.3204 -2.2582
 6380TIP3    H243336   0.989   4.330   2.853 -1.1132 -2.3331 -1.0763
 6381TIP3   OH243337   7.163   6.036   3.271 -0.6705  0.4093  0.4143
 6381TIP3    H143338   7.193   5.953   3.310 -0.6731 -0.3463 -1.0844
 6381TIP3    H243339   7.093   6.010   3.212 -2.3522  1.8172  1.6963
 6382TIP3   OH243340   7.291   6.507   2.088 -0.2368 -0.2758 -0.0863
 6382TIP3    H143341   7.314   6.562   2.013  0.8747 -2.3625 -1.3661
 6382TIP3    H243342   7.268   6.569   2.157 -0.5012  1.7374 -1.8894
 6383TIP3   OH243343   4.819   5.719   1.157  0.8115 -0.0527  0.0823
 6383TIP3    H143344   4.879   5.767   1.101  2.1114 -1.9054 -0.1757
 6383TIP3    H243345   4.797   5.640   1.108 -1.6494  0.4158  0.2965
 6384TIP3   OH243346   0.296   4.869   0.926  0.0555 -0.0088  0.2055
 6384TIP3    H143347   0.313   4.962   0.913  0.6232  0.3439  2.7991
 6384TIP3    H243348   0.372   4.825   0.888  0.5188  0.7139  0.2791
 6385TIP3   OH243349   1.784   1.818   1.010  0.4117  0.2988  0.0668
 6385TIP3    H143350   1.691   1.840   1.009 -0.4130 -2.8233 -0.7172
 6385TIP3    H243351   1.791   1.743   1.069  2.4876  0.6100  0.2961
 6386TIP3   OH243352   4.068   6.134   1.272  0.0968  0.1096 -0.1118
 6386TIP3    H143353   4.099   6.044   1.261  1.3788  0.5360 -0.1685
 6386TIP3    H243354   4.099   6.159   1.360  1.9872  1.3032 -1.0357
 6387TIP3   OH243355   2.302   2.515   1.358 -0.2975 -0.8303  0.4616
 6387TIP3    H143356   2.306   2.501   1.263  1.4375  0.2441  0.3437
 6387TIP3    H243357   2.289   2.427   1.394 -1.2210 -1.2217 -0.7658
 6388TIP3   OH243358   6.566   7.171   1.495  0.1991 -0.3914 -0.2223
 6388TIP3    H143359   6.581   7.132   1.581 -0.0671 -1.8128 -0.7819
 6388TIP3    H243360   6.503   7.241   1.511 -1.1786 -1.7402  0.5227
 6389TIP3   OH243361   5.013   4.890   0.680 -0.3862 -0.4168  0.5706
 6389TIP3    H143362   5.101   4.916   0.652 -0.9204  1.8006  0.7486
 6389TIP3    H243363   4.954   4.946   0.630 -1.5822 -0.2450  2.0831
 6390TIP3   OH243364   2.940   6.096   2.164  0.1786  0.4361 -0.0278
 6390TIP3    H143365   2.929   6.128   2.075  1.7060 -0.2283 -0.4977
 6390TIP3    H243366   2.883   6.151   2.217 -1.9854 -0.1513 -1.5899
 6391TIP3   OH243367   2.953   6.709   0.956  0.2722 -0.5824  0.0383
 6391TIP3    H143368   2.863   6.678   0.965 -1.1301  2.9856 -0.2543
 6391TIP3    H243369   2.970   6.708   0.862 -0.2192  0.5287 -0.0780
 6392TIP3   OH243370   0.065   3.434   1.191 -0.3591  0.5265  0.3516
 6392TIP3    H143371   0.152   3.465   1.164 -0.1495  0.6437  1.1354
 6392TIP3    H243372   0.016   3.426   1.109 -0.0370  1.7601  0.0124
 6393TIP3   OH243373   6.788   2.718   0.981  0.6970 -0.1466 -0.1588
 6393TIP3    H143374   6.806   2.645   1.039  0.9460  0.7939  0.9849
 6393TIP3    H243375   6.872   2.735   0.937  1.0504  0.3971  0.6998
 6394TIP3   OH243376   4.447   5.388   0.648  0.5247  0.6994 -0.1309
 6394TIP3    H143377   4.380   5.450   0.676 -1.9256 -0.4895 -2.8108
 6394TIP3    H243378   4.430   5.310   0.699  0.0293  0.5009 -0.5886
 6395TIP3   OH243379   3.418   5.813   2.722 -0.0363 -0.4295  0.4490
 6395TIP3    H143380   3.365   5.753   2.669 -1.4788  1.1963 -0.0569
 6395TIP3    H243381   3.426   5.769   2.806 -2.0431 -0.8619  0.4714
 6396TIP3   OH243382   6.978   0.983   9.457 -0.4117  0.0682  0.4553
 6396TIP3    H143383   6.991   1.077   9.448 -0.1387 -0.0750 -0.8116
 6396TIP3    H243384   6.981   0.967   9.552 -0.5958  1.3394  0.6915
 6397TIP3   OH243385   5.667   0.226   0.984 -0.3505 -0.0520  0.2212
 6397TIP3    H143386   5.677   0.155   1.048 -0.0867  0.4408  0.7398
 6397TIP3    H243387   5.574   0.247   0.985 -0.5028 -0.7038 -0.2750
 6398TIP3   OH243388   1.797   2.800   1.360 -0.3427 -0.6136 -0.0103
 6398TIP3    H143389   1.722   2.741   1.347 -0.7691  0.0494 -0.6424
 6398TIP3    H243390   1.819   2.830   1.272 -0.0286  0.0448  0.2887
 6399TIP3   OH243391   4.557   3.875   2.284  0.1904  0.1150  0.4457
 6399TIP3    H143392   4.479   3.920   2.317 -0.1127  1.2845 -1.6900
 6399TIP3    H243393   4.625   3.942   2.284  0.2578  0.0669 -0.9360
 6400TIP3   OH243394   5.269   2.864   2.707  0.2704  0.1165 -0.4414
 6400TIP3    H143395   5.252   2.833   2.796 -2.2594 -0.8972 -1.2126
 6400TIP3    H243396   5.202   2.929   2.691  2.0352  1.9211 -0.9094
 6401TIP3   OH243397   2.950   3.285   0.599  0.0420  0.0937  0.8720
 6401TIP3    H143398   2.865   3.247   0.577 -0.0306 -0.2855  1.7543
 6401TIP3    H243399   3.012   3.213   0.589  0.1985  0.2603  0.6380
 6402TIP3   OH243400   0.604   0.389   0.748 -0.5682 -0.5012 -0.1566
 6402TIP3    H143401   0.684   0.368   0.700  0.4076  1.3248  0.5602
 6402TIP3    H243402   0.623   0.365   0.839 -1.8762 -2.5821 -0.3548
 6403TIP3   OH243403   6.764   3.806   2.241  0.2309 -0.2363  0.3300
 6403TIP3    H143404   6.845   3.755   2.241 -0.1330 -0.8349  1.1361
 6403TIP3    H243405   6.698   3.746   2.275 -0.8778 -0.2205 -1.6984
 6404TIP3   OH243406   3.366   4.789   0.892  0.4784  0.2677 -1.0342
 6404TIP3    H143407   3.385   4.702   0.928 -2.1938  0.5290  1.3951
 6404TIP3    H243408   3.413   4.850   0.949 -0.6429  0.5174 -0.3358
 6405TIP3   OH243409   3.492   6.929   0.950  0.2037 -0.2691 -0.4325
 6405TIP3    H143410   3.435   6.963   0.881  1.0274  1.6562 -0.2255
 6405TIP3    H243411   3.447   6.851   0.981 -2.3290  1.1294 -0.3121
 6406TIP3   OH243412   1.110   2.797   1.064  0.0871  0.4342 -0.2960
 6406TIP3    H143413   1.183   2.736   1.070 -0.5208 -0.3688 -0.8481
 6406TIP3    H243414   1.037   2.745   1.030 -0.4612  1.4547 -0.7525
 6407TIP3   OH243415   5.240   5.343   1.935 -0.1469  0.1825 -0.1909
 6407TIP3    H143416   5.182   5.419   1.929 -1.5437 -0.7356  1.0383
 6407TIP3    H243417   5.248   5.312   1.845  0.3088  1.6831 -0.6799
 6408TIP3   OH243418   3.110   2.477   0.618 -0.2070 -0.3376 -0.2492
 6408TIP3    H143419   3.113   2.405   0.555 -0.8726 -0.6149  0.0299
 6408TIP3    H243420   3.177   2.453   0.683 -0.7839 -0.9754  0.1217
 6409TIP3   OH243421   4.271   2.932   0.665 -0.0277  0.2956 -0.7607
 6409TIP3    H143422   4.337   2.923   0.734 -1.0206 -0.4369  0.1344
 6409TIP3    H243423   4.237   3.021   0.677 -0.9656 -0.1878  0.4678
 6410TIP3   OH243424   0.467   1.515   2.057  0.3976  0.3307  0.5303
 6410TIP3    H143425   0.456   1.609   2.068  0.7628  0.4020  0.3042
 6410TIP3    H243426   0.560   1.503   2.037  0.3406 -0.0680  0.4767
 6411TIP3   OH243427   2.599   4.096   1.261  0.2249 -0.2814 -0.3537
 6411TIP3    H143428   2.648   4.152   1.321  2.7555 -2.2973 -0.3585
 6411TIP3    H243429   2.521   4.070   1.310  1.3509 -0.4528  1.4326
 6412TIP3   OH243430   6.906   7.506   0.700 -0.1304  0.9155  0.3777
 6412TIP3    H143431   6.876   7.416   0.686  0.3223  0.9329 -0.8027
 6412TIP3    H243432   6.826   7.559   0.690 -0.4640  0.6293  1.4285
 6413TIP3   OH243433   4.319   6.101   3.100  0.0670 -0.0334 -0.1956
 6413TIP3    H143434   4.254   6.130   3.164 -0.0183 -1.5098  0.4420
 6413TIP3    H243435   4.272   6.101   3.017  0.1620  1.8654 -0.2938
 6414TIP3   OH243436   0.243   3.950   1.506 -0.1985 -0.3996  0.7991
 6414TIP3    H143437   0.319   4.003   1.482  0.4684 -1.5852  0.1733
 6414TIP3    H243438   0.215   3.985   1.590  0.1915  0.9547  0.3871
 6415TIP3   OH243439   6.938   5.696   2.728 -0.4757 -0.1204  0.0936
 6415TIP3    H143440   6.949   5.668   2.819 -1.8530  0.7744  0.5629
 6415TIP3    H243441   6.893   5.780   2.734 -1.4609 -0.4999 -1.4465
 6416TIP3   OH243442   1.738   1.193   1.115  0.0231  0.4258 -0.3328
 6416TIP3    H143443   1.814   1.227   1.162 -0.5801 -0.1310  1.1029
 6416TIP3    H243444   1.698   1.270   1.076 -0.6577  1.2818  1.8810
 6417TIP3   OH243445   5.751   5.459   3.232 -0.0297 -0.1884  0.6032
 6417TIP3    H143446   5.829   5.460   3.177 -1.8397 -1.0679 -2.1993
 6417TIP3    H243447   5.772   5.399   3.303  2.1767  0.4418  0.5583
 6418TIP3   OH243448   0.844   1.457   1.072  0.4053  0.1593 -0.1497
 6418TIP3    H143449   0.924   1.481   1.025  1.5902 -0.7498  1.2887
 6418TIP3    H243450   0.843   1.515   1.148 -0.6532  0.5821 -0.4719
 6419TIP3   OH243451   0.018   5.282   0.820 -0.5811  0.1927  0.3360
 6419TIP3    H143452   0.097   5.228   0.807 -0.6761  0.5943 -2.4783
 6419TIP3    H243453  -0.019   5.291   0.732 -1.4659  3.5159  0.9403
 6420TIP3   OH243454   5.990   1.580   2.179 -0.8502  0.5593  0.0379
 6420TIP3    H143455   6.080   1.562   2.153 -1.2229 -1.3557 -0.0637
 6420TIP3    H243456   5.940   1.579   2.097 -1.2433 -0.3453  0.2752
 6421TIP3   OH243457   1.696   0.126   0.600 -0.6737  0.3620 -0.0481
 6421TIP3    H143458   1.632   0.194   0.619 -0.4606  0.4354  0.3972
 6421TIP3    H243459   1.650   0.068   0.539 -0.6189  1.2722 -0.9860
 6422TIP3   OH243460   3.899   0.231   1.164  0.5634 -0.6228  0.4413
 6422TIP3    H143461   3.976   0.175   1.150  0.3447 -0.8630  0.1653
 6422TIP3    H243462   3.825   0.170   1.160  0.2972 -0.2653 -0.2111
 6423TIP3   OH243463   5.207   1.904   1.540  0.5080 -0.1897  0.1793
 6423TIP3    H143464   5.207   1.891   1.445  2.3389 -0.0676  0.1146
 6423TIP3    H243465   5.163   1.827   1.575  1.5740 -1.2481 -0.7085
 6424TIP3   OH243466   3.803   4.719   0.875 -0.2102  0.3991  0.5913
 6424TIP3    H143467   3.780   4.659   0.804  0.3014  0.5259  0.3120
 6424TIP3    H243468   3.860   4.667   0.932 -0.0790  0.5035  0.5542
 6425TIP3   OH243469   1.052   1.594   0.888 -0.2599 -0.3724 -0.2503
 6425TIP3    H143470   1.080   1.686   0.889 -1.0754 -0.0693  2.4163
 6425TIP3    H243471   1.124   1.547   0.931 -1.0172 -0.5277  0.8957
 6426TIP3   OH243472   4.073   2.861   1.763  0.7850 -0.2671 -0.2518
 6426TIP3    H143473   3.981   2.877   1.742  0.9243  2.2848  0.7050
 6426TIP3    H243474   4.087   2.769   1.740 -1.9143 -0.6748 -0.6586
 6427TIP3   OH243475   2.743   1.791   3.623 -0.5160 -0.0842 -0.4594
 6427TIP3    H143476   2.725   1.884   3.611  0.5807  0.6060  2.3533
 6427TIP3    H243477   2.656   1.750   3.625 -0.9593  0.3162 -4.4731
 6428TIP3   OH243478   6.391   3.076   1.578  0.1917 -0.3070  0.0002
 6428TIP3    H143479   6.389   3.009   1.647  2.7055  1.3035  1.7992
 6428TIP3    H243480   6.483   3.083   1.554 -0.5710 -0.7499 -3.6226
 6429TIP3   OH243481   1.688   0.498   3.623 -0.1007  0.3929 -0.1005
 6429TIP3    H143482   1.715   0.568   3.565 -2.5088  1.2698 -0.2718
 6429TIP3    H243483   1.624   0.448   3.573  0.0611 -0.6921  0.7323
 6430TIP3   OH243484   0.633   6.356   2.247 -0.3512 -0.4026 -0.5056
 6430TIP3    H143485   0.667   6.272   2.216  0.8704  0.2469 -1.0187
 6430TIP3    H243486   0.542   6.339   2.269 -0.4633 -1.5694 -1.7639
 6431TIP3   OH243487   3.542   0.184   1.036 -0.6697 -0.2414 -0.1011
 6431TIP3    H143488   3.603   0.133   1.089  1.6631  2.9975  0.6772
 6431TIP3    H243489   3.466   0.198   1.093  0.1867  0.0497  0.9973
 6432TIP3   OH243490   7.030   5.687   0.628  0.0243  0.1867 -0.1938
 6432TIP3    H143491   6.965   5.639   0.576  0.2670 -0.0495 -0.2775
 6432TIP3    H243492   7.057   5.626   0.696 -0.7371  0.6974  0.5955
 6433TIP3   OH243493   3.230   4.317   2.545 -0.5707  0.1787 -0.2059
 6433TIP3    H143494   3.275   4.288   2.625 -1.3723  1.6418  0.8234
 6433TIP3    H243495   3.242   4.411   2.544 -1.1350  0.2576 -1.4937
 6434TIP3   OH243496   0.347   6.329   2.190 -0.5055  0.6512  0.2102
 6434TIP3    H143497   0.266   6.367   2.157 -0.1659  0.4116 -0.9632
 6434TIP3    H243498   0.345   6.238   2.159 -0.0973  0.4591  0.7282
 6435TIP3   OH243499   2.827   3.464   1.578  0.1231 -0.1463  0.3903
 6435TIP3    H143500   2.744   3.415   1.581  0.5735 -1.0533 -0.7741
 6435TIP3    H243501   2.863   3.442   1.492  1.3911  0.5498  0.7308
 6436TIP3   OH243502   2.075   0.334   2.460  0.1499  0.3812  0.1684
 6436TIP3    H143503   2.046   0.366   2.375  0.6997  1.2343  0.2911
 6436TIP3    H243504   2.158   0.290   2.442  0.6573  1.2489  0.3782
 6437TIP3   OH243505   4.863   4.702   1.656  0.0991  0.1532  0.0881
 6437TIP3    H143506   4.835   4.612   1.642 -0.7604  0.2110  1.2432
 6437TIP3    H243507   4.957   4.696   1.673  0.1436 -0.4550 -0.3514
 6438TIP3   OH243508   7.627   3.543   2.246  0.6778  0.0128  0.5776
 6438TIP3    H143509   7.695   3.492   2.289 -0.0639 -1.7995 -0.2896
 6438TIP3    H243510   7.668   3.577   2.167  1.1601  0.7553  1.1322
 6439TIP3   OH243511   1.548   6.503   2.483  0.1791  0.1508  0.1160
 6439TIP3    H143512   1.588   6.534   2.402 -0.8278  0.3184 -0.3306
 6439TIP3    H243513   1.560   6.408   2.480  0.8022  0.2229  0.1408
 6440TIP3   OH243514   6.571   1.019   2.001 -0.1138 -0.1735 -0.2171
 6440TIP3    H143515   6.544   0.954   1.936 -0.7642  1.1075 -1.2848
 6440TIP3    H243516   6.662   1.038   1.980 -0.1477 -0.1895 -0.3825
 6441TIP3   OH243517   2.402   0.469   3.387  0.0522 -0.3973 -0.3458
 6441TIP3    H143518   2.438   0.495   3.472  0.1943 -2.8912  0.4494
 6441TIP3    H243519   2.348   0.543   3.360  0.9576  0.9590  1.3307
 6442TIP3   OH243520   4.781   1.890   0.949 -0.2522 -0.3854 -0.3745
 6442TIP3    H143521   4.744   1.825   1.009  2.3851 -2.3652 -0.6840
 6442TIP3    H243522   4.822   1.955   1.006 -3.2306  1.3604 -0.0539
 6443TIP3   OH243523   7.560   7.556   0.700  0.5213  0.1298  0.4847
 6443TIP3    H143524   7.569   7.461   0.693 -1.0813 -0.0843  0.9962
 6443TIP3    H243525   7.540   7.572   0.792 -2.3796  0.6165 -0.1189
 6444TIP3   OH243526   2.434   2.723   1.613 -0.6700 -0.3217 -0.2097
 6444TIP3    H143527   2.405   2.658   1.677 -1.8024 -0.9325 -1.2858
 6444TIP3    H243528   2.498   2.676   1.559  0.8927  0.4283  0.9232
 6445TIP3   OH243529   0.279   0.376   2.002 -0.0410  0.2735  0.2326
 6445TIP3    H143530   0.355   0.402   2.053  0.2211  0.9646 -0.4993
 6445TIP3    H243531   0.293   0.283   1.984  1.1988  0.6251 -0.8124
 6446TIP3   OH243532   3.701   0.746   2.354  0.4238  0.2271  0.1472
 6446TIP3    H143533   3.783   0.712   2.389  0.1505 -1.5577 -0.8358
 6446TIP3    H243534   3.637   0.677   2.371 -0.9352  1.5787  0.9172
 6447TIP3   OH243535   1.332   6.451   1.682 -0.1454 -0.4853  0.3484
 6447TIP3    H143536   1.264   6.444   1.750 -0.7797  1.0587 -0.0760
 6447TIP3    H243537   1.403   6.499   1.725 -0.8255  1.1003 -0.2416
 6448TIP3   OH243538   0.697   7.648   2.643 -0.0969 -0.4468 -0.0162
 6448TIP3    H143539   0.687   7.588   2.569  1.2784  0.3410 -0.8997
 6448TIP3    H243540   0.753   7.600   2.704 -0.2065 -0.6194 -0.0483
 6449TIP3   OH243541   1.561   3.676   1.916  0.1324 -0.4843  0.5662
 6449TIP3    H143542   1.518   3.762   1.921  2.1913  0.5573  1.6433
 6449TIP3    H243543   1.495   3.614   1.947 -1.2074  0.7806  0.3514
 6450TIP3   OH243544   1.146   5.292   1.938  0.3590 -0.5166 -0.6698
 6450TIP3    H143545   1.095   5.211   1.944 -1.1678  0.4357 -0.1390
 6450TIP3    H243546   1.109   5.348   2.006  2.8387 -0.1246  0.4401
 6451TIP3   OH243547   3.496   1.573   2.358  0.3516  0.0308 -0.0903
 6451TIP3    H143548   3.488   1.574   2.262  0.7661  1.6655 -0.1245
 6451TIP3    H243549   3.468   1.660   2.386  0.0144 -0.4992  1.3139
 6452TIP3   OH243550   3.037   1.741   2.838 -0.3555  0.4484 -0.0614
 6452TIP3    H143551   3.093   1.768   2.910 -0.0081 -0.8573  0.1759
 6452TIP3    H243552   2.959   1.796   2.846  1.0122  2.5936 -0.6326
 6453TIP3   OH243553   0.895   0.127   2.742 -0.2384  0.4096 -0.1837
 6453TIP3    H143554   0.883   0.108   2.835  2.0198 -0.7174 -0.0391
 6453TIP3    H243555   0.819   0.088   2.700 -0.4326 -0.6175  1.0456
 6454TIP3   OH243556   5.299   7.573   2.872 -0.0725  0.1350  0.7299
 6454TIP3    H143557   5.395   7.577   2.866  0.2783 -1.5731  3.4267
 6454TIP3    H243558   5.270   7.557   2.783  2.0815  1.4759 -0.2829
 6455TIP3   OH243559   3.760   1.274   1.741 -0.1458  0.0067  0.0673
 6455TIP3    H143560   3.675   1.310   1.715 -0.0103  0.1383 -0.2015
 6455TIP3    H243561   3.773   1.305   1.831  0.2490  1.1729 -0.3723
 6456TIP3   OH243562   4.868   1.067   2.890  0.5096 -0.0940  0.0082
 6456TIP3    H143563   4.916   1.122   2.828  1.5766  2.1257  2.5842
 6456TIP3    H243564   4.814   1.128   2.940 -0.0155 -1.7020  1.5214
 6457TIP3   OH243565   0.694   3.186   1.576 -0.4518 -0.0906 -0.1504
 6457TIP3    H143566   0.779   3.154   1.545 -1.0357 -1.5030 -0.3496
 6457TIP3    H243567   0.714   3.270   1.618  1.2958 -1.1731  1.3064
 6458TIP3   OH243568   2.068   0.804   2.229 -0.2698 -0.1460 -0.0031
 6458TIP3    H143569   1.982   0.805   2.186  0.2624  1.0241 -1.1118
 6458TIP3    H243570   2.082   0.894   2.257  1.4513  0.2065 -1.7317
 6459TIP3   OH243571   5.783   1.915   0.776  0.4661  0.0824  0.8489
 6459TIP3    H143572   5.734   1.836   0.754  1.3836 -0.8013  1.8411
 6459TIP3    H243573   5.729   1.987   0.743 -1.4693 -0.8307  1.8507
 6460TIP3   OH243574   1.510   5.769   0.485 -0.3271 -0.1913 -0.5752
 6460TIP3    H143575   1.443   5.759   0.418  0.1283 -2.0320 -0.7911
 6460TIP3    H243576   1.568   5.837   0.451 -0.3857 -0.7368 -1.8166
 6461TIP3   OH243577   4.977   3.221   1.342 -0.0112  0.1133  0.4088
 6461TIP3    H143578   4.983   3.140   1.394  0.1613 -1.1610 -1.4780
 6461TIP3    H243579   4.940   3.285   1.402 -0.4853 -1.4595  1.8986
 6462TIP3   OH243580   0.485   5.022   0.653  0.5778 -0.3851 -0.0218
 6462TIP3    H143581   0.456   4.932   0.643 -0.3246 -0.0187 -0.7610
 6462TIP3    H243582   0.521   5.026   0.742 -0.2081 -1.2430  0.3472
 6463TIP3   OH243583   2.393   5.006   1.330  0.1625 -0.0214 -0.4934
 6463TIP3    H143584   2.301   4.991   1.311  0.0102  0.0595  0.1606
 6463TIP3    H243585   2.437   4.927   1.298 -0.1024  0.0315 -0.9952
 6464TIP3   OH243586   6.863   3.280   2.270 -0.3392 -0.7612  0.6647
 6464TIP3    H143587   6.797   3.320   2.326 -0.5760  0.3385 -0.3466
 6464TIP3    H243588   6.840   3.308   2.181  0.6008 -1.6182  0.1191
 6465TIP3   OH243589   4.073   5.652   2.414 -0.2921  0.7212  0.3849
 6465TIP3    H143590   4.144   5.591   2.433 -0.8802 -0.5202 -1.1391
 6465TIP3    H243591   4.053   5.694   2.497  1.1097 -0.1078  1.1695
 6466TIP3   OH243592   2.342   2.957   1.866  0.5366 -0.3300  0.1778
 6466TIP3    H143593   2.329   2.973   1.773  0.2780 -0.0169  0.2658
 6466TIP3    H243594   2.254   2.947   1.902  0.5837  0.4981  0.5510
 6467TIP3   OH243595   4.301   7.267   1.763  0.2099 -0.1413  0.0757
 6467TIP3    H143596   4.337   7.352   1.789  0.7551  0.4592 -2.3766
 6467TIP3    H243597   4.376   7.218   1.731 -0.4459 -0.6267 -0.7675
 6468TIP3   OH243598   1.852   6.719   0.668 -0.1564  0.8741 -0.5438
 6468TIP3    H143599   1.863   6.811   0.642  1.1264  0.6426 -0.9354
 6468TIP3    H243600   1.873   6.718   0.761 -0.9139  1.0975 -0.3711
 6469TIP3   OH243601   1.938   4.071   0.474  0.0022 -0.2530  0.0975
 6469TIP3    H143602   1.990   4.064   0.395  0.0624 -0.2976  0.1409
 6469TIP3    H243603   1.917   3.980   0.497  0.1526 -0.2499  0.2443
 6470TIP3   OH243604   6.826   0.391   3.113 -0.0593  0.2873  0.2597
 6470TIP3    H143605   6.818   0.461   3.178 -0.5906  0.8367 -0.3764
 6470TIP3    H243606   6.764   0.416   3.044  1.6863  0.6340 -1.2677
 6471TIP3   OH243607   3.441   6.384   2.568  0.4490  0.1673  0.5198
 6471TIP3    H143608   3.385   6.460   2.552  0.4663  0.6599  2.5085
 6471TIP3    H243609   3.528   6.411   2.539  0.4024  0.8233  0.9734
 6472TIP3   OH243610   3.108   4.207   0.994  0.2167  0.0668  0.2102
 6472TIP3    H143611   3.104   4.186   1.087  1.6808  2.6274  0.9459
 6472TIP3    H243612   3.023   4.248   0.975  0.3572  0.6063  0.7287
 6473TIP3   OH243613   6.707   4.143   1.860 -0.5947 -0.4516  0.3474
 6473TIP3    H143614   6.789   4.137   1.909 -0.3989  2.8211  0.5808
 6473TIP3    H243615   6.720   4.215   1.799 -3.2948  0.1767  0.3813
 6474TIP3   OH243616   0.336   3.857   0.376  0.0653  1.3794  0.3182
 6474TIP3    H143617   0.349   3.765   0.353 -1.8878  0.7067  1.5756
 6474TIP3    H243618   0.340   3.904   0.293 -0.6694 -0.1048 -0.5994
 6475TIP3   OH243619   3.756   4.466   1.239  0.1023  0.2199  0.2521
 6475TIP3    H143620   3.717   4.494   1.322  0.3984 -0.2715  0.5634
 6475TIP3    H243621   3.820   4.400   1.264  1.3154  1.1838 -0.2290
 6476TIP3   OH243622   4.140   4.507   2.951  0.2485  0.4786 -0.7608
 6476TIP3    H143623   4.219   4.463   2.919  0.8417 -0.8511  2.1393
 6476TIP3    H243624   4.172   4.588   2.990  0.4768 -0.5395  1.3592
 6477TIP3   OH243625   4.716   5.501   2.147  0.1066  0.6410 -0.3683
 6477TIP3    H143626   4.672   5.451   2.078  1.9855  0.2641 -1.3834
 6477TIP3    H243627   4.651   5.564   2.177 -1.7477 -1.2043 -0.3392
 6478TIP3   OH243628   6.436   1.115   2.211  0.2176  0.0006  0.2509
 6478TIP3    H143629   6.467   1.073   2.131 -1.0078 -1.1865  0.3620
 6478TIP3    H243630   6.438   1.046   2.277 -1.6431  0.1009  0.4902
 6479TIP3   OH243631   6.848   3.982   2.612  0.8303 -0.0290  0.4460
 6479TIP3    H143632   6.760   4.017   2.601  1.5028  1.2223 -1.3661
 6479TIP3    H243633   6.836   3.905   2.668 -1.4495 -0.1221 -0.0719
 6480TIP3   OH243634   3.357   2.263   2.774 -0.2180 -0.0566 -0.5940
 6480TIP3    H143635   3.296   2.335   2.758  1.1635  1.2572 -0.1151
 6480TIP3    H243636   3.443   2.305   2.782  0.4805 -1.6376  0.7860
 6481TIP3   OH243637   6.806   3.783   2.836 -0.0329 -0.4122  0.1661
 6481TIP3    H143638   6.727   3.732   2.817 -0.1604  0.1794 -1.0051
 6481TIP3    H243639   6.795   3.812   2.926 -1.6010  0.4206 -0.2630
 6482TIP3   OH243640   7.107   5.949   1.924 -1.0667 -0.3852  0.2270
 6482TIP3    H143641   7.099   5.956   1.829  1.3545  0.8104  0.0244
 6482TIP3    H243642   7.078   6.035   1.956 -0.3523 -0.2017  0.4016
 6483TIP3   OH243643   6.522   3.014   2.146  0.1705 -0.0303 -0.0907
 6483TIP3    H143644   6.467   3.068   2.204 -1.6927 -0.8116 -1.0260
 6483TIP3    H243645   6.542   2.936   2.199 -0.1787 -0.0270  0.0532
 6484TIP3   OH243646   4.692   3.607   2.880 -0.3692  0.5535  0.2860
 6484TIP3    H143647   4.768   3.657   2.910  0.3853 -0.9877  1.0360
 6484TIP3    H243648   4.641   3.592   2.960  1.2458 -2.8906  0.8449
 6485TIP3   OH243649   3.613   0.534   1.329  0.2450 -0.1913  0.3017
 6485TIP3    H143650   3.634   0.609   1.273  1.0336 -1.3668 -1.0629
 6485TIP3    H243651   3.582   0.572   1.410 -1.3230  1.6203 -1.0531
 6486TIP3   OH243652   1.726   0.148   2.329 -0.1508 -0.4845  0.1010
 6486TIP3    H143653   1.671   0.211   2.283  0.7189  0.7572  0.7099
 6486TIP3    H243654   1.812   0.157   2.289  0.0237 -1.1991  0.2960
 6487TIP3   OH243655   3.717   7.247   0.702 -0.4352  0.6812  0.2047
 6487TIP3    H143656   3.646   7.248   0.766 -1.1191 -1.3518 -0.4318
 6487TIP3    H243657   3.706   7.164   0.655  2.6771  0.0129  0.4274
 6488TIP3   OH243658   1.591   6.674   1.389  0.0203 -0.1208 -0.1938
 6488TIP3    H143659   1.603   6.735   1.462  1.4303  0.0200 -0.5093
 6488TIP3    H243660   1.627   6.721   1.313  0.0889 -0.8994 -0.6507
 6489TIP3   OH243661   6.975   3.199   1.606  0.1542  0.4638 -0.1093
 6489TIP3    H143662   6.889   3.160   1.620  0.0635  0.5165 -0.5216
 6489TIP3    H243663   7.019   3.139   1.545  0.0057  1.0105 -0.7631
 6490TIP3   OH243664   4.368   6.009   1.736  0.1435  0.0798  0.6091
 6490TIP3    H143665   4.351   6.102   1.749 -1.5323 -0.0420 -0.4122
 6490TIP3    H243666   4.417   5.982   1.813 -0.3222  1.5609  1.4583
 6491TIP3   OH243667   3.024   6.974   2.924 -0.3929  0.3169 -0.1871
 6491TIP3    H143668   2.931   6.976   2.944 -0.3011  1.2881  0.2402
 6491TIP3    H243669   3.041   7.055   2.876  0.1722 -0.0068 -0.5548
 6492TIP3   OH243670   2.523   3.677   1.760 -0.3853 -0.1647  0.3634
 6492TIP3    H143671   2.432   3.682   1.790 -0.8406  1.0722 -1.1229
 6492TIP3    H243672   2.518   3.685   1.665  1.3770  1.5558  0.3450
 6493TIP3   OH243673   5.735   0.720   0.799  0.1308 -0.4266 -0.3165
 6493TIP3    H143674   5.803   0.680   0.853 -0.6951 -0.1952  0.9223
 6493TIP3    H243675   5.771   0.716   0.710  1.5693 -0.7043  0.2396
 6494TIP3   OH243676   1.703   3.622   0.711 -0.4900 -0.1338 -0.4648
 6494TIP3    H143677   1.615   3.659   0.709  0.8465  3.4643 -0.0602
 6494TIP3    H243678   1.717   3.599   0.803 -0.9475 -0.6578 -0.5181
 6495TIP3   OH243679   2.289   4.311   0.683  0.7281 -0.1484 -0.0691
 6495TIP3    H143680   2.291   4.329   0.776  0.4370 -0.8008  0.0737
 6495TIP3    H243681   2.196   4.320   0.659  0.8672  0.4800 -0.3957
 6496TIP3   OH243682   3.124   2.671   3.040 -0.0221  0.0964  0.1092
 6496TIP3    H143683   3.122   2.660   3.135  2.8003 -1.6566  0.0826
 6496TIP3    H243684   3.172   2.753   3.026 -0.5298  0.4089  0.1893
 6497TIP3   OH243685   1.723   5.912   2.681 -0.0650 -0.0303  0.1300
 6497TIP3    H143686   1.807   5.948   2.709 -0.4729 -0.1857  1.6583
 6497TIP3    H243687   1.734   5.893   2.588  2.4169 -2.3164  0.7806
 6498TIP3   OH243688   2.196   1.337   2.487  0.3028 -0.9132 -0.4095
 6498TIP3    H143689   2.267   1.375   2.435  1.2585 -1.1334  0.6838
 6498TIP3    H243690   2.120   1.391   2.467  1.5535  1.4820  0.8920
 6499TIP3   OH243691   0.689   2.626   2.165  0.1903  0.2472  0.0724
 6499TIP3    H143692   0.714   2.717   2.179  1.7561 -0.2076  0.5568
 6499TIP3    H243693   0.722   2.580   2.243  1.4750 -1.0541 -1.1600
 6500TIP3   OH243694   4.778   0.283   2.166 -0.2753 -0.6550 -0.4899
 6500TIP3    H143695   4.725   0.309   2.241  2.7617  0.7090  1.3212
 6500TIP3    H243696   4.780   0.360   2.110 -0.0236 -0.6323 -0.4489
 6501TIP3   OH243697   3.682   1.624   2.568 -0.7649 -0.0356  0.0539
 6501TIP3    H143698   3.595   1.599   2.539 -2.0143  2.7514  1.0475
 6501TIP3    H243699   3.726   1.655   2.488 -1.8000  1.3355 -0.0179
 6502TIP3   OH243700   4.845   3.583   1.178 -0.4883 -0.1632 -0.6049
 6502TIP3    H143701   4.872   3.509   1.123 -2.0736 -0.8195 -0.5491
 6502TIP3    H243702   4.835   3.546   1.265  0.4488  0.5328 -0.1820
 6503TIP3   OH243703   3.808   5.929   1.285  0.3699 -0.3102 -0.1094
 6503TIP3    H143704   3.746   5.923   1.357  1.1709  1.0389  0.7530
 6503TIP3    H243705   3.892   5.946   1.327  0.6593  1.7515 -1.3782
 6504TIP3   OH243706   0.490   2.705   1.571 -0.2767  0.3397 -0.0406
 6504TIP3    H143707   0.404   2.697   1.612  1.0413  1.1727  3.1665
 6504TIP3    H243708   0.518   2.614   1.557 -0.3314 -0.0878  2.1695
 6505TIP3   OH243709   3.240   1.131   3.665 -0.7292 -0.0523 -0.0759
 6505TIP3    H143710   3.201   1.086   3.590 -1.3747  1.1368 -0.4836
 6505TIP3    H243711   3.279   1.210   3.628 -0.0388 -0.0198  0.6905
 6506TIP3   OH243712   0.350   4.918   2.235 -0.5496  0.0535  0.4750
 6506TIP3    H143713   0.268   4.877   2.207  0.0140  0.2807 -1.6917
 6506TIP3    H243714   0.418   4.868   2.191  0.4494  0.3581  1.6195
 6507TIP3   OH243715   0.857   0.295   2.057  0.2475  0.1513 -0.2351
 6507TIP3    H143716   0.902   0.376   2.083  2.0429 -0.6016 -0.8300
 6507TIP3    H243717   0.900   0.226   2.108 -0.4689 -0.5715 -0.5838
 6508TIP3   OH243718   6.443   4.122   1.335  0.2650  0.3897 -0.1082
 6508TIP3    H143719   6.501   4.063   1.286  1.2818 -1.8094  3.3825
 6508TIP3    H243720   6.500   4.192   1.366 -0.2290  1.3631 -1.2854
 6509TIP3   OH243721   5.151   5.553   1.621  0.3718 -0.3991  0.0491
 6509TIP3    H143722   5.077   5.493   1.613 -0.4258  0.6829 -1.0283
 6509TIP3    H243723   5.210   5.529   1.550  0.3714 -0.3433  0.0297
 6510TIP3   OH243724   3.108   5.282   1.247  0.5547  0.1989 -0.3704
 6510TIP3    H143725   3.173   5.211   1.244 -1.9638 -2.2343 -0.9224
 6510TIP3    H243726   3.126   5.333   1.168  1.1833 -0.9932 -1.0270
 6511TIP3   OH243727   1.322   1.858   1.290  0.1320  0.3678  0.0101
 6511TIP3    H143728   1.261   1.790   1.319  1.3205 -1.0907 -0.6950
 6511TIP3    H243729   1.287   1.887   1.206  0.6657 -0.9065 -0.6934
 6512TIP3   OH243730   1.296   6.607   2.414 -0.4372 -0.0926  0.1856
 6512TIP3    H143731   1.277   6.564   2.331 -1.4178 -0.3973  0.5476
 6512TIP3    H243732   1.377   6.567   2.444 -0.6479 -0.7529 -0.1124
 6513TIP3   OH243733   0.510   6.890   1.066 -0.2177 -0.1871  0.4762
 6513TIP3    H143734   0.551   6.943   1.134  3.6378 -0.1699 -1.5613
 6513TIP3    H243735   0.496   6.805   1.106 -2.1672  0.9479  2.4265
 6514TIP3   OH243736   2.474   0.469   3.661 -0.2403  0.3386  0.3882
 6514TIP3    H143737   2.451   0.383   3.696 -0.6974  0.2649 -0.0716
 6514TIP3    H243738   2.418   0.531   3.709 -1.3884  0.1698 -0.6566
 6515TIP3   OH243739   5.822   3.864   1.066  0.0886  0.1380 -0.2206
 6515TIP3    H143740   5.762   3.865   1.141  0.6148 -0.8564  0.2290
 6515TIP3    H243741   5.906   3.839   1.103  0.1963 -1.1291 -1.2548
 6516TIP3   OH243742   3.219   7.416   1.960 -0.2832  0.2754 -0.0839
 6516TIP3    H143743   3.195   7.400   1.869  0.5519 -0.8457 -0.1339
 6516TIP3    H243744   3.298   7.469   1.955  0.5533 -0.9135 -0.0807
 6517TIP3   OH243745   5.231   0.624   1.703  0.5337  0.0661  0.4841
 6517TIP3    H143746   5.200   0.703   1.748 -1.3505 -1.2462  1.6388
 6517TIP3    H243747   5.231   0.648   1.610 -0.5416  1.2680  0.7602
 6518TIP3   OH243748   1.347   5.937   2.764 -0.5008  0.3397  0.5266
 6518TIP3    H143749   1.260   5.977   2.758  0.2429  2.2399  1.7952
 6518TIP3    H243750   1.343   5.881   2.841 -0.4859  0.7602  0.8360
 6519TIP3   OH243751   5.707   1.247   0.803 -0.0744 -0.7435  0.6319
 6519TIP3    H143752   5.744   1.212   0.884  0.4335 -0.1878  0.6443
 6519TIP3    H243753   5.618   1.272   0.825  0.9984  2.4509  1.9350
 6520TIP3   OH243754   2.068   6.521   1.970 -0.3959  0.1233  0.4619
 6520TIP3    H143755   1.986   6.473   1.961 -1.2267  1.4962  0.3304
 6520TIP3    H243756   2.040   6.611   1.990  1.0985  0.4388  1.2433
 6521TIP3   OH243757   7.292   2.885   1.865  0.6754 -0.5787  0.1391
 6521TIP3    H143758   7.216   2.827   1.860  0.8068 -0.6837 -0.8031
 6521TIP3    H243759   7.366   2.827   1.882  0.8211 -0.7095 -0.9012
 6522TIP3   OH243760   6.840   1.688   1.301  0.1249  0.5797  0.2114
 6522TIP3    H143761   6.818   1.769   1.255  3.7509  1.3465 -0.5620
 6522TIP3    H243762   6.936   1.690   1.308  0.3243 -3.2260  0.9894
 6523TIP3   OH243763   0.342   6.672   2.669 -0.3672  0.1428 -0.3627
 6523TIP3    H143764   0.352   6.623   2.588 -0.7182 -0.2142 -0.1915
 6523TIP3    H243765   0.257   6.715   2.661 -1.1144 -1.1137  0.4502
 6524TIP3   OH243766   2.944   0.354   1.067  0.0563 -0.4398 -0.0130
 6524TIP3    H143767   2.928   0.265   1.099  1.2394 -0.8401 -0.4942
 6524TIP3    H243768   2.886   0.363   0.992 -1.9123  0.1091  1.4873
 6525TIP3   OH243769   1.117   3.731   1.920  0.3070 -0.1013  0.1964
 6525TIP3    H143770   1.134   3.724   1.826  0.2198 -0.9536  0.2369
 6525TIP3    H243771   1.094   3.642   1.947  0.6776  0.0658  1.0959
 6526TIP3   OH243772   3.742   0.354   0.675 -0.1239 -0.7480  0.0605
 6526TIP3    H143773   3.732   0.379   0.583  1.8404  0.0330  0.0033
 6526TIP3    H243774   3.694   0.272   0.684 -0.3240 -0.8432 -1.6679
 6527TIP3   OH243775   4.382   3.964   1.136  0.0189 -0.0716 -0.4155
 6527TIP3    H143776   4.356   3.965   1.228  2.4922  0.9007  0.3229
 6527TIP3    H243777   4.303   3.992   1.089 -1.4310 -1.0186  1.3249
 6528TIP3   OH243778   0.626   2.836   0.958 -0.3159 -0.9549  0.5957
 6528TIP3    H143779   0.668   2.912   0.919 -1.7342 -0.3130  0.2796
 6528TIP3    H243780   0.696   2.770   0.962  1.1088  0.5316  1.4611
 6529TIP3   OH243781   1.785   2.906   1.103 -0.0724  0.1603  0.2426
 6529TIP3    H143782   1.739   2.987   1.079 -0.1271  0.5222  1.5093
 6529TIP3    H243783   1.865   2.908   1.051 -0.8151  0.2145 -0.9477
 6530TIP3   OH243784   0.473   6.603   2.142 -0.4125  0.3439  0.1877
 6530TIP3    H143785   0.536   6.605   2.214 -0.7309  0.0395  0.4816
 6530TIP3    H243786   0.454   6.510   2.130 -1.7406  0.4924  0.9372
 6531TIP3   OH243787   6.354   6.740   2.285 -0.1668  0.0630  0.9656
 6531TIP3    H143788   6.446   6.736   2.259 -0.5526 -1.7271 -0.3042
 6531TIP3    H243789   6.344   6.668   2.349 -0.9566 -0.6908  0.0317
 6532TIP3   OH243790   1.405   5.973   0.701 -0.6309  0.3945  0.0829
 6532TIP3    H143791   1.397   5.898   0.643 -0.8693  0.2904  0.2467
 6532TIP3    H243792   1.493   5.966   0.737 -1.3893 -1.0837  1.8155
 6533TIP3   OH243793   4.155   7.402   2.991 -0.5330  0.4636 -0.0342
 6533TIP3    H143794   4.086   7.355   2.944 -1.6326 -0.0519  1.9617
 6533TIP3    H243795   4.117   7.487   3.012 -0.5662  0.1910  1.0477
 6534TIP3   OH243796   2.878   4.683   1.518  0.3401  0.1219  0.3329
 6534TIP3    H143797   2.843   4.739   1.448  0.5533  1.8919  1.5883
 6534TIP3    H243798   2.905   4.743   1.586  1.8811 -1.4565  1.2086
 6535TIP3   OH243799   5.394   5.839   0.404  0.4562  0.2707  0.2457
 6535TIP3    H143800   5.391   5.824   0.309  0.2370  1.3121  0.0774
 6535TIP3    H243801   5.485   5.863   0.421  0.7075 -0.8014  0.4477
 6536TIP3   OH243802   2.063   5.858   1.067  0.0055  0.2412  0.8686
 6536TIP3    H143803   2.048   5.772   1.107  0.0511  0.5983  1.6820
 6536TIP3    H243804   1.990   5.869   1.006  0.5561 -0.8062 -0.0046
 6537TIP3   OH243805   0.719   4.231   1.980 -0.1390 -0.2388  0.3012
 6537TIP3    H143806   0.654   4.164   1.962 -0.6275 -0.2956  2.0888
 6537TIP3    H243807   0.802   4.193   1.952 -0.7299 -0.5740 -1.0248
 6538TIP3   OH243808   1.110   5.611   3.039 -0.4147 -0.8013  0.3391
 6538TIP3    H143809   1.195   5.615   3.084 -0.3531 -0.3616  0.1918
 6538TIP3    H243810   1.133   5.590   2.948 -0.4553 -0.5490  0.2712
 6539TIP3   OH243811   2.559   5.580   3.519 -0.0236  0.4924  0.1741
 6539TIP3    H143812   2.572   5.518   3.447  0.6734  0.0558  0.6584
 6539TIP3    H243813   2.617   5.653   3.499  3.0540 -1.1840  2.0207
 6540TIP3   OH243814   0.914   5.053   2.627 -0.4257 -0.1593 -0.2332
 6540TIP3    H143815   0.939   4.975   2.578 -0.1131 -0.0304 -0.2771
 6540TIP3    H243816   0.948   5.126   2.576 -1.2440  0.0381 -0.5089
 6541TIP3   OH243817   0.432   3.690   0.677  0.7153 -0.4221 -0.0274
 6541TIP3    H143818   0.500   3.722   0.737  0.5689  1.5051 -0.8223
 6541TIP3    H243819   0.355   3.676   0.732  0.4750  1.6700  0.2260
 6542TIP3   OH243820   0.860   5.341   0.898 -0.1975 -0.1863 -0.3783
 6542TIP3    H143821   0.878   5.281   0.970  1.9774 -1.6510 -2.0187
 6542TIP3    H243822   0.939   5.338   0.844 -0.7931  2.6901 -1.5905
 6543TIP3   OH243823   5.892   0.189   2.818 -0.2604  0.1359 -0.5362
 6543TIP3    H143824   5.817   0.145   2.779 -1.2277  1.0239  0.2740
 6543TIP3    H243825   5.886   0.279   2.787 -0.1293  0.4620  0.3400
 6544TIP3   OH243826   6.370   7.355   1.550 -1.4884  0.4878  0.4302
 6544TIP3    H143827   6.333   7.433   1.508 -2.2628  1.7634  3.2952
 6544TIP3    H243828   6.348   7.364   1.642  2.9191 -0.4799  1.7997
 6545TIP3   OH243829   3.058   4.697   0.440  0.2769 -0.6360 -0.9784
 6545TIP3    H143830   3.059   4.790   0.418 -2.4864 -0.5513 -1.0339
 6545TIP3    H243831   3.107   4.692   0.522  0.7508  0.8060 -1.1352
 6546TIP3   OH243832   7.332   5.634   0.389 -0.0763 -0.0775 -0.9238
 6546TIP3    H143833   7.309   5.727   0.389  0.7983  0.1447 -0.3312
 6546TIP3    H243834   7.250   5.590   0.365 -0.8934  0.7449  0.2430
 6547TIP3   OH243835   4.282   6.449   3.020  0.2843 -0.7282 -0.6703
 6547TIP3    H143836   4.293   6.476   3.111  0.3508  2.1122 -1.4523
 6547TIP3    H243837   4.223   6.373   3.025  0.3861 -0.7288  1.7176
 6548TIP3   OH243838   2.065   5.880   2.127 -0.3467 -0.1465 -0.5881
 6548TIP3    H143839   2.133   5.821   2.159 -0.3678  0.4340  0.5973
 6548TIP3    H243840   2.001   5.823   2.086  0.9134 -0.6971 -1.8938
 6549TIP3   OH243841   5.641   1.734   1.430  0.5481 -0.0308  0.1188
 6549TIP3    H143842   5.721   1.701   1.388 -0.1454 -0.3430 -1.0248
 6549TIP3    H243843   5.614   1.807   1.374 -0.1662 -0.1694  0.2841
 6550TIP3   OH243844   7.187   0.408   1.758 -0.4483 -0.8031 -0.1438
 6550TIP3    H143845   7.189   0.388   1.852 -1.7358  0.9603  0.3186
 6550TIP3    H243846   7.274   0.444   1.739 -0.8790  0.9764  0.9634
 6551TIP3   OH243847   4.259   7.279   1.284  0.5041 -0.0281  0.3520
 6551TIP3    H143848   4.301   7.275   1.197  0.3372  1.8332  0.1543
 6551TIP3    H243849   4.311   7.343   1.333 -0.3736  0.1420  1.0844
 6552TIP3   OH243850   7.535   2.590   3.171 -0.2721 -0.1055  0.0147
 6552TIP3    H143851   7.630   2.595   3.188 -0.2092  1.4269 -0.6392
 6552TIP3    H243852   7.496   2.603   3.257  0.1074  0.5228  0.1005
 6553TIP3   OH243853   3.715   4.794   1.169 -0.5211 -0.4213  0.3981
 6553TIP3    H143854   3.673   4.745   1.099  0.2723 -0.3410 -0.1493
 6553TIP3    H243855   3.807   4.767   1.165 -0.8544 -2.3526  3.0444
 6554TIP3   OH243856   3.115   6.568   1.832  0.1963 -0.8980  0.1438
 6554TIP3    H143857   3.181   6.622   1.788 -0.1738 -0.8332 -0.3424
 6554TIP3    H243858   3.087   6.506   1.765 -2.1260  0.7188 -0.5220
 6555TIP3   OH243859   1.108   3.953   0.870 -0.1899  0.5066  0.0383
 6555TIP3    H143860   1.038   3.907   0.823 -0.2069 -0.5297  1.0237
 6555TIP3    H243861   1.155   4.001   0.802 -1.7849  1.1596 -0.6680
 6556TIP3   OH243862   5.462   4.390   2.101 -0.1493 -0.4854  0.5163
 6556TIP3    H143863   5.557   4.383   2.110 -0.3339 -2.9964  1.2061
 6556TIP3    H243864   5.441   4.477   2.134  1.7629 -0.4220  1.7157
 6557TIP3   OH243865   3.202   0.318   1.135 -0.1290  0.0161  0.2575
 6557TIP3    H143866   3.258   0.394   1.145  1.1812 -0.5913 -1.7884
 6557TIP3    H243867   3.124   0.351   1.090  0.9361  0.0255 -1.6866
 6558TIP3   OH243868   2.273   4.354   3.333 -0.6435  0.5614  0.4933
 6558TIP3    H143869   2.186   4.352   3.373 -0.1160 -2.4327  1.7516
 6558TIP3    H243870   2.262   4.308   3.249 -0.3479  0.6327  0.4143
 6559TIP3   OH243871   4.300   5.581   1.180  0.1732 -0.5598 -0.3245
 6559TIP3    H143872   4.395   5.584   1.168 -0.0427 -0.6352 -2.4072
 6559TIP3    H243873   4.286   5.622   1.265  2.1615 -1.8746  0.7166
 6560TIP3   OH243874   6.608   0.825   1.144 -0.1699  0.0689 -0.1702
 6560TIP3    H143875   6.604   0.873   1.061 -1.6696  0.0304 -0.1440
 6560TIP3    H243876   6.700   0.831   1.171 -0.3731  3.4955  0.1575
 6561TIP3   OH243877   2.784   4.540   0.821  0.5387 -0.1170 -0.5103
 6561TIP3    H143878   2.761   4.606   0.887  2.1497  2.3755 -2.2651
 6561TIP3    H243879   2.702   4.523   0.775 -0.1599 -0.3064  0.7676
 6562TIP3   OH243880   0.559   7.670   0.468 -0.3435  0.1498 -0.9223
 6562TIP3    H143881   0.522   7.753   0.496 -0.7134  0.2083 -1.5691
 6562TIP3    H243882   0.583   7.684   0.377  2.0821  0.3823 -0.3193
 6563TIP3   OH243883   6.917   5.270   1.030 -0.3720  0.0824 -0.1729
 6563TIP3    H143884   6.850   5.262   1.097 -2.8198 -1.4064 -2.6129
 6563TIP3    H243885   6.954   5.357   1.043 -2.1810  0.6326  1.7859
 6564TIP3   OH243886   5.238   2.880   1.233  0.1205 -0.2205 -0.4265
 6564TIP3    H143887   5.265   2.791   1.254  2.6595 -0.1993 -3.0127
 6564TIP3    H243888   5.317   2.923   1.201 -1.2396  2.6641 -0.2858
 6565TIP3   OH243889   4.934   3.799   2.141 -0.4224 -0.4970 -0.0958
 6565TIP3    H143890   4.994   3.748   2.086  1.2974 -0.0953  1.3091
 6565TIP3    H243891   4.846   3.773   2.112  0.3940 -3.1348 -0.4543
 6566TIP3   OH243892   3.665   2.665   0.558  0.0178  0.8145  0.1375
 6566TIP3    H143893   3.677   2.624   0.644  0.3670  3.2441  1.3323
 6566TIP3    H243894   3.751   2.698   0.534 -0.2030  0.6840 -0.8713
 6567TIP3   OH243895   4.217   5.083   3.281 -0.8188 -0.0981  0.0963
 6567TIP3    H143896   4.209   4.988   3.277 -1.7717  0.0133 -1.9858
 6567TIP3    H243897   4.184   5.106   3.368  0.3979 -1.7194  1.0348
 6568TIP3   OH243898   3.996   0.202   0.766  0.2694  0.1667 -0.3440
 6568TIP3    H143899   3.913   0.246   0.752  0.8400  1.4214  0.0780
 6568TIP3    H243900   4.046   0.262   0.821  1.6979 -0.2610 -1.1264
 6569TIP3   OH243901   1.496   7.411   0.892 -0.1321  0.4347  0.4596
 6569TIP3    H143902   1.452   7.372   0.968 -0.3958 -1.2021 -0.4843
 6569TIP3    H243903   1.430   7.408   0.822  0.7172  0.1210 -0.3428
 6570TIP3   OH243904   3.147   0.882   0.503 -0.3111  0.1796 -0.0128
 6570TIP3    H143905   3.129   0.973   0.525  1.3379 -0.0335  2.7088
 6570TIP3    H243906   3.105   0.832   0.573 -0.0650 -1.0727 -0.7313
 6571TIP3   OH243907   4.929   5.705   2.718  0.2878  0.6199  0.1583
 6571TIP3    H143908   4.914   5.778   2.777 -0.4627  0.5513  0.0512
 6571TIP3    H243909   4.971   5.639   2.773  0.7024  1.0139  0.3229
 6572TIP3   OH243910   6.729   0.577   2.923 -0.5939  0.3748 -0.1985
 6572TIP3    H143911   6.722   0.638   2.996 -0.1895 -0.9621  1.0236
 6572TIP3    H243912   6.644   0.534   2.920 -1.3181  1.8406 -1.8812
 6573TIP3   OH243913   0.756   6.624   2.162  0.5458  0.0759 -0.6169
 6573TIP3    H143914   0.724   6.714   2.155 -0.5669 -0.4158 -2.8276
 6573TIP3    H243915   0.802   6.608   2.080 -0.3520 -1.7240 -0.8337
 6574TIP3   OH243916   7.330   3.951   2.397 -0.1362 -0.6094  0.2550
 6574TIP3    H143917   7.252   3.908   2.361 -0.4488 -1.9365  2.3424
 6574TIP3    H243918   7.402   3.917   2.343 -0.8707 -0.0590 -1.1277
 6575TIP3   OH243919   3.363   6.691   2.396  0.1030  0.7439 -0.0292
 6575TIP3    H143920   3.326   6.773   2.363 -0.0526  0.6118 -0.1782
 6575TIP3    H243921   3.321   6.679   2.481  0.2256  0.8867  0.0536
 6576TIP3   OH243922   1.203   6.910   2.885  0.4767  0.0312 -0.1158
 6576TIP3    H143923   1.263   6.976   2.849 -0.2076  0.5891 -0.2639
 6576TIP3    H243924   1.260   6.842   2.920  1.1807 -0.2119 -1.6587
 6577TIP3   OH243925   1.507   6.977   0.609  0.0343  0.0969  0.3589
 6577TIP3    H143926   1.559   7.057   0.613 -0.9032  0.6924  1.3202
 6577TIP3    H243927   1.462   6.973   0.693 -1.1732 -0.5889 -0.2867
 6578TIP3   OH243928   4.270   3.720   1.185  0.7316 -0.1081  0.2609
 6578TIP3    H143929   4.271   3.744   1.093  0.7873 -0.7966  0.0718
 6578TIP3    H243930   4.259   3.803   1.232  0.8987  0.2682 -0.3533
 6579TIP3   OH243931   5.399   1.496   2.131 -0.2190 -0.2710 -1.3574
 6579TIP3    H143932   5.401   1.431   2.060 -2.2028 -0.3893 -1.3705
 6579TIP3    H243933   5.428   1.577   2.089  0.7054 -0.7806 -1.7447
 6580TIP3   OH243934   3.629   1.907   0.350  0.4440 -0.1572 -0.4629
 6580TIP3    H143935   3.660   1.819   0.370  0.1952  0.0923  1.1170
 6580TIP3    H243936   3.703   1.964   0.372 -0.5663  0.3200  2.0518
 6581TIP3   OH243937   7.615   0.738   2.265  0.0170 -0.0055  0.1997
 6581TIP3    H143938   7.675   0.669   2.236  0.1764  0.7817 -1.4806
 6581TIP3    H243939   7.530   0.711   2.232  0.2110  0.9345 -1.1608
 6582TIP3   OH243940   0.779   0.023   0.652  0.0632 -0.2059  0.1189
 6582TIP3    H143941   0.703  -0.020   0.612 -0.3273  0.5894 -0.0302
 6582TIP3    H243942   0.847  -0.043   0.653 -0.6711 -0.9812  0.3575
 6583TIP3   OH243943   5.647   0.448   1.754  0.3820  0.1336  0.4394
 6583TIP3    H143944   5.573   0.390   1.775  1.2607 -1.0492  0.3555
 6583TIP3    H243945   5.724   0.401   1.788  1.0888  1.4073  0.6455
 6584TIP3   OH243946   5.898   4.122   2.115 -0.0903 -0.1646 -0.6515
 6584TIP3    H143947   5.944   4.169   2.044  0.7828  1.8006  1.0838
 6584TIP3    H243948   5.968   4.074   2.160  0.0281  1.2951  0.8357
 6585TIP3   OH243949   3.334   3.362   0.851 -0.3859  0.5613  0.1316
 6585TIP3    H143950   3.239   3.358   0.861 -0.3813  1.2071  0.4639
 6585TIP3    H243951   3.348   3.428   0.783 -0.1743  0.4412  0.0587
 6586TIP3   OH243952   1.746   0.748   3.488  0.3027  0.5617  0.6827
 6586TIP3    H143953   1.747   0.828   3.541  0.0607 -0.1686  1.8369
 6586TIP3    H243954   1.829   0.749   3.442  1.1513  0.5540  2.1391
 6587TIP3   OH243955   3.582   2.056   2.651  0.2847  0.8259 -0.0720
 6587TIP3    H143956   3.647   1.999   2.612 -1.8918 -0.0216 -2.7367
 6587TIP3    H243957   3.612   2.145   2.631  0.8756  0.4692 -0.7855
 6588TIP3   OH243958   0.614   2.329   1.701 -0.3020 -0.3562  0.4074
 6588TIP3    H143959   0.526   2.299   1.722 -0.3498  0.1659  1.0118
 6588TIP3    H243960   0.656   2.255   1.657 -0.6105 -1.0775  1.3031
 6589TIP3   OH243961   6.849   6.546   2.261  0.1681  0.6492 -0.0450
 6589TIP3    H143962   6.935   6.513   2.287  0.2379  0.6435 -0.2863
 6589TIP3    H243963   6.805   6.472   2.221  0.0672  0.6643  0.0373
 6590TIP3   OH243964   2.110   1.079   1.647  0.0587  0.1177  0.5509
 6590TIP3    H143965   2.088   0.987   1.632 -0.5621 -0.1417  2.6417
 6590TIP3    H243966   2.030   1.117   1.684  0.4118  1.4134  0.0393
 6591TIP3   OH243967   2.451   0.769   0.964 -0.0753 -0.6498  0.1680
 6591TIP3    H143968   2.471   0.851   0.920 -1.2092 -0.2567  0.3547
 6591TIP3    H243969   2.461   0.788   1.057 -1.4486 -0.3696  0.2874
 6592TIP3   OH243970   3.054   5.642   2.298 -0.0537 -0.1745 -0.3754
 6592TIP3    H143971   2.991   5.699   2.256  1.5415  1.4423 -0.6803
 6592TIP3    H243972   3.040   5.656   2.392 -1.6626 -1.6089 -0.3472
 6593TIP3   OH243973   5.185   5.237   1.678 -0.2804 -0.0460 -0.1177
 6593TIP3    H143974   5.097   5.237   1.714  0.5953 -3.9035  2.7433
 6593TIP3    H243975   5.176   5.193   1.593 -1.0017 -2.0860  0.9462
 6594TIP3   OH243976   4.361   0.629   0.813  0.6772 -0.0320  1.3953
 6594TIP3    H143977   4.418   0.703   0.791  0.4955  0.2456  1.8472
 6594TIP3    H243978   4.396   0.556   0.762  1.7157  0.0235  1.9926
 6595TIP3   OH243979   5.222   4.536   1.574  0.3173 -0.0125  0.1347
 6595TIP3    H143980   5.312   4.546   1.541  0.5540  1.3908  1.1378
 6595TIP3    H243981   5.175   4.611   1.539 -1.0731 -1.8186 -2.1273
 6596TIP3   OH243982   3.310   1.745   2.449 -0.2794  0.1145  0.0039
 6596TIP3    H143983   3.291   1.787   2.365  0.3582 -0.7253 -0.5888
 6596TIP3    H243984   3.319   1.817   2.511 -4.2313  0.6796  0.1659
 6597TIP3   OH243985   2.156   3.303   1.700 -0.5554  0.2805 -0.5086
 6597TIP3    H143986   2.154   3.328   1.792  0.6443 -0.2716 -0.3038
 6597TIP3    H243987   2.202   3.374   1.656 -0.4901  0.2093 -0.5568
 6598TIP3   OH243988   5.714   3.447   2.056 -0.1159 -0.0755 -0.4964
 6598TIP3    H143989   5.625   3.434   2.026 -0.5597 -0.7240  0.9921
 6598TIP3    H243990   5.758   3.363   2.041  0.2414  0.2238 -1.1756
 6599TIP3   OH243991   3.503   0.270   1.330 -0.1131  0.3074  0.6422
 6599TIP3    H143992   3.581   0.217   1.344  0.4658  1.1021  0.5240
 6599TIP3    H243993   3.537   0.357   1.306 -1.0244  0.2517 -1.0393
 6600TIP3   OH243994   0.171   4.012   2.665 -0.0678  0.0458  0.0414
 6600TIP3    H143995   0.223   3.956   2.722 -1.0906  0.2682  1.2254
 6600TIP3    H243996   0.125   4.072   2.724  0.1956  1.4675 -1.1139
 6601TIP3   OH243997   7.178   4.934   2.065 -0.1771  0.0260  0.2948
 6601TIP3    H143998   7.122   4.955   1.991  1.0186  0.5387 -0.4888
 6601TIP3    H243999   7.267   4.929   2.029  0.5874  1.3176  1.8474
 6602TIP3   OH244000   6.241   0.652   2.905 -0.0342  0.2730 -0.0585
 6602TIP3    H144001   6.148   0.672   2.896 -0.0763 -0.7123 -2.7177
 6602TIP3    H244002   6.271   0.709   2.976 -2.6094  0.7133  0.7804
 6603TIP3   OH244003   4.280   5.751   0.882 -0.2051 -0.7073 -0.0689
 6603TIP3    H144004   4.203   5.768   0.936 -1.3603 -0.9352 -1.5986
 6603TIP3    H244005   4.266   5.663   0.846  1.2939 -1.2026  0.4613
 6604TIP3   OH244006   2.318   6.087   0.822 -0.1697  0.0089 -0.3181
 6604TIP3    H144007   2.309   6.003   0.866  0.8227 -0.0157 -0.1396
 6604TIP3    H244008   2.230   6.106   0.789 -0.6780 -0.5002  0.6997
 6605TIP3   OH244009   4.393   1.536   1.208 -0.4041 -0.1360  0.4294
 6605TIP3    H144010   4.304   1.504   1.218 -0.6131  1.0025  2.8921
 6605TIP3    H244011   4.392   1.623   1.249  2.0614 -0.5457  1.5596
 6606TIP3   OH244012   5.325   4.304   2.548 -0.4575 -0.0917 -0.3284
 6606TIP3    H144013   5.305   4.219   2.508 -1.3509  0.3203 -0.7970
 6606TIP3    H244014   5.239   4.345   2.561 -0.1450  0.0408  1.4717
 6607TIP3   OH244015   3.420   0.212   2.036 -0.2097  0.6168 -0.2607
 6607TIP3    H144016   3.331   0.247   2.026 -0.7130 -0.1977  1.1048
 6607TIP3    H244017   3.408   0.129   2.083  1.2367  0.2343 -0.5099
 6608TIP3   OH244018   1.138   1.817   0.435 -0.1378 -0.1954 -0.3849
 6608TIP3    H144019   1.206   1.852   0.377  0.3175 -0.1140  0.1967
 6608TIP3    H244020   1.154   1.723   0.437  0.3903 -0.1015  0.2885
 6609TIP3   OH244021   7.308   3.548   0.680  0.0759 -0.0598  0.2081
 6609TIP3    H144022   7.246   3.503   0.737 -0.0993 -0.7704 -0.5304
 6609TIP3    H244023   7.392   3.537   0.723  0.2624 -2.2391 -0.5589
 6610TIP3   OH244024   4.314   5.049   9.426 -0.2074  0.0516 -0.1703
 6610TIP3    H144025   4.271   4.967   9.451 -1.1804  0.4251 -0.5776
 6610TIP3    H244026   4.290   5.110   9.496 -0.8390  0.4137 -0.6874
 6611TIP3   OH244027   3.027   5.831   0.823  0.0820 -0.1265 -0.1622
 6611TIP3    H144028   2.995   5.744   0.799 -0.2715  0.2312 -1.0388
 6611TIP3    H244029   2.950   5.888   0.815  0.1596  0.1723  1.0063
 6612TIP3   OH244030   7.323   1.024   3.065 -0.2810  0.0059 -0.1510
 6612TIP3    H144031   7.327   1.068   3.150  1.9678  0.1241 -0.2552
 6612TIP3    H244032   7.406   0.976   3.059  0.4730  1.4234 -2.9934
 6613TIP3   OH244033   0.131   0.170   2.150 -0.1512 -0.3420  0.4055
 6613TIP3    H144034   0.212   0.135   2.187 -0.4611 -0.0711  1.3688
 6613TIP3    H244035   0.100   0.233   2.215 -0.7004  0.1715 -0.3412
 6614TIP3   OH244036   1.669   4.723   3.005 -0.3737 -0.0372  0.5271
 6614TIP3    H144037   1.612   4.767   2.941 -1.2324 -0.4119  1.0121
 6614TIP3    H244038   1.670   4.782   3.080 -1.4802 -0.7731  1.1568
 6615TIP3   OH244039   3.494   0.551   2.362 -0.1444 -0.2148 -0.2578
 6615TIP3    H144040   3.420   0.599   2.400 -0.6536 -0.3028 -1.1293
 6615TIP3    H244041   3.475   0.460   2.381  1.1436 -0.1058  1.9765
 6616TIP3   OH244042   0.225   5.413   0.469  0.7812  0.1738  0.4691
 6616TIP3    H144043   0.202   5.453   0.552  1.0311 -0.1985  0.7197
 6616TIP3    H244044   0.318   5.393   0.476  0.1886 -2.6924  1.3193
 6617TIP3   OH244045   1.054   1.597   2.266 -0.2210 -0.0693 -0.2922
 6617TIP3    H144046   1.088   1.589   2.355 -1.0226 -2.9054 -0.1482
 6617TIP3    H244047   1.044   1.691   2.253  0.1275  0.4479  2.5184
 6618TIP3   OH244048   2.461   7.059   0.757 -0.1230  0.1929 -0.2697
 6618TIP3    H144049   2.387   7.112   0.787  0.5857  1.3994 -0.5782
 6618TIP3    H244050   2.495   7.019   0.837 -2.0338 -1.6760 -0.3073
 6619TIP3   OH244051   6.896   5.061   2.786  0.1563  0.5070 -0.3022
 6619TIP3    H144052   6.946   5.092   2.862 -1.5387 -0.3425  1.2391
 6619TIP3    H244053   6.835   5.132   2.768 -0.2273  0.2341 -0.0999
 6620TIP3   OH244054   5.468   5.231   2.751 -0.3848 -0.0702 -0.1352
 6620TIP3    H144055   5.560   5.254   2.739 -0.3668 -0.6107 -1.0691
 6620TIP3    H244056   5.455   5.151   2.700 -1.7086  0.7834 -1.2264
 6621TIP3   OH244057   5.114   4.373   1.839 -0.2685  0.0635 -0.0477
 6621TIP3    H144058   5.183   4.430   1.807 -1.1972  1.6094  0.5917
 6621TIP3    H244059   5.153   4.328   1.914 -0.1025  1.3724  0.6833
 6622TIP3   OH244060   1.180   6.401   1.937 -0.0824  0.1219 -0.6629
 6622TIP3    H144061   1.176   6.324   1.993 -0.0731  0.2497 -0.4878
 6622TIP3    H244062   1.093   6.441   1.944 -0.0770  0.1466 -0.7289
 6623TIP3   OH244063   1.537   2.798   2.410  0.3019  0.4064  0.5665
 6623TIP3    H144064   1.583   2.741   2.471  1.4425  1.9281  1.2052
 6623TIP3    H244065   1.444   2.789   2.434  0.1630 -2.6096 -0.6570
 6624TIP3   OH244066   0.509   5.632   1.493  0.0702  0.1074 -0.2143
 6624TIP3    H144067   0.543   5.615   1.581 -1.1554 -1.8449 -0.0617
 6624TIP3    H244068   0.588   5.643   1.439  1.0707 -3.3235  0.3104
 6625TIP3   OH244069   4.671   2.398   1.525  0.1109 -1.0434 -0.1065
 6625TIP3    H144070   4.702   2.315   1.488 -0.5622 -1.2996 -0.1193
 6625TIP3    H244071   4.747   2.455   1.524  0.7269 -1.8468  0.4444
 6626TIP3   OH244072   2.135   5.023   2.424 -0.1919  0.3452  0.3853
 6626TIP3    H144073   2.153   5.079   2.500  0.6485 -1.3571  1.4931
 6626TIP3    H244074   2.055   5.061   2.386 -0.5085  1.3872  1.9650
 6627TIP3   OH244075   0.081   5.194   0.474  0.1487  0.7254 -0.3618
 6627TIP3    H144076   0.074   5.188   0.379  0.7072 -0.3003 -0.3500
 6627TIP3    H244077   0.132   5.273   0.490  1.1573  0.2176 -0.9784
 6628TIP3   OH244078   0.088   4.189   2.888  0.2258  0.0358 -0.8405
 6628TIP3    H144079   0.021   4.126   2.914  0.4497  0.5290  1.0424
 6628TIP3    H244080   0.054   4.274   2.916  0.7798  0.5341 -1.6261
 6629TIP3   OH244081   5.031   5.185   1.177  0.3399  0.4253 -0.0702
 6629TIP3    H144082   4.975   5.133   1.120 -0.1534 -1.2685  1.8465
 6629TIP3    H244083   4.969   5.228   1.237  0.9626  0.0383  0.8649
 6630TIP3   OH244084   2.707   6.365   2.481 -0.1120 -0.3115  0.1575
 6630TIP3    H144085   2.751   6.326   2.556 -0.8517  0.0529  0.7948
 6630TIP3    H244086   2.707   6.296   2.414  0.8135 -0.5333  0.3790
 6631TIP3   OH244087   0.801   6.029   1.882 -0.0250 -0.2754 -0.1770
 6631TIP3    H144088   0.813   6.117   1.917  1.9256  0.1039 -1.6172
 6631TIP3    H244089   0.707   6.021   1.867 -0.6242  0.4935  2.4991
 6632TIP3   OH244090   3.504   5.142   3.082 -0.1077 -0.4559  0.7742
 6632TIP3    H144091   3.430   5.142   3.021  0.7028  0.2912 -0.2502
 6632TIP3    H244092   3.542   5.230   3.075  1.1047 -0.9302  0.9811
 6633TIP3   OH244093   6.980   0.179   1.907  0.1254  0.4346 -0.2686
 6633TIP3    H144094   6.996   0.110   1.842  1.8053 -0.5492  1.0959
 6633TIP3    H244095   7.067   0.205   1.937 -0.5577 -0.1637  2.5860
 6634TIP3   OH244096   4.423   3.684   1.843  0.1280 -0.1983  0.0326
 6634TIP3    H144097   4.333   3.697   1.813 -0.0495  1.0430  1.0231
 6634TIP3    H244098   4.414   3.637   1.926  0.1705  2.2369  1.5187
 6635TIP3   OH244099   2.308   5.380   3.446 -0.4363 -0.3178  0.4306
 6635TIP3    H144100   2.336   5.292   3.472  0.8715 -0.1601 -0.3314
 6635TIP3    H244101   2.239   5.365   3.382 -0.2730 -0.7950  0.3557
 6636TIP3   OH244102   0.383   3.143   1.592 -0.8249 -0.3088 -0.0744
 6636TIP3    H144103   0.475   3.169   1.587 -0.7579 -0.6042 -0.5588
 6636TIP3    H244104   0.337   3.209   1.541 -1.0865  0.6818  1.3996
 6637TIP3   OH244105   3.315   4.120   1.480 -0.2673  0.0064  0.1220
 6637TIP3    H144106   3.385   4.086   1.535 -0.6322  1.4760  1.5746
 6637TIP3    H244107   3.244   4.055   1.489  0.3962 -0.7910 -0.2731
 6638TIP3   OH244108   1.524   2.792   1.153 -0.0562 -0.0060  0.3554
 6638TIP3    H144109   1.528   2.830   1.065 -2.2762 -0.4279 -0.0013
 6638TIP3    H244110   1.513   2.867   1.211 -0.6554  0.1586  0.0420
 6639TIP3   OH244111   6.174   6.693   2.079  0.0602  0.3053  0.1220
 6639TIP3    H144112   6.198   6.731   1.994 -1.3706 -1.0926 -0.9707
 6639TIP3    H244113   6.250   6.708   2.134  1.5399  0.1496 -1.7752
 6640TIP3   OH244114   4.633   4.248   2.990 -0.5333 -0.1101 -0.3033
 6640TIP3    H144115   4.703   4.207   3.041 -1.6272 -1.4365  0.1776
 6640TIP3    H244116   4.554   4.237   3.043 -1.2955  0.4513 -1.2920
 6641TIP3   OH244117   1.784   7.035   3.616  0.2651 -0.4448  0.1794
 6641TIP3    H144118   1.793   7.127   3.592 -1.5835 -0.0439  0.8695
 6641TIP3    H244119   1.854   6.991   3.568  0.9638  1.2645 -0.4415
 6642TIP3   OH244120   4.878   7.354   1.128  0.4609 -0.0931 -0.0410
 6642TIP3    H144121   4.830   7.274   1.143  1.0649 -0.5089 -0.2753
 6642TIP3    H244122   4.821   7.424   1.161 -0.4915 -0.5195 -0.7328
 6643TIP3   OH244123   4.069   4.043   2.631 -0.3931 -0.0019 -0.3295
 6643TIP3    H144124   4.126   4.118   2.616 -1.1470  0.8635  0.9761
 6643TIP3    H244125   4.026   4.061   2.714 -1.1661 -1.5310 -0.3532
 6644TIP3   OH244126   5.460   4.805   3.093  0.3799 -0.4531 -0.0507
 6644TIP3    H144127   5.366   4.818   3.102  0.5759  0.4288  0.8910
 6644TIP3    H244128   5.469   4.718   3.053 -0.8600  0.2537 -2.0115
 6645TIP3   OH244129   7.035   0.123   2.327  0.0460  0.0174 -0.3859
 6645TIP3    H144130   6.947   0.153   2.307 -0.4084 -1.3336 -0.4810
 6645TIP3    H244131   7.029   0.084   2.414  0.5838  0.0452 -0.3314
 6646TIP3   OH244132   0.459   1.970   1.646 -0.3344 -0.7249  0.2861
 6646TIP3    H144133   0.519   1.919   1.591  0.0878  0.2159 -0.1501
 6646TIP3    H244134   0.502   1.973   1.732  0.5431  0.3990 -0.1656
 6647TIP3   OH244135   6.461   1.145   1.168  0.2555 -0.3494  0.4673
 6647TIP3    H144136   6.373   1.167   1.138  0.1212  0.1035  1.1654
 6647TIP3    H244137   6.512   1.226   1.155  0.3533 -0.3483  0.8474
 6648TIP3   OH244138   2.824   0.426   0.831 -0.3576  0.2913  0.0370
 6648TIP3    H144139   2.738   0.461   0.856 -0.4499 -0.1632  0.3629
 6648TIP3    H244140   2.866   0.499   0.785 -0.9365  0.4989 -0.1757
 6649TIP3   OH244141   7.103   0.169   1.130  0.0043  0.2029 -0.4132
 6649TIP3    H144142   7.080   0.108   1.060  1.2266 -0.4057 -0.3015
 6649TIP3    H244143   7.065   0.253   1.103  0.3228 -0.0652 -1.7151
 6650TIP3   OH244144   6.048   2.834   1.422 -0.4983 -0.8229 -0.4307
 6650TIP3    H144145   6.133   2.875   1.408 -0.5766 -0.6057 -0.2757
 6650TIP3    H244146   6.058   2.788   1.506 -0.7089 -0.3287 -0.1291
 6651TIP3   OH244147   5.831   5.354   1.143  0.3488 -0.0155 -0.6699
 6651TIP3    H144148   5.760   5.294   1.120 -0.9972  1.6625 -1.0930
 6651TIP3    H244149   5.867   5.318   1.224 -0.6338 -1.2074 -0.7309
 6652TIP3   OH244150   3.175   5.669   1.690  0.0683  0.1862  0.2897
 6652TIP3    H144151   3.130   5.666   1.774 -0.6908  0.9291 -0.0740
 6652TIP3    H244152   3.133   5.601   1.638  0.7714 -0.5116  0.6007
 6653TIP3   OH244153   2.094   2.092   2.573  0.6554  0.1255  0.5720
 6653TIP3    H144154   2.160   2.025   2.594  0.7946 -0.0719 -0.4223
 6653TIP3    H244155   2.136   2.147   2.507 -1.0134 -1.5324 -2.0594
 6654TIP3   OH244156   1.878   2.088   1.084 -0.2806  0.0255  0.1379
 6654TIP3    H144157   1.798   2.135   1.108  0.1902  0.8328  0.1914
 6654TIP3    H244158   1.883   2.016   1.147 -0.8419  0.1051  0.2843
 6655TIP3   OH244159   5.294   2.382   1.835 -1.0026  0.1326  0.0153
 6655TIP3    H144160   5.330   2.462   1.795 -1.2673  0.9703  1.4076
 6655TIP3    H244161   5.353   2.364   1.908 -1.2253 -0.6982 -0.0037
 6656TIP3   OH244162   2.084   2.142   2.201  0.0982  0.0325 -0.1270
 6656TIP3    H144163   2.160   2.144   2.259  1.1042  0.8153 -1.4229
 6656TIP3    H244164   2.105   2.204   2.132 -1.0259 -0.9145 -1.3677
 6657TIP3   OH244165   6.373   6.257   1.193  0.6248 -0.0531  0.1310
 6657TIP3    H144166   6.359   6.351   1.182 -0.1056 -0.2715 -0.9457
 6657TIP3    H244167   6.372   6.222   1.104 -0.4400 -1.2579  0.5826
 6658TIP3   OH244168   4.402   4.527   1.952  0.6866  0.4977  0.2340
 6658TIP3    H144169   4.321   4.552   1.997  0.1341  0.7196 -0.8514
 6658TIP3    H244170   4.435   4.609   1.915  2.3103  0.7176  2.0222
 6659TIP3   OH244171   1.980   2.622   2.351 -0.5372  0.3058  0.5575
 6659TIP3    H144172   2.021   2.608   2.436  1.7284  0.5620 -0.4397
 6659TIP3    H244173   1.895   2.578   2.358 -0.4752  0.4512  2.9774
 6660TIP3   OH244174   0.175   3.791   1.278  0.4727  0.1941 -0.3978
 6660TIP3    H144175   0.181   3.852   1.352  2.0709  0.3320 -0.6009
 6660TIP3    H244176   0.082   3.782   1.262  0.1694  2.1316  0.0188
 6661TIP3   OH244177   5.171   4.332   2.236 -0.1545  0.2729 -0.2184
 6661TIP3    H144178   5.248   4.289   2.273 -0.1505 -0.3705 -0.9349
 6661TIP3    H244179   5.149   4.279   2.159 -0.2086  1.5156 -1.0924
 6662TIP3   OH244180   3.522   5.617   1.520 -0.3094  0.1640  0.3955
 6662TIP3    H144181   3.465   5.542   1.504  0.4336 -0.5183  0.8587
 6662TIP3    H244182   3.536   5.616   1.615 -0.1806  0.8113  0.3852
 6663TIP3   OH244183   0.558   1.239   0.774 -0.0190  0.5343  0.1131
 6663TIP3    H144184   0.630   1.249   0.836 -0.4084  1.0235  0.4954
 6663TIP3    H244185   0.538   1.146   0.775  1.4961  0.1592 -1.0207
 6664TIP3   OH244186   4.650   5.058   0.869  0.1099  0.0910  0.3937
 6664TIP3    H144187   4.578   5.049   0.932 -0.0747 -0.0361  0.1682
 6664TIP3    H244188   4.644   5.148   0.838 -0.9039 -0.3381 -0.7482
 6665TIP3   OH244189   4.287   3.211   2.052 -0.5202  0.3099  0.1915
 6665TIP3    H144190   4.306   3.192   2.143  1.8155  0.0587 -0.2938
 6665TIP3    H244191   4.215   3.151   2.030  0.7279 -1.6489  1.1349
 6666TIP3   OH244192   3.964   5.007   1.544  0.0602  0.0253 -0.0653
 6666TIP3    H144193   3.871   5.027   1.529  0.3430  1.9978  0.4657
 6666TIP3    H244194   3.984   4.937   1.482 -1.4780  0.4275 -1.0862
 6667TIP3   OH244195   4.142   3.212   2.486 -0.0984  0.2750 -0.2280
 6667TIP3    H144196   4.226   3.219   2.440 -0.0522 -0.1212 -0.2071
 6667TIP3    H244197   4.158   3.147   2.555 -0.7060 -0.5828 -0.8740
 6668TIP3   OH244198   4.646   7.671   2.429 -0.2914 -0.2191 -0.3915
 6668TIP3    H144199   4.627   7.598   2.370  0.2461  1.0062 -2.1509
 6668TIP3    H244200   4.719   7.717   2.388 -0.2416  0.9908  0.9713
 6669TIP3   OH244201   0.734   6.447   2.549  0.0636  0.0206  0.9874
 6669TIP3    H144202   0.735   6.386   2.623  0.2054  0.0784  1.0334
 6669TIP3    H244203   0.690   6.525   2.582 -2.3030 -0.8858  0.2639
 6670TIP3   OH244204   0.401   0.337   1.669  0.1159 -0.0534 -0.4233
 6670TIP3    H144205   0.410   0.331   1.764  1.9597 -1.0412 -0.6109
 6670TIP3    H244206   0.446   0.259   1.636 -0.0878  0.5082 -2.1317
 6671TIP3   OH244207   1.310   0.535   2.841 -0.0218  0.2039  0.1340
 6671TIP3    H144208   1.327   0.445   2.869  0.4394  0.3195  0.2170
 6671TIP3    H244209   1.302   0.585   2.922  2.2488  0.7208  0.1084
 6672TIP3   OH244210   4.367   4.378   2.878 -0.2766  0.1724 -0.1657
 6672TIP3    H144211   4.388   4.321   2.951 -0.5640 -0.4430 -0.5494
 6672TIP3    H244212   4.438   4.441   2.875 -0.5780  0.5976  1.0245
 6673TIP3   OH244213   2.928   5.753   2.544 -0.1660 -0.1172  0.4920
 6673TIP3    H144214   2.978   5.809   2.483 -0.8169  0.8925  0.8725
 6673TIP3    H244215   2.837   5.767   2.520 -0.3662 -4.4058 -2.4047
 6674TIP3   OH244216   6.136   5.220   1.083 -0.2446 -0.0193  0.2615
 6674TIP3    H144217   6.101   5.268   1.008  1.0680 -0.8457 -0.9295
 6674TIP3    H244218   6.183   5.286   1.134 -0.4717  0.3947 -0.0573
 6675TIP3   OH244219   7.405   1.701   1.490 -0.7307  0.0534 -0.1414
 6675TIP3    H144220   7.491   1.681   1.525 -1.5220 -2.2178  0.7029
 6675TIP3    H244221   7.361   1.749   1.561 -0.7672 -0.4019  0.1448
 6676TIP3   OH244222   3.857   1.469   2.914 -0.0358  0.0101 -0.0912
 6676TIP3    H144223   3.892   1.433   2.832  1.1787  0.1899  0.3287
 6676TIP3    H244224   3.901   1.419   2.983 -0.5944  0.2683  0.4647
 6677TIP3   OH244225   0.547   5.427   2.287 -0.2013  0.4062  0.1250
 6677TIP3    H144226   0.487   5.409   2.214 -1.0070  0.7447  0.6852
 6677TIP3    H244227   0.504   5.388   2.363  0.7521 -0.1643  0.3921
 6678TIP3   OH244228   0.404   6.115   1.068  0.2460 -0.2368  0.1350
 6678TIP3    H144229   0.361   6.033   1.093  0.8216 -0.0870  1.6850
 6678TIP3    H244230   0.399   6.116   0.972 -1.1366 -1.3330  0.1594
 6679TIP3   OH244231   7.093   0.666   1.422 -0.4248  0.3891  0.2078
 6679TIP3    H144232   7.120   0.577   1.399  0.9352  1.1293 -1.1832
 6679TIP3    H244233   7.055   0.657   1.510 -0.3876 -1.5602  0.0684
 6680TIP3   OH244234   3.967   5.774   3.590 -0.2229 -0.0234  0.3513
 6680TIP3    H144235   3.978   5.683   3.618  1.0211  0.1009  0.3096
 6680TIP3    H244236   3.956   5.769   3.495  1.0080 -0.0651  0.1965
 6681TIP3   OH244237   0.984   0.345   1.798  0.4553 -0.6259 -0.5332
 6681TIP3    H144238   1.044   0.406   1.841  1.7119 -1.8659 -0.4388
 6681TIP3    H244239   0.936   0.304   1.871  0.9116 -1.0437 -0.4626
 6682TIP3   OH244240   2.555   2.069   2.992 -0.1387  0.3081  0.4927
 6682TIP3    H144241   2.610   2.143   3.018  2.2438 -0.2813 -2.3843
 6682TIP3    H244242   2.492   2.106   2.930 -0.4736  0.3023  0.8244
 6683TIP3   OH244243   7.283   3.799   2.079  0.6655 -0.4878 -0.1484
 6683TIP3    H144244   7.268   3.784   1.986  3.6392 -2.9290 -0.3805
 6683TIP3    H244245   7.197   3.786   2.120 -0.3034 -1.4433 -2.3512
 6684TIP3   OH244246   0.038   2.489   2.619 -0.9695 -0.0327 -0.0548
 6684TIP3    H144247   0.032   2.431   2.543  1.9383 -0.9874  0.3252
 6684TIP3    H244248   0.007   2.436   2.692  1.4182 -1.1093  0.2457
 6685TIP3   OH244249   3.396   7.269   2.516  0.1890  0.0040 -0.2612
 6685TIP3    H144250   3.366   7.221   2.439 -0.3715 -0.6267  0.3348
 6685TIP3    H244251   3.366   7.216   2.590  0.8459  0.5244  0.3881
 6686TIP3   OH244252   7.011   2.314   1.907  0.6438  0.3434 -0.5595
 6686TIP3    H144253   7.080   2.361   1.954 -0.3144 -0.5425  1.9080
 6686TIP3    H244254   7.030   2.329   1.814  2.1418  2.9552  0.0733
 6687TIP3   OH244255   1.161   5.645   2.748  0.0587  0.7845  0.0542
 6687TIP3    H144256   1.118   5.687   2.673 -1.2925 -0.7256 -0.0756
 6687TIP3    H244257   1.253   5.641   2.723 -0.0377  2.1221 -0.6255
 6688TIP3   OH244258   6.004   5.532   1.415  0.7948 -0.0019 -0.4488
 6688TIP3    H144259   5.950   5.571   1.347 -0.2934  0.7260  0.7997
 6688TIP3    H244260   5.957   5.453   1.441  0.5118  0.4383  0.3895
 6689TIP3   OH244261   7.173   4.160   1.492  0.7701 -0.0169 -0.0334
 6689TIP3    H144262   7.227   4.083   1.511 -0.0834 -0.6303 -0.0707
 6689TIP3    H244263   7.148   4.151   1.400 -0.8350 -0.6584  0.4406
 6690TIP3   OH244264   3.392   6.407   3.402 -0.7787  0.5559  0.1019
 6690TIP3    H144265   3.456   6.380   3.336 -0.2282 -0.0409  0.8654
 6690TIP3    H244266   3.431   6.381   3.485 -1.4483  1.3419  0.6730
 6691TIP3   OH244267   3.769   2.308   1.603 -0.2711  0.4653 -0.0377
 6691TIP3    H144268   3.769   2.214   1.584 -1.6820  0.6946 -1.3290
 6691TIP3    H244269   3.822   2.346   1.534  0.8526  0.5902  0.8575
 6692TIP3   OH244270   5.301   0.572   0.504 -0.6354 -0.0293 -0.3516
 6692TIP3    H144271   5.359   0.646   0.522 -1.6638  0.8201 -0.4470
 6692TIP3    H244272   5.359   0.504   0.470  0.4229  0.4892  0.3594
 6693TIP3   OH244273   1.681   3.627   2.624  0.6487  0.0323 -0.1776
 6693TIP3    H144274   1.626   3.643   2.547  0.2149 -0.6465 -0.0174
 6693TIP3    H244275   1.714   3.713   2.648 -2.1410  0.8468  1.1154
 6694TIP3   OH244276   3.892   6.886   1.699 -0.0027  0.1823 -0.1128
 6694TIP3    H144277   3.924   6.815   1.755 -0.5393  1.0670  1.4022
 6694TIP3    H244278   3.955   6.892   1.628 -0.6335 -2.6633 -1.0531
 6695TIP3   OH244279   2.729   4.922   3.226 -0.5322  0.0591  0.0588
 6695TIP3    H144280   2.798   4.924   3.160  2.3501  0.9159  2.8640
 6695TIP3    H244281   2.703   4.830   3.231 -0.1711 -0.1520 -1.5671
 6696TIP3   OH244282   0.336   7.250   1.980  0.1745 -0.4797  0.1904
 6696TIP3    H144283   0.416   7.286   1.941 -0.9828  0.6847 -1.2684
 6696TIP3    H244284   0.349   7.155   1.980  0.7884 -0.4439 -1.9092
 6697TIP3   OH244285   5.100   5.696   3.027  0.2264 -0.1674  0.1587
 6697TIP3    H144286   5.130   5.644   2.952 -0.1791 -1.3651  0.8006
 6697TIP3    H244287   5.099   5.634   3.100 -1.7877  0.3252  0.6153
 6698TIP3   OH244288   4.153   0.070   1.848  0.2597  0.5651  0.1100
 6698TIP3    H144289   4.070   0.030   1.874  0.3889  0.8972  1.0672
 6698TIP3    H244290   4.133   0.163   1.837  0.5100  0.6557  0.3991
 6699TIP3   OH244291   5.278   3.082   1.462 -0.1449  0.1761  0.1221
 6699TIP3    H144292   5.282   3.038   1.377 -0.2930 -0.5269  0.4754
 6699TIP3    H244293   5.370   3.094   1.487 -0.1031  0.2073 -0.0432
 6700TIP3   OH244294   7.263   4.696   1.351  0.3898 -0.2493  0.7508
 6700TIP3    H144295   7.341   4.643   1.333  0.8561  0.4033  0.8096
 6700TIP3    H244296   7.284   4.782   1.316 -0.7487 -0.3432 -0.2549
 6701TIP3   OH244297   5.560   6.123   1.381  0.2072 -0.0356  0.4003
 6701TIP3    H144298   5.643   6.082   1.357 -0.2137 -0.7724  0.1955
 6701TIP3    H244299   5.537   6.084   1.465 -0.9441 -1.3846 -0.4846
 6702TIP3   OH244300   7.429   6.237   0.548 -0.3650 -0.5275 -0.7379
 6702TIP3    H144301   7.485   6.303   0.589 -0.6158 -1.2280  0.7823
 6702TIP3    H244302   7.340   6.265   0.568 -0.4712 -1.3076 -0.1024
 6703TIP3   OH244303   7.323   3.164   1.846  0.2533  0.0125  0.3146
 6703TIP3    H144304   7.295   3.075   1.825  1.2942 -0.7828  2.1089
 6703TIP3    H244305   7.291   3.179   1.935  0.5721  1.2427  0.2416
 6704TIP3   OH244306   2.721   1.653   2.297  0.1021 -0.0368 -0.4511
 6704TIP3    H144307   2.638   1.623   2.334 -1.0486 -0.1509 -2.9111
 6704TIP3    H244308   2.706   1.746   2.278  1.0657  0.3023  0.3665
 6705TIP3   OH244309   1.696   2.797   0.783 -0.0739  0.2177 -0.0935
 6705TIP3    H144310   1.774   2.755   0.745 -1.5052 -1.8147 -0.9878
 6705TIP3    H244311   1.711   2.891   0.771  2.1729 -0.1098 -0.3191
 6706TIP3   OH244312   4.383   1.213   3.424 -0.2450  0.3968 -0.3888
 6706TIP3    H144313   4.340   1.144   3.373  0.1163 -0.9668  1.0744
 6706TIP3    H244314   4.427   1.167   3.495 -0.7859  2.2331  1.2243
 6707TIP3   OH244315   4.039   0.834   2.430  0.1404 -0.0158 -0.2347
 6707TIP3    H144316   3.976   0.889   2.384 -1.4923 -1.0816  0.6131
 6707TIP3    H244317   4.001   0.821   2.517  1.9521 -0.0345  0.6052
 6708TIP3   OH244318   0.388   6.522   2.410  0.1283 -0.5023  0.1562
 6708TIP3    H144319   0.337   6.475   2.343  2.5001 -2.7883 -0.2121
 6708TIP3    H244320   0.404   6.456   2.478 -0.4815  1.2048  2.0386
 6709TIP3   OH244321   2.821   0.898   3.016  0.0464  0.2354 -0.0851
 6709TIP3    H144322   2.770   0.969   3.054  0.5270 -0.6026  2.3273
 6709TIP3    H244323   2.892   0.942   2.969  0.8800  1.4301  2.1416
 6710TIP3   OH244324   1.998   5.336   1.690 -0.3824  0.3581  0.1328
 6710TIP3    H144325   2.038   5.254   1.662 -1.2537 -0.0980  0.2194
 6710TIP3    H244326   2.052   5.404   1.649  1.2416 -0.1962  1.2230
 6711TIP3   OH244327   3.280   5.890   1.583 -0.5737 -0.1550  0.1783
 6711TIP3    H144328   3.311   5.949   1.652  0.3834 -0.5107  0.0781
 6711TIP3    H244329   3.226   5.826   1.628  0.3729 -0.6234  0.6891
 6712TIP3   OH244330   6.174   0.546   1.072 -0.3719  0.4798 -0.3269
 6712TIP3    H144331   6.146   0.599   1.146  0.4266  0.6681 -0.1624
 6712TIP3    H244332   6.159   0.456   1.100 -0.3642  0.5615 -0.0581
 6713TIP3   OH244333   5.983   0.926   1.702  0.0225  0.2015  0.0836
 6713TIP3    H144334   5.890   0.946   1.708  0.2564  1.4880 -0.2760
 6713TIP3    H244335   6.009   0.958   1.616  0.7394 -0.3908  0.0740
 6714TIP3   OH244336   3.451   2.444   2.326  0.1549  0.1650 -0.2033
 6714TIP3    H144337   3.491   2.419   2.243 -0.2664  0.0949 -0.3898
 6714TIP3    H244338   3.358   2.458   2.305 -0.3930 -1.8297  0.6280
 6715TIP3   OH244339   1.842   3.759   1.205 -0.0737 -0.1680 -0.5658
 6715TIP3    H144340   1.809   3.736   1.291 -1.6559 -0.2223 -1.1540
 6715TIP3    H244341   1.845   3.855   1.204  1.7127 -0.1743  0.1465
 6716TIP3   OH244342   1.291   4.315   1.704 -0.1054 -0.7071 -0.1043
 6716TIP3    H144343   1.293   4.374   1.629  0.9495 -0.0460  0.4223
 6716TIP3    H244344   1.309   4.370   1.780 -1.7104 -1.2690  0.7317
 6717TIP3   OH244345   0.566   2.472   1.479  0.1141  0.4252  0.3495
 6717TIP3    H144346   0.625   2.471   1.403 -0.7487 -1.1570 -0.3585
 6717TIP3    H244347   0.614   2.425   1.547  0.1515  0.1827  0.1585
 6718TIP3   OH244348   1.539   5.466   3.601 -0.0810 -0.3419 -0.2851
 6718TIP3    H144349   1.552   5.382   3.645  1.6679 -0.2850 -0.6135
 6718TIP3    H244350   1.525   5.529   3.672 -0.9841 -0.8251 -0.0178
 6719TIP3   OH244351   7.276   5.829   1.582  0.9464  0.4917  0.1509
 6719TIP3    H144352   7.340   5.791   1.641 -0.1539  0.1653  1.1646
 6719TIP3    H244353   7.241   5.755   1.533  0.2294  0.4468  0.7163
 6720TIP3   OH244354   1.938   4.568   0.808 -0.2066 -0.0826  0.2791
 6720TIP3    H144355   1.960   4.538   0.720  0.3903  0.8170  0.1047
 6720TIP3    H244356   1.844   4.557   0.814 -0.1519 -0.9249 -0.1662
 6721TIP3   OH244357   6.900   1.253   1.313  0.1121 -0.0557  0.4366
 6721TIP3    H144358   6.882   1.264   1.406 -2.1801  1.8304 -0.1228
 6721TIP3    H244359   6.944   1.334   1.287 -1.4585  0.5168 -0.5483
 6722TIP3   OH244360   2.325   6.894   2.269 -0.7520 -0.4853  0.0358
 6722TIP3    H144361   2.398   6.839   2.296 -1.8574 -1.6967  0.6545
 6722TIP3    H244362   2.348   6.982   2.301 -0.4240 -1.2089  1.9242
 6723TIP3   OH244363   5.235   6.443   1.813  0.3710  0.5580  0.1251
 6723TIP3    H144364   5.228   6.424   1.907 -1.4541  1.7739  0.2899
 6723TIP3    H244365   5.240   6.357   1.771  1.5951 -0.0038  1.3196
 6724TIP3   OH244366   3.966   0.261   2.394  0.4090 -0.6435  0.3035
 6724TIP3    H144367   3.977   0.346   2.351  2.0100 -1.0863 -0.2390
 6724TIP3    H244368   3.874   0.240   2.383  0.5683 -0.3337 -2.1665
 6725TIP3   OH244369   4.339   2.849   2.312 -0.7366 -0.0456 -0.6267
 6725TIP3    H144370   4.374   2.765   2.282 -0.1491  0.0331 -0.1692
 6725TIP3    H244371   4.408   2.912   2.296 -0.4403  0.0231  0.7419
 6726TIP3   OH244372   1.631   0.071   2.836 -0.1315  0.0278  0.4535
 6726TIP3    H144373   1.643  -0.012   2.883 -4.3001  0.0684  2.0356
 6726TIP3    H244374   1.638   0.047   2.743 -0.4914 -1.9804  0.8976
 6727TIP3   OH244375   4.103   3.125   0.446  0.4315  0.0652  0.0225
 6727TIP3    H144376   4.185   3.123   0.397  0.0138  0.3328 -0.7067
 6727TIP3    H244377   4.124   3.171   0.527  1.0277  0.0262 -0.1103
 6728TIP3   OH244378   3.858   6.195   2.906 -0.3247 -0.4817  0.2226
 6728TIP3    H144379   3.796   6.123   2.899  0.1004 -1.0397  1.7822
 6728TIP3    H244380   3.803   6.274   2.908 -0.8042 -0.7586 -1.1368
 6729TIP3   OH244381   6.849   0.166   0.758  0.1957 -0.0669 -0.1397
 6729TIP3    H144382   6.785   0.103   0.726 -0.1929  0.3585 -0.2066
 6729TIP3    H244383   6.887   0.205   0.679  1.8715 -1.5996 -0.1726
 6730TIP3   OH244384   3.838   5.720   1.109 -0.2412 -0.0397  0.0352
 6730TIP3    H144385   3.809   5.645   1.162  2.4704 -0.8374  0.5349
 6730TIP3    H244386   3.807   5.797   1.158 -0.0648 -0.8041  1.4064
 6731TIP3   OH244387   4.253   6.763   1.688  0.0128 -0.7919  0.4665
 6731TIP3    H144388   4.184   6.814   1.647 -0.5578 -1.4612  0.5694
 6731TIP3    H244389   4.233   6.672   1.664  0.3773 -1.0721  1.1863
 6732TIP3   OH244390   2.240   2.253   1.421 -0.7361  0.2066  0.2026
 6732TIP3    H144391   2.172   2.244   1.354 -1.0243 -2.5133  0.7309
 6732TIP3    H244392   2.301   2.181   1.403  0.3812  0.7617  1.5618
 6733TIP3   OH244393   2.204   3.358   2.376 -0.3477  0.0710  0.3507
 6733TIP3    H144394   2.182   3.397   2.292 -1.8641 -1.0379  0.1812
 6733TIP3    H244395   2.167   3.269   2.372  1.3765 -0.7475  1.4029
 6734TIP3   OH244396   2.461   4.750   1.286 -0.2484  0.2743  0.3211
 6734TIP3    H144397   2.501   4.716   1.366  0.0428  1.7926  0.8447
 6734TIP3    H244398   2.393   4.686   1.264 -0.0450 -0.3842  1.5411
 6735TIP3   OH244399   6.097   1.685   0.810 -0.1177  0.0034  0.3053
 6735TIP3    H144400   6.029   1.621   0.829 -1.4158  1.0748 -0.5620
 6735TIP3    H244401   6.051   1.759   0.771  1.3590  1.3896  1.0481
 6736TIP3   OH244402   5.598   5.022   2.391  0.1740 -0.0524 -0.3738
 6736TIP3    H144403   5.595   4.985   2.302 -0.9039  2.0046 -1.2607
 6736TIP3    H244404   5.671   5.084   2.388 -0.3027  0.5245 -0.0323
 6737TIP3   OH244405   1.626   2.442   2.097 -0.6199 -0.9782 -0.1393
 6737TIP3    H144406   1.593   2.356   2.124  0.6072 -1.2242  0.6450
 6737TIP3    H244407   1.707   2.422   2.049 -1.9953 -0.4579 -2.8588
 6738TIP3   OH244408   1.070   7.184   0.602  0.2280  0.4035  0.4900
 6738TIP3    H144409   1.091   7.091   0.604  0.1719  0.3701 -0.2793
 6738TIP3    H244410   1.008   7.197   0.674 -0.7281 -0.3916 -0.1656
 6739TIP3   OH244411   7.492   5.412   1.961  0.2906 -0.4644  0.1435
 6739TIP3    H144412   7.459   5.428   1.872 -0.3357 -0.6256  0.3421
 6739TIP3    H244413   7.570   5.359   1.948  0.5959  0.0818 -0.3471
 6740TIP3   OH244414   0.141   2.106   2.017  0.0043  0.0272 -0.3337
 6740TIP3    H144415   0.210   2.169   2.037  0.0477  0.0638 -0.5927
 6740TIP3    H244416   0.060   2.155   2.024 -0.0207 -0.0824  0.2474
 6741TIP3   OH244417   4.136   4.815   1.377  0.4492  0.6201  0.3795
 6741TIP3    H144418   4.078   4.783   1.308 -0.9673 -1.2219  2.3211
 6741TIP3    H244419   4.223   4.782   1.352  0.1034  0.6125 -0.8800
 6742TIP3   OH244420   0.581   3.103   2.109 -0.0760  0.4553  0.8649
 6742TIP3    H144421   0.526   3.033   2.073 -0.4789  1.0413  0.3002
 6742TIP3    H244422   0.541   3.184   2.076  1.1463  0.8973  0.4009
 6743TIP3   OH244423   7.645   2.996   1.468  0.2747 -0.0909  0.4399
 6743TIP3    H144424   7.578   2.929   1.472  0.7825 -0.5879  0.7563
 6743TIP3    H244425   7.711   2.960   1.409 -0.2559  0.8805 -0.7949
 6744TIP3   OH244426   4.152   0.875   1.493  0.0999  0.8481  0.1426
 6744TIP3    H144427   4.154   0.781   1.474  0.5216  1.1144 -1.2864
 6744TIP3    H244428   4.232   0.891   1.543 -0.8669  0.1741  2.0161
 6745TIP3   OH244429   7.584   6.392   0.707 -0.0694  0.5546 -0.0857
 6745TIP3    H144430   7.555   6.391   0.799 -0.6262  0.9028 -0.2559
 6745TIP3    H244431   7.545   6.471   0.670 -1.0813 -0.3421 -1.0128
 6746TIP3   OH244432   0.053   5.740   1.813  0.5003  0.0801 -0.2804
 6746TIP3    H144433   0.071   5.790   1.733 -0.5888  0.7608 -0.1159
 6746TIP3    H244434   0.135   5.744   1.862  0.2502  2.2950  0.0291
 6747TIP3   OH244435   1.639   5.339   1.056 -0.2844  0.0429 -1.1262
 6747TIP3    H144436   1.664   5.365   0.968 -1.3760  0.2037 -1.4145
 6747TIP3    H244437   1.706   5.278   1.084 -0.2584 -0.5037 -2.3213
 6748TIP3   OH244438   2.710   2.627   1.989 -0.6642 -0.3703 -0.6140
 6748TIP3    H144439   2.648   2.699   1.974 -0.6921 -0.6114 -1.8026
 6748TIP3    H244440   2.698   2.604   2.081 -1.9679 -0.0494 -0.6749
 6749TIP3   OH244441   2.819   7.337   0.796  0.1190 -0.2246  0.0861
 6749TIP3    H144442   2.763   7.404   0.835  0.6555 -0.5245  1.4064
 6749TIP3    H244443   2.758   7.271   0.763 -0.3465  0.0922  0.3073
 6750TIP3   OH244444   0.883   2.370   0.979 -0.5983  0.4899 -0.4618
 6750TIP3    H144445   0.876   2.274   0.975 -2.5847  0.5754  0.0365
 6750TIP3    H244446   0.944   2.392   0.908 -0.0207 -1.1427 -0.5147
 6751TIP3   OH244447   1.461   7.583   2.351  0.0256 -0.4038  0.8086
 6751TIP3    H144448   1.543   7.597   2.303  0.0643 -1.8417  0.4171
 6751TIP3    H244449   1.402   7.542   2.287 -0.5085 -0.7269  1.4961
 6752TIP3   OH244450   4.571   4.854   2.464  0.2052 -0.7806 -0.1582
 6752TIP3    H144451   4.528   4.796   2.527 -1.0269  1.2081  0.9058
 6752TIP3    H244452   4.568   4.941   2.504  1.4919  0.1570 -1.9464
 6753TIP3   OH244453   2.627   2.558   2.751  0.0302 -0.2845  0.1982
 6753TIP3    H144454   2.585   2.549   2.665 -0.6629  2.1969  0.2115
 6753TIP3    H244455   2.694   2.625   2.738 -0.6995  0.7911  1.7970
 6754TIP3   OH244456   0.206   3.308   1.436  0.4041 -0.1530 -0.2323
 6754TIP3    H144457   0.213   3.366   1.511  1.6077  0.6866 -0.9514
 6754TIP3    H244458   0.175   3.364   1.365  1.6737 -0.3264 -0.9606
 6755TIP3   OH244459   0.421   2.178   2.106  0.2146 -0.0588  0.3482
 6755TIP3    H144460   0.371   2.173   2.187  0.8926  0.8464  0.8393
 6755TIP3    H244461   0.462   2.264   2.108 -1.5449  0.9627 -2.0283
 6756TIP3   OH244462   7.552   5.034   1.338  0.4179  0.5261  0.3544
 6756TIP3    H144463   7.555   5.087   1.258  1.5614 -1.0078 -0.6482
 6756TIP3    H244464   7.639   5.042   1.376  1.2423 -2.0238 -0.7914
 6757TIP3   OH244465   0.474   3.217   3.235 -0.2958  0.2233  0.1922
 6757TIP3    H144466   0.561   3.197   3.270  0.2431  0.9414 -0.7146
 6757TIP3    H244467   0.414   3.169   3.293  0.7991 -2.2129 -0.5496
 6758TIP3   OH244468   1.468   1.087   2.418  0.1580 -0.0123 -0.1842
 6758TIP3    H144469   1.544   1.145   2.422  0.7112 -0.6721 -0.7230
 6758TIP3    H244470   1.446   1.070   2.510  1.8722 -1.3305  0.0354
 6759TIP3   OH244471   6.913   4.408   1.404  0.0696 -0.2132  0.0663
 6759TIP3    H144472   6.920   4.320   1.441  2.5488  0.6919  2.1470
 6759TIP3    H244473   6.967   4.405   1.325 -0.7287 -0.8102 -0.4636
 6760TIP3   OH244474   4.745   4.438   0.854 -0.0747  0.1189  0.1890
 6760TIP3    H144475   4.755   4.353   0.810  0.6153 -0.0020  0.5702
 6760TIP3    H244476   4.785   4.425   0.940  2.4129  1.5758 -0.6626
 6761TIP3   OH244477   2.369   7.171   2.344 -0.1237  0.6723  0.3624
 6761TIP3    H144478   2.291   7.189   2.291 -0.2501 -1.8204 -0.4130
 6761TIP3    H244479   2.349   7.210   2.429 -1.1184  2.2990 -0.5690
 6762TIP3   OH244480   1.738   1.132   3.242  0.0697 -0.4543  0.2080
 6762TIP3    H144481   1.802   1.147   3.312  0.6079  0.3927 -0.4512
 6762TIP3    H244482   1.686   1.212   3.239  0.7696 -0.0275 -1.0981
 6763TIP3   OH244483   3.538   0.934   0.519  0.2915  0.4175 -0.0561
 6763TIP3    H144484   3.548   0.969   0.431 -2.0276 -1.0253 -1.0043
 6763TIP3    H244485   3.496   1.004   0.569 -2.2477 -0.0938 -1.3159
 6764TIP3   OH244486   1.922   0.587   0.839 -0.7050 -0.4127  0.8985
 6764TIP3    H144487   1.895   0.495   0.835  0.9603 -0.8916  0.2244
 6764TIP3    H244488   1.997   0.587   0.899  1.3434 -0.0507 -1.5318
 6765TIP3   OH244489   5.403   1.771   2.050 -0.0405 -0.4590 -0.5385
 6765TIP3    H144490   5.491   1.777   2.089 -0.2009  1.0892 -0.3474
 6765TIP3    H244491   5.388   1.857   2.012 -2.5106  0.2424  1.6885
 6766TIP3   OH244492   6.332   7.582   2.207 -0.3309 -0.9537 -0.7991
 6766TIP3    H144493   6.412   7.609   2.163 -1.0690  0.8562 -1.1046
 6766TIP3    H244494   6.265   7.642   2.175 -1.5695 -1.6452  0.3640
 6767TIP3   OH244495   7.239   3.226   2.127 -0.4982  0.0261 -0.1307
 6767TIP3    H144496   7.300   3.155   2.147  0.3320  0.3697 -1.3352
 6767TIP3    H244497   7.221   3.266   2.213  0.4820 -0.4721  0.3311
 6768TIP3   OH244498   3.893   5.811   1.663  0.0315 -0.3828  0.7616
 6768TIP3    H144499   3.921   5.743   1.601  0.6193  0.4697  0.0729
 6768TIP3    H244500   3.967   5.872   1.666 -0.8943  0.7646  0.5892
 6769TIP3   OH244501   2.126   7.589   3.503  0.3077 -0.7305  0.0074
 6769TIP3    H144502   2.056   7.601   3.567  0.0867 -0.3275 -0.3030
 6769TIP3    H244503   2.124   7.496   3.481 -0.3552 -0.6514 -0.2587
 6770TIP3   OH244504   2.828   0.128   1.143  0.2376  0.1243 -0.2657
 6770TIP3    H144505   2.836   0.071   1.220 -0.0690  1.7072  1.0035
 6770TIP3    H244506   2.852   0.073   1.069  1.4685 -1.2042  1.0683
 6771TIP3   OH244507   5.211   6.532   1.222 -0.0256 -0.0534 -0.2544
 6771TIP3    H144508   5.272   6.605   1.212  0.1578 -0.1762 -0.0291
 6771TIP3    H244509   5.251   6.475   1.288 -1.6542  1.1860  1.9227
 6772TIP3   OH244510   4.168   5.246   0.791 -0.2119  0.1774  0.3370
 6772TIP3    H144511   4.091   5.252   0.735 -1.0477  1.1937  1.5439
 6772TIP3    H244512   4.160   5.321   0.851  1.2729 -0.1816  1.0207
 6773TIP3   OH244513   5.017   4.854   1.901  0.1464 -0.3427 -0.0048
 6773TIP3    H144514   5.002   4.763   1.925  0.0031 -0.2736  0.1660
 6773TIP3    H244515   5.096   4.852   1.847 -0.2218 -0.6503 -0.5386
 6774TIP3   OH244516   5.829   4.215   1.186 -0.1426 -0.2089 -0.2991
 6774TIP3    H144517   5.878   4.137   1.158 -0.0839  0.2951 -1.6988
 6774TIP3    H244518   5.868   4.286   1.135 -1.1964  0.4900 -0.1462
 6775TIP3   OH244519   2.021   6.314   2.221  0.3793  0.0187 -0.1032
 6775TIP3    H144520   2.062   6.252   2.160  1.1294  0.7546 -0.3661
 6775TIP3    H244521   2.091   6.340   2.281 -0.1466 -0.0586  0.5596
 6776TIP3   OH244522   2.036   2.113   1.754  0.0043 -0.0383 -0.5130
 6776TIP3    H144523   2.027   2.077   1.842  1.2404 -1.6040 -0.9695
 6776TIP3    H244524   2.095   2.052   1.710  0.6204  1.5327 -1.9647
 6777TIP3   OH244525   5.308   2.598   0.712 -0.6001 -0.2878  0.1605
 6777TIP3    H144526   5.257   2.633   0.785 -1.1338 -1.0272  0.1525
 6777TIP3    H244527   5.399   2.611   0.737 -0.5930 -3.7170  2.6401
 6778TIP3   OH244528   0.278   7.094   2.278 -0.4452  0.1846 -0.3999
 6778TIP3    H144529   0.193   7.124   2.310 -1.0570 -1.0401 -0.8065
 6778TIP3    H244530   0.263   7.074   2.186 -0.1106 -1.3771 -0.1504
 6779TIP3   OH244531   2.887   2.898   1.384  0.3425 -0.3460 -0.3599
 6779TIP3    H144532   2.972   2.872   1.347  1.0212  2.6370 -1.1422
 6779TIP3    H244533   2.823   2.862   1.322  1.1270 -1.0422 -0.7965
 6780TIP3   OH244534   7.663   5.231   2.263 -0.1802 -0.0817  0.5824
 6780TIP3    H144535   7.690   5.322   2.246 -1.2259  0.1665  0.1831
 6780TIP3    H244536   7.676   5.219   2.357  2.8954 -0.5194  0.2100
 6781TIP3   OH244537   2.455   3.432   2.894  0.5530  0.1162 -0.0303
 6781TIP3    H144538   2.387   3.431   2.962 -0.2807 -0.2830 -0.8551
 6781TIP3    H244539   2.413   3.395   2.817  1.3501  0.9591 -0.9028
 6782TIP3   OH244540   2.822   1.492   1.734 -0.2494  0.3066 -0.4178
 6782TIP3    H144541   2.830   1.574   1.684  1.2669  0.1715 -0.4251
 6782TIP3    H244542   2.834   1.519   1.825 -0.1352  0.1462 -0.3862
 6783TIP3   OH244543   0.794   2.943   2.569  0.6134 -0.4149  0.4515
 6783TIP3    H144544   0.770   2.850   2.574  0.4210 -0.2992  4.2112
 6783TIP3    H244545   0.719   2.984   2.525  0.4799 -1.9234 -0.8295
 6784TIP3   OH244546   2.091   6.541   0.643  0.5058 -0.4247 -0.0490
 6784TIP3    H144547   2.048   6.507   0.564  2.5800  0.6285 -1.7367
 6784TIP3    H244548   2.034   6.611   0.673 -0.2110 -0.6918 -0.7498
 6785TIP3   OH244549   4.566   3.013   2.269 -0.8262  0.1895  0.3042
 6785TIP3    H144550   4.577   2.953   2.195 -0.3910 -1.9029  1.9755
 6785TIP3    H244551   4.656   3.034   2.296 -0.7640 -2.7435  2.9614
 6786TIP3   OH244552   5.575   2.750   1.201  0.1110 -0.0695  0.8879
 6786TIP3    H144553   5.540   2.838   1.186  0.4102 -0.3383 -1.6976
 6786TIP3    H244554   5.507   2.707   1.253 -1.2999  0.8635 -0.1067
 6787TIP3   OH244555   3.483   3.406   1.079 -0.6591 -0.3329 -0.0475
 6787TIP3    H144556   3.566   3.435   1.040  0.0582 -1.5288  0.5431
 6787TIP3    H244557   3.425   3.395   1.004 -0.3866  0.8006 -0.4448
 6788TIP3   OH244558   1.797   3.818   2.432  0.3132 -0.1576  0.4861
 6788TIP3    H144559   1.887   3.849   2.441 -0.0741  1.0877  0.1947
 6788TIP3    H244560   1.803   3.745   2.370  0.9366  0.8244 -0.6348
 6789TIP3   OH244561   3.691   5.885   0.885  0.1307 -0.2879  0.1851
 6789TIP3    H144562   3.598   5.895   0.865  0.3821 -2.2028 -2.3935
 6789TIP3    H244563   3.694   5.819   0.954 -0.3809 -1.3898 -0.8291
 6790TIP3   OH244564   1.248   3.359   3.141 -0.0231  0.0598 -0.1742
 6790TIP3    H144565   1.318   3.314   3.189  0.0399  0.5926  0.2400
 6790TIP3    H244566   1.295   3.422   3.086 -0.2036  0.9717  0.6829
 6791TIP3   OH244567   6.796   6.933   2.676  0.3390 -0.2007 -0.0919
 6791TIP3    H144568   6.714   6.910   2.633 -0.3818  0.0137  1.1391
 6791TIP3    H244569   6.774   6.941   2.769  1.8176 -0.4528  0.3089
 6792TIP3   OH244570   0.803   6.482   0.736  0.9797  0.3678 -0.0629
 6792TIP3    H144571   0.876   6.437   0.777  0.2563  0.4361  1.3706
 6792TIP3    H244572   0.726   6.429   0.758  0.4590  0.8947 -0.5764
 6793TIP3   OH244573   0.477   5.687   2.809  1.0223  0.2543 -0.2270
 6793TIP3    H144574   0.406   5.747   2.832 -0.1900 -1.4377  0.6417
 6793TIP3    H244575   0.555   5.741   2.811 -0.0950  1.9369 -0.0998
 6794TIP3   OH244576   1.913   7.450   1.451 -0.1993  0.7536  0.0965
 6794TIP3    H144577   1.918   7.362   1.488  1.6621 -0.1526 -2.0108
 6794TIP3    H244578   1.826   7.456   1.412  0.4873 -1.2564 -1.9818
 6795TIP3   OH244579   0.995   3.052   1.867  0.0453 -0.1245 -0.1519
 6795TIP3    H144580   0.967   2.965   1.838  1.8810 -0.5356 -0.8979
 6795TIP3    H244581   1.080   3.036   1.908  0.7384  1.3751 -0.9151
 6796TIP3   OH244582   4.183   3.465   0.517 -0.4546  0.1130  0.5152
 6796TIP3    H144583   4.169   3.380   0.476 -0.2857 -0.1249  0.9421
 6796TIP3    H244584   4.265   3.455   0.565 -1.7424 -0.3388  2.7603
 6797TIP3   OH244585   2.314   6.629   3.717  0.3783  0.3496 -0.0413
 6797TIP3    H144586   2.295   6.553   3.662  0.7515  1.0121 -1.1236
 6797TIP3    H244587   2.229   6.673   3.726  0.0044 -0.5879  1.2364
 6798TIP3   OH244588   3.708   5.784   1.864 -0.8019 -0.7421 -0.0038
 6798TIP3    H144589   3.789   5.778   1.814 -0.5432 -1.3590  0.4729
 6798TIP3    H244590   3.663   5.701   1.847 -0.5645 -1.0955  1.0035
 6799TIP3   OH244591   1.666   4.047   0.456  0.0568  0.1308  0.1760
 6799TIP3    H144592   1.605   4.115   0.487 -1.0117  0.2578 -2.0289
 6799TIP3    H244593   1.752   4.082   0.478 -0.5389  1.2574  0.8900
 6800TIP3   OH244594   2.474   2.864   3.541 -0.1546 -0.3191 -0.2947
 6800TIP3    H144595   2.487   2.933   3.607 -0.0805  1.6893 -2.2922
 6800TIP3    H244596   2.562   2.832   3.523 -0.1630 -0.8004  0.4514
 6801TIP3   OH244597   0.480   0.450   2.161 -0.2510 -0.0423 -0.4733
 6801TIP3    H144598   0.532   0.394   2.218  0.9240  0.1100 -1.3482
 6801TIP3    H244599   0.409   0.482   2.216  0.2568 -0.7227  0.6021
 6802TIP3   OH244600   1.928   7.260   0.517 -0.3576  0.2100 -0.3020
 6802TIP3    H144601   1.920   7.313   0.438 -2.4786  2.2831  1.1528
 6802TIP3    H244602   1.968   7.320   0.581  0.2757 -1.0565  0.5360
 6803TIP3   OH244603   5.499   0.238   1.979  0.2651  0.0697  0.1491
 6803TIP3    H144604   5.419   0.289   1.982  0.2922  0.1006  0.3600
 6803TIP3    H244605   5.532   0.239   2.069  0.3603 -0.1653  0.1181
 6804TIP3   OH244606   2.697   5.818   1.449  0.5921 -0.5112 -0.1065
 6804TIP3    H144607   2.673   5.863   1.530  0.1105  0.3809 -0.7210
 6804TIP3    H244608   2.684   5.884   1.381 -2.1294 -2.1060 -1.3094
 6805TIP3   OH244609   7.531   3.937   0.624  0.2297  0.4727 -0.1787
 6805TIP3    H144610   7.519   4.032   0.619  3.6790  0.9922 -3.0360
 6805TIP3    H244611   7.459   3.901   0.572 -0.3830  1.6070 -0.1444
 6806TIP3   OH244612   3.970   4.704   3.280 -0.1563  0.2973 -0.5570
 6806TIP3    H144613   3.958   4.629   3.338  0.9957  0.4366 -0.1164
 6806TIP3    H244614   3.884   4.744   3.274 -1.1767 -1.9415 -2.0450
 6807TIP3   OH244615   7.135   3.422   1.986  0.2629  0.2414 -0.0523
 6807TIP3    H144616   7.202   3.490   1.983  0.2333  0.2360 -1.5366
 6807TIP3    H244617   7.160   3.367   2.060  0.6013  1.5315  0.8316
 6808TIP3   OH244618   3.238   1.491   1.519  1.0943  0.6599 -0.5463
 6808TIP3    H144619   3.184   1.557   1.562 -1.1749 -2.0832  1.2030
 6808TIP3    H244620   3.182   1.457   1.448  0.1179 -2.4947  1.5347
 6809TIP3   OH244621   1.584   2.455   1.704 -0.2477  0.1086 -0.6341
 6809TIP3    H144622   1.514   2.511   1.738  0.9563  0.2171  1.8730
 6809TIP3    H244623   1.557   2.367   1.728  0.2148  0.0945 -0.1737
 6810TIP3   OH244624   6.057   0.316   3.018  0.0692 -0.0221 -0.0445
 6810TIP3    H144625   6.023   0.400   3.049  0.2671  0.1562 -0.3148
 6810TIP3    H244626   5.978   0.267   2.993 -0.2333 -0.7404  2.1243
 6811TIP3   OH244627   3.384   2.029   2.917 -0.2382  0.4876 -0.5990
 6811TIP3    H144628   3.338   2.082   2.852  0.0527 -1.0411 -2.1070
 6811TIP3    H244629   3.475   2.057   2.912 -0.6198  2.2210  1.0846
 6812TIP3   OH244630   5.776   7.553   2.038 -0.7559 -0.1465  0.2176
 6812TIP3    H144631   5.847   7.502   2.077  0.1671  0.8297 -0.1274
 6812TIP3    H244632   5.710   7.560   2.107 -0.5069 -1.0399  0.5590
 6813TIP3   OH244633   1.120   6.728   2.630 -0.2575  0.2749 -0.4363
 6813TIP3    H144634   1.205   6.741   2.587 -0.7672  1.9783 -1.0240
 6813TIP3    H244635   1.134   6.756   2.720 -0.2153  0.6370 -0.5548
 6814TIP3   OH244636   5.566   6.376   1.220  0.0304  0.1448 -0.1350
 6814TIP3    H144637   5.595   6.442   1.283  1.4460 -0.2726 -0.3168
 6814TIP3    H244638   5.533   6.304   1.275  0.8906 -0.0555  0.1396
 6815TIP3   OH244639   2.342   5.906   1.009 -0.4446 -0.0883 -0.3999
 6815TIP3    H144640   2.248   5.902   1.026 -0.5024 -3.4810 -0.8133
 6815TIP3    H244641   2.380   5.848   1.075  1.8637  3.6814  1.9229
 6816TIP3   OH244642   2.613   5.192   2.403  0.2369 -0.2696 -0.3086
 6816TIP3    H144643   2.692   5.149   2.371  0.6214 -0.0811  0.3731
 6816TIP3    H244644   2.561   5.209   2.325  1.8777  1.6806 -1.0602
 6817TIP3   OH244645   6.670   4.754   1.011 -0.1218  0.0583 -1.0608
 6817TIP3    H144646   6.588   4.785   0.971 -0.4632  0.2481 -0.2500
 6817TIP3    H244647   6.698   4.828   1.066 -0.6390 -0.8289  0.4640
 6818TIP3   OH244648   4.610   7.083   2.388 -0.2078 -0.0362  0.5372
 6818TIP3    H144649   4.540   7.116   2.443 -1.1124 -2.9564  1.2948
 6818TIP3    H244650   4.568   7.062   2.305 -0.0674 -1.0162  0.7077
 6819TIP3   OH244651   4.084   2.591   1.681  0.2589  0.1470 -0.3627
 6819TIP3    H144652   4.089   2.556   1.592 -1.3539  0.7423 -0.7279
 6819TIP3    H244653   4.040   2.523   1.732 -0.2109  0.4377 -0.3801
 6820TIP3   OH244654   3.070   0.866   0.894 -0.2042  0.4660  0.2645
 6820TIP3    H144655   3.148   0.905   0.856  0.6108 -1.3514 -0.0323
 6820TIP3    H244656   3.099   0.830   0.978 -0.5299 -0.8019 -0.1448
 6821TIP3   OH244657   0.229   6.451   3.212  0.5620 -0.2900 -0.1988
 6821TIP3    H144658   0.222   6.519   3.279 -0.2756  1.1206 -1.6752
 6821TIP3    H244659   0.140   6.419   3.201  1.1363 -2.8088  1.5655
 6822TIP3   OH244660   5.576   0.084   2.912 -0.2768  0.0323 -0.0966
 6822TIP3    H144661   5.581   0.132   2.994 -0.4592  0.1391 -0.1481
 6822TIP3    H244662   5.610  -0.003   2.933 -1.8566 -0.4875  0.5025
 6823TIP3   OH244663   1.032   5.748   2.496  0.3922  0.3409 -0.1763
 6823TIP3    H144664   0.937   5.743   2.506  0.5067  0.7193  1.3106
 6823TIP3    H244665   1.049   5.839   2.473  0.4894  0.6653  1.0956
 6824TIP3   OH244666   3.868   5.634   8.601  0.1422 -1.1608 -0.9296
 6824TIP3    H144667   3.897   5.670   8.517 -0.6777 -3.4819 -2.3235
 6824TIP3    H244668   3.901   5.545   8.602  1.2283 -0.8269  1.8852
 6825TIP3   OH244669   0.853   5.235   2.189 -0.1258  0.7933  0.3964
 6825TIP3    H144670   0.784   5.285   2.145  0.7325  2.4092  0.8081
 6825TIP3    H244671   0.928   5.294   2.190  2.3359 -1.9383 -2.7250
 6826TIP3   OH244672   5.355   6.802   2.062 -0.6118 -0.5151  0.0919
 6826TIP3    H144673   5.381   6.783   1.972  1.4193  2.8595 -0.1991
 6826TIP3    H244674   5.287   6.869   2.054 -0.1982  0.0425  1.0050
 6827TIP3   OH244675   6.823   2.539   1.411 -0.5878 -0.6120  0.0389
 6827TIP3    H144676   6.845   2.447   1.417 -0.2229 -0.4759  0.9183
 6827TIP3    H244677   6.805   2.566   1.501  1.2374  0.6350  0.0737
 6828TIP3   OH244678   4.629   2.113   1.186  0.1725  0.5532 -0.0321
 6828TIP3    H144679   4.599   2.063   1.110  0.3940 -0.3345  0.4617
 6828TIP3    H244680   4.568   2.187   1.192 -0.8592 -0.2827 -0.0762
 6829TIP3   OH244681   3.619   3.291   2.194  0.0458 -0.7934 -0.5403
 6829TIP3    H144682   3.665   3.207   2.191  0.3977 -0.5875 -1.2449
 6829TIP3    H244683   3.543   3.277   2.137 -0.5661 -1.0113  0.3130
 6830TIP3   OH244684   5.342   3.164   2.226 -0.1873  0.0964 -0.5852
 6830TIP3    H144685   5.355   3.071   2.204 -2.3452 -0.2542 -0.6544
 6830TIP3    H244686   5.323   3.164   2.319  3.4666  0.9716  0.3137
 6831TIP3   OH244687   3.137   0.284   2.023 -0.1822  0.0541  0.2076
 6831TIP3    H144688   3.144   0.193   1.995  0.7332  0.6660 -1.7139
 6831TIP3    H244689   3.092   0.329   1.951  2.0147  1.6520 -0.2783
 6832TIP3   OH244690   6.680   1.085   0.419  0.1453 -0.6520  0.0899
 6832TIP3    H144691   6.756   1.071   0.363 -0.8236 -1.7704 -1.0043
 6832TIP3    H244692   6.665   0.999   0.460  0.0718 -0.1722  1.0910
 6833TIP3   OH244693   1.431   6.328   1.168 -0.0174  0.2125 -0.4398
 6833TIP3    H144694   1.507   6.284   1.206 -0.0324  0.5004 -0.0735
 6833TIP3    H244695   1.414   6.403   1.226  0.0165  0.7129 -1.0550
 6834TIP3   OH244696   0.566   5.704   3.615 -0.5288  0.1216 -0.0954
 6834TIP3    H144697   0.561   5.751   3.531  1.4694 -0.4171 -0.5728
 6834TIP3    H244698   0.608   5.765   3.674 -1.4891  0.3189  0.3995
 6835TIP3   OH244699   1.902   6.121   2.727  0.2423  0.3577 -0.2164
 6835TIP3    H144700   1.922   6.168   2.646  0.1166  2.1469  0.7394
 6835TIP3    H244701   1.825   6.166   2.761  0.1038 -0.5849  0.7461
 6836TIP3   OH244702   5.016   1.937   0.812 -0.1485 -0.3997  0.0147
 6836TIP3    H144703   4.931   1.899   0.834 -0.1840 -0.7067 -0.6297
 6836TIP3    H244704   4.995   2.012   0.757 -0.0655  0.4137  1.0577
 6837TIP3   OH244705   1.774   3.877   2.014  0.2740  0.6416 -0.0871
 6837TIP3    H144706   1.789   3.846   1.925 -0.8229  0.3184 -0.1665
 6837TIP3    H244707   1.719   3.809   2.055  0.8084  0.7503  0.8591
 6838TIP3   OH244708   6.576   5.950   1.072 -1.0576 -0.4011  0.9104
 6838TIP3    H144709   6.611   5.918   0.988 -0.5101  0.4382  0.8067
 6838TIP3    H244710   6.544   5.871   1.116 -0.8301 -0.9289  0.1532
 6839TIP3   OH244711   7.103   3.973   2.723  0.2062  0.1349 -0.0523
 6839TIP3    H144712   7.146   3.923   2.654 -0.4801  0.4334 -0.7065
 6839TIP3    H244713   7.012   3.982   2.693  0.2964  1.7094  0.0811
 6840TIP3   OH244714   4.226   3.834   1.616 -0.1790 -0.2594 -0.3645
 6840TIP3    H144715   4.198   3.872   1.699  1.4554 -0.8605  0.5018
 6840TIP3    H244716   4.144   3.815   1.570 -1.1289  0.0385  1.1227
 6841TIP3   OH244717   5.984   3.996   1.736 -0.1217  0.4365 -0.2135
 6841TIP3    H144718   6.032   4.077   1.752 -0.4893  0.8553 -1.1843
 6841TIP3    H244719   5.962   3.964   1.824  2.5824 -0.2090  0.3280
 6842TIP3   OH244720   2.179   4.521   1.828 -0.0147  0.5187  0.1370
 6842TIP3    H144721   2.250   4.459   1.844 -1.9135 -1.1736  2.7113
 6842TIP3    H244722   2.121   4.476   1.767  1.4035  2.2683 -2.7197
 6843TIP3   OH244723   1.020   1.719   3.608 -0.2199  0.3157 -0.4310
 6843TIP3    H144724   0.977   1.791   3.563  3.4123  2.6586 -0.5985
 6843TIP3    H244725   1.079   1.681   3.543  0.3074 -0.6374  0.5648
 6844TIP3   OH244726   3.459   4.963   3.287 -0.3614 -0.2331 -0.0381
 6844TIP3    H144727   3.465   5.027   3.215  0.3457  2.4436  2.2287
 6844TIP3    H244728   3.365   4.949   3.297 -0.5030 -0.0808 -0.9879
 6845TIP3   OH244729   2.661   5.796   2.432  0.7395  0.2613 -0.0403
 6845TIP3    H144730   2.649   5.800   2.337 -0.4793  1.8351  0.1475
 6845TIP3    H244731   2.626   5.879   2.464 -0.7826 -1.0958  2.0005
 6846TIP3   OH244732   3.087   5.776   3.449 -0.1288 -0.1558  0.0201
 6846TIP3    H144733   3.145   5.851   3.461  0.6891  0.0067 -3.7767
 6846TIP3    H244734   3.024   5.782   3.521  0.7273  3.3571  0.6307
 6847TIP3   OH244735   7.516   6.525   2.339  0.0012 -0.1054 -0.1810
 6847TIP3    H144736   7.439   6.563   2.299  1.2055  1.7161 -0.9091
 6847TIP3    H244737   7.512   6.553   2.431  0.7179  1.6516 -0.6396
 6848TIP3   OH244738   2.234   6.313   2.676 -0.0853  0.0287  0.4698
 6848TIP3    H144739   2.154   6.291   2.628 -0.9341  1.0524  1.3827
 6848TIP3    H244740   2.248   6.239   2.734  0.5922 -0.9302 -0.8587
 6849TIP3   OH244741   6.525   0.505   1.305  0.5135 -0.2658  0.4804
 6849TIP3    H144742   6.495   0.414   1.300  0.5708 -0.3210  1.0769
 6849TIP3    H244743   6.445   0.557   1.299  0.6378 -0.2464 -2.2775
 6850TIP3   OH244744   5.982   3.152   0.963 -0.0248  0.4924  0.3523
 6850TIP3    H144745   5.909   3.146   0.900  0.2788  1.4263 -0.0974
 6850TIP3    H244746   6.055   3.185   0.912  0.6463 -0.1499  0.8779
 6851TIP3   OH244747   0.207   5.429   0.991 -0.3212 -0.4237 -0.5822
 6851TIP3    H144748   0.159   5.484   1.053 -1.3180  0.9519 -2.4696
 6851TIP3    H244749   0.147   5.358   0.971  1.2168 -2.7964  2.3760
 6852TIP3   OH244750   3.405   2.126   2.055 -0.1235 -0.0629  0.4670
 6852TIP3    H144751   3.477   2.186   2.077  2.0547 -2.1918 -0.3543
 6852TIP3    H244752   3.403   2.127   1.959  0.6040 -1.9337  0.3946
 6853TIP3   OH244753   3.072   5.847   1.953 -0.0418 -0.1376  0.4687
 6853TIP3    H144754   3.047   5.899   1.877 -1.4157  0.7712  1.5047
 6853TIP3    H244755   3.122   5.906   2.008 -0.0686 -0.4412  0.8247
 6854TIP3   OH244756   1.903   7.605   3.697 -0.2558  0.3382 -0.3712
 6854TIP3    H144757   1.927   7.685   3.744 -0.0985 -0.4703  0.9884
 6854TIP3    H244758   1.863   7.549   3.764  0.0074 -0.8765 -1.1950
 6855TIP3   OH244759   0.960   4.343   1.708 -0.2911 -0.2554  0.2851
 6855TIP3    H144760   0.929   4.360   1.619 -1.1735 -0.6426  0.4997
 6855TIP3    H244761   0.950   4.248   1.719 -2.7826  0.0660  1.6704
 6856TIP3   OH244762   4.447   2.547   0.829 -0.5530  0.4581  0.4070
 6856TIP3    H144763   4.383   2.544   0.757  0.3602 -0.8914 -0.3875
 6856TIP3    H244764   4.497   2.627   0.814 -0.1607  0.0260 -0.6719
 6857TIP3   OH244765   2.431   6.964   2.582 -0.7820 -0.1179 -0.5245
 6857TIP3    H144766   2.494   6.944   2.513  1.0980 -0.5894  1.2366
 6857TIP3    H244767   2.384   6.881   2.597  0.9728 -0.9171  0.8340
 6858TIP3   OH244768   6.641   5.870   2.085  0.0771 -0.4513 -0.5264
 6858TIP3    H144769   6.666   5.962   2.095 -0.3012 -0.4736  0.7651
 6858TIP3    H244770   6.724   5.823   2.081  0.2705 -0.1367 -0.2804
 6859TIP3   OH244771   0.625   6.314   1.624  0.1599 -0.1457  0.9101
 6859TIP3    H144772   0.650   6.226   1.596  0.2357 -0.9417  3.2510
 6859TIP3    H244773   0.607   6.305   1.718 -0.4933  2.2054  1.0738
 6860TIP3   OH244774   1.254   7.140   2.125  0.2644 -0.3999 -0.3520
 6860TIP3    H144775   1.171   7.156   2.081 -0.1696  1.1863  0.9326
 6860TIP3    H244776   1.309   7.097   2.059 -1.3905 -1.0343 -1.3711
 6861TIP3   OH244777   3.507   6.188   2.739  0.3808  0.1400 -0.2257
 6861TIP3    H144778   3.498   6.264   2.682  1.0137 -0.0229 -0.5462
 6861TIP3    H244779   3.483   6.220   2.826  2.5348  1.2391  0.0359
 6862TIP3   OH244780   5.954   1.673   1.755  0.2148 -0.1695 -0.7693
 6862TIP3    H144781   5.890   1.717   1.812  0.0921 -1.2727 -0.0139
 6862TIP3    H244782   6.017   1.741   1.733 -0.5721  0.6526 -0.5463
 6863TIP3   OH244783   1.143   5.386   0.906  0.0962 -0.1355  0.7640
 6863TIP3    H144784   1.224   5.334   0.907 -0.0731 -0.4014  0.5711
 6863TIP3    H244785   1.117   5.390   0.998  0.5624  0.3217  0.8851
 6864TIP3   OH244786   7.459   4.907   0.755 -0.2995 -0.6401  0.4967
 6864TIP3    H144787   7.478   4.960   0.833 -0.0975  1.3552 -0.8216
 6864TIP3    H244788   7.534   4.848   0.748  1.1494  1.1078  0.2978
 6865TIP3   OH244789   1.589   0.204   0.998 -0.3453  0.4227 -0.0791
 6865TIP3    H144790   1.522   0.248   0.946 -0.2952  2.1709  1.2348
 6865TIP3    H244791   1.638   0.276   1.039  0.1027 -0.8527  1.7259
 6866TIP3   OH244792   7.596   2.919   2.339  1.1090 -0.2499 -0.4836
 6866TIP3    H144793   7.648   2.932   2.260  2.4068  0.1702  0.3910
 6866TIP3    H244794   7.639   2.847   2.385 -0.2597 -1.2032 -0.6404
 6867TIP3   OH244795   6.529   2.273   0.855 -0.4634 -0.0375 -0.2139
 6867TIP3    H144796   6.509   2.229   0.938 -1.7319  2.0273  0.6277
 6867TIP3    H244797   6.447   2.314   0.829  0.0842 -0.1058 -2.1866
 6868TIP3   OH244798   2.450   1.681   2.790 -0.2070 -0.2151 -0.1969
 6868TIP3    H144799   2.382   1.738   2.825  0.2120  0.4811 -0.4961
 6868TIP3    H244800   2.425   1.593   2.819 -2.0481 -0.1926 -1.5436
 6869TIP3   OH244801   3.074   7.358   3.560 -0.4876 -0.3233  0.2095
 6869TIP3    H144802   3.168   7.371   3.548 -0.1815 -1.0332  1.6406
 6869TIP3    H244803   3.045   7.435   3.609 -0.2007 -1.1173  1.6916
 6870TIP3   OH244804   0.425   0.274   2.382 -0.2445  0.2830  0.0868
 6870TIP3    H144805   0.356   0.209   2.373 -0.4115  0.5275 -0.4352
 6870TIP3    H244806   0.457   0.264   2.472  0.7474 -1.5321 -0.4178
 6871TIP3   OH244807   6.854   4.681   1.410  0.0090 -0.1000 -0.0688
 6871TIP3    H144808   6.932   4.735   1.423  1.1174 -0.7644 -2.9841
 6871TIP3    H244809   6.888   4.592   1.400 -1.2906 -0.6370  0.1594
 6872TIP3   OH244810   6.133   1.667   2.528 -0.3393 -0.0998 -0.2117
 6872TIP3    H144811   6.193   1.657   2.454 -0.4549  1.5562 -0.5614
 6872TIP3    H244812   6.148   1.756   2.560  0.3576 -1.0382  2.3797
 6873TIP3   OH244813   4.362   0.914   1.641  0.3416  0.2481 -0.3572
 6873TIP3    H144814   4.446   0.957   1.657  1.0252 -0.6787 -1.3656
 6873TIP3    H244815   4.308   0.939   1.716  1.0352  2.0243 -0.3909
 6874TIP3   OH244816   2.854   1.222   1.736 -0.3558 -0.3660  0.4424
 6874TIP3    H144817   2.854   1.317   1.732  0.5626 -0.3804 -0.9562
 6874TIP3    H244818   2.766   1.196   1.710 -0.0363  0.1028 -1.2545
 6875TIP3   OH244819   7.602   7.140   1.823 -0.8425 -0.5388 -0.2944
 6875TIP3    H144820   7.641   7.140   1.911 -1.7104 -2.5985  0.1557
 6875TIP3    H244821   7.625   7.225   1.787  0.1720  0.0855  1.6524
 6876TIP3   OH244822   4.234   1.201   2.332  0.0875 -0.0267 -0.0185
 6876TIP3    H144823   4.199   1.191   2.244 -0.4875 -0.3580  0.2394
 6876TIP3    H244824   4.164   1.245   2.380  0.7775  1.0362  0.0336
 6877TIP3   OH244825   4.111   6.032   2.628 -0.0640 -0.3510  0.1835
 6877TIP3    H144826   4.097   6.025   2.533 -0.0243  2.1441 -0.0746
 6877TIP3    H244827   4.196   6.074   2.636 -0.2765 -0.1121  1.3330
 6878TIP3   OH244828   7.241   0.133   1.382  0.3217  0.3038  0.1393
 6878TIP3    H144829   7.221   0.049   1.423  0.3362  0.5615  0.6895
 6878TIP3    H244830   7.175   0.142   1.313 -1.6007  1.1762  1.9762
 6879TIP3   OH244831   5.734   4.668   2.155 -0.2421  0.0598  0.2972
 6879TIP3    H144832   5.743   4.739   2.092  1.0735 -0.1823  0.1792
 6879TIP3    H244833   5.687   4.599   2.108 -0.9710  0.6124  0.2118
 6880TIP3   OH244834   0.550   0.338   1.248 -0.0972 -0.1089  0.2060
 6880TIP3    H144835   0.515   0.409   1.302 -1.0586 -1.1050  0.9620
 6880TIP3    H244836   0.583   0.274   1.312 -1.6723 -1.5315 -0.3323
 6881TIP3   OH244837   3.034   3.650   2.504 -0.4709 -0.1208 -0.1379
 6881TIP3    H144838   2.940   3.646   2.490 -0.3597 -0.1146 -0.8985
 6881TIP3    H244839   3.063   3.559   2.499 -0.6328 -0.3064  1.5949
 6882TIP3   OH244840   0.234   3.135   2.872  0.1807  0.5524 -0.2620
 6882TIP3    H144841   0.173   3.185   2.819  1.1499  0.8142 -1.1744
 6882TIP3    H244842   0.214   3.161   2.962 -0.0433  1.7994 -0.6476
 6883TIP3   OH244843   5.678   0.649   1.240  0.0063  0.1492 -0.2268
 6883TIP3    H144844   5.691   0.577   1.178 -1.1811 -0.3976  0.1422
 6883TIP3    H244845   5.662   0.605   1.324 -0.1585  0.8525  0.1099
 6884TIP3   OH244846   1.956   2.528   1.059  0.0296  0.2842 -0.7880
 6884TIP3    H144847   1.892   2.483   1.004 -0.8392  1.9137 -1.2070
 6884TIP3    H244848   1.909   2.606   1.090  1.3101  0.6799  0.2406
 6885TIP3   OH244849   5.380   6.078   1.634 -0.4426  0.4600  0.2675
 6885TIP3    H144850   5.290   6.107   1.625 -0.5828  0.3050  1.1404
 6885TIP3    H244851   5.407   6.107   1.721  1.1594  2.6819 -0.8785
 6886TIP3   OH244852   4.465   5.329   1.084 -0.1451  0.0105 -0.3157
 6886TIP3    H144853   4.443   5.420   1.104  1.4312 -0.0469  2.0404
 6886TIP3    H244854   4.548   5.334   1.036  1.4378 -0.1993  2.2427
 6887TIP3   OH244855   3.624   0.098   2.776 -0.1810 -0.2694  0.1899
 6887TIP3    H144856   3.588   0.185   2.759 -0.1403 -0.3928 -0.5623
 6887TIP3    H244857   3.673   0.108   2.857 -0.8167  0.2166  0.5197
 6888TIP3   OH244858   0.071   0.325   2.370 -0.5741  0.8043 -0.2831
 6888TIP3    H144859   0.076   0.275   2.451  0.1424  0.5911 -0.4520
 6888TIP3    H244860  -0.020   0.356   2.366 -0.9228 -0.1464  0.0199
 6889TIP3   OH244861   3.622   5.669   0.682 -0.3009 -0.1506 -0.0027
 6889TIP3    H144862   3.591   5.751   0.721 -1.4490 -0.7641  0.4343
 6889TIP3    H244863   3.634   5.610   0.757  0.2851 -0.4591 -0.3334
 6890TIP3   OH244864   3.900   7.366   1.403  0.0115 -0.6101 -0.5431
 6890TIP3    H144865   3.974   7.372   1.463  1.4749  0.7225 -2.3917
 6890TIP3    H244866   3.930   7.307   1.333 -0.2119  0.8252 -1.8893
 6891TIP3   OH244867   2.392   1.248   1.797 -0.3202 -0.2441 -0.1194
 6891TIP3    H144868   2.301   1.268   1.818 -0.0039 -0.9236  2.1048
 6891TIP3    H244869   2.429   1.213   1.878  1.4139 -1.8334 -1.4880
 6892TIP3   OH244870   3.481   5.976   3.142  0.1063  0.0257  0.0676
 6892TIP3    H144871   3.435   5.920   3.079  2.0128  1.4605 -2.7891
 6892TIP3    H244872   3.434   6.059   3.138 -1.0756 -0.4358  2.3063
 6893TIP3   OH244873   1.518   4.392   0.687  0.4512 -0.2806 -0.3811
 6893TIP3    H144874   1.565   4.475   0.686 -1.0337  0.6478  1.1278
 6893TIP3    H244875   1.524   4.361   0.777 -0.2273 -1.0827 -0.5917
 6894TIP3   OH244876   2.633   6.180   2.697  0.4921  0.8525 -0.4106
 6894TIP3    H144877   2.706   6.118   2.702 -0.2050 -0.0119 -0.7704
 6894TIP3    H244878   2.637   6.228   2.781  0.5229 -0.2672  0.2440
 6895TIP3   OH244879   3.367   7.162   1.501  0.1404 -0.1296 -0.4188
 6895TIP3    H144880   3.396   7.204   1.582  0.6739 -0.2647 -0.5360
 6895TIP3    H244881   3.425   7.198   1.433 -2.1406  2.2062 -1.2728
 6896TIP3   OH244882   3.335   5.102   0.951  0.1047 -0.1746  0.0069
 6896TIP3    H144883   3.366   5.186   0.914 -3.5944  2.3022  1.9178
 6896TIP3    H244884   3.255   5.083   0.902  0.6818 -2.5331 -0.1415
 6897TIP3   OH244885   1.155   3.626   1.639 -0.1715 -0.2745  0.3535
 6897TIP3    H144886   1.115   3.602   1.555  1.8362 -1.0142 -0.4549
 6897TIP3    H244887   1.126   3.558   1.699 -0.4186 -0.5931 -0.1140
 6898TIP3   OH244888   2.565   1.751   0.464 -0.1311 -0.1358  0.2766
 6898TIP3    H144889   2.660   1.752   0.453  0.5662 -3.2569  3.8598
 6898TIP3    H244890   2.532   1.710   0.384  1.3688  1.5981 -1.3155
 6899TIP3   OH244891   0.313   1.134   2.664  0.3469  0.0356  0.2998
 6899TIP3    H144892   0.307   1.226   2.689  2.6112 -0.3607  2.8348
 6899TIP3    H244893   0.250   1.089   2.720  0.8007 -0.1644  0.6593
 6900TIP3   OH244894   2.938   2.016   2.408  1.0547 -0.0211  0.1812
 6900TIP3    H144895   2.997   1.988   2.478 -0.1956  0.8121  1.6317
 6900TIP3    H244896   2.853   1.980   2.432  0.3019  1.4686 -0.1277
 6901TIP3   OH244897   6.506   1.276   1.826  0.0097 -0.0651  0.3257
 6901TIP3    H144898   6.538   1.188   1.842 -1.0801 -0.7598 -0.9813
 6901TIP3    H244899   6.442   1.265   1.755 -0.9842  1.6131  0.8994
 6902TIP3   OH244900   3.969   7.167   0.829 -0.2435  0.1607  0.1361
 6902TIP3    H144901   3.876   7.185   0.818 -0.6178 -0.1093  2.4223
 6902TIP3    H244902   4.009   7.254   0.832 -0.7201  0.3652  1.1594
 6903TIP3   OH244903   1.945   0.461   3.365  0.6892 -0.4303  0.4388
 6903TIP3    H144904   1.852   0.443   3.372  0.3691  0.5146 -0.9710
 6903TIP3    H244905   1.952   0.556   3.378  1.3606 -0.3908 -0.1195
 6904TIP3   OH244906   3.359   6.031   1.805  0.0695  0.0843  0.1830
 6904TIP3    H144907   3.380   5.982   1.885 -1.0595  0.7410  0.9132
 6904TIP3    H244908   3.444   6.060   1.771  0.6859 -1.4912  0.2861
 6905TIP3   OH244909   5.731   1.070   1.783 -0.1144  0.3115 -0.0710
 6905TIP3    H144910   5.719   1.141   1.846  1.6228 -0.2396  0.9437
 6905TIP3    H244911   5.725   0.990   1.835 -0.6346 -0.2422 -0.9553
 6906TIP3   OH244912   1.200   4.054   0.622 -0.3418 -0.0577  0.3585
 6906TIP3    H144913   1.149   4.126   0.585  0.2471  0.2012  0.0286
 6906TIP3    H244914   1.278   4.050   0.566  0.4256  0.1405  1.3849
 6907TIP3   OH244915   4.825   6.872   2.364  0.0050 -0.5992 -0.1429
 6907TIP3    H144916   4.754   6.850   2.424  1.4728 -2.3790  1.0404
 6907TIP3    H244917   4.900   6.889   2.421  0.7651  0.3570 -1.3908
 6908TIP3   OH244918   6.257   2.994   1.319 -0.0653  0.7170 -0.2361
 6908TIP3    H144919   6.294   3.052   1.253 -0.8659  0.0004 -1.3382
 6908TIP3    H244920   6.319   2.921   1.325  2.0381  2.4877  2.6075
 6909TIP3   OH244921   3.800   4.581   1.697 -0.0633  0.0985 -0.1187
 6909TIP3    H144922   3.874   4.525   1.671 -0.6455 -1.5129  1.4796
 6909TIP3    H244923   3.760   4.608   1.614  0.2888 -1.8596 -0.9869
 6910TIP3   OH244924   3.075   6.655   1.189  0.0744 -0.8722  0.2616
 6910TIP3    H144925   3.165   6.639   1.161  1.0216  2.9825  0.4700
 6910TIP3    H244926   3.030   6.684   1.110 -0.0864  0.1628  0.7125
 6911TIP3   OH244927   7.014   1.214   0.995 -0.2018  0.0272 -0.6993
 6911TIP3    H144928   7.037   1.162   0.917 -0.2610  0.9388 -1.3385
 6911TIP3    H244929   6.967   1.153   1.051 -1.6707 -0.2237 -2.1270
 6912TIP3   OH244930   6.496   0.926   2.390  0.3222 -0.0998 -0.3095
 6912TIP3    H144931   6.550   0.851   2.411  0.7456  0.3774  0.3434
 6912TIP3    H244932   6.503   0.984   2.466 -2.5762 -0.8185  0.6221
 6913TIP3   OH244933   2.693   5.396   2.571  0.3850  0.4389 -0.2153
 6913TIP3    H144934   2.644   5.465   2.527 -0.8674  0.3822  1.0257
 6913TIP3    H244935   2.663   5.315   2.529 -0.7406  0.3921  0.6425
 6914TIP3   OH244936   6.346   1.615   1.778 -0.2800 -0.1270  0.1669
 6914TIP3    H144937   6.407   1.544   1.798  0.0595 -0.4433 -1.8142
 6914TIP3    H244938   6.387   1.664   1.707 -0.7808  1.7422  1.0912
 6915TIP3   OH244939   3.210   6.119   0.861 -0.1354  0.5438 -0.1112
 6915TIP3    H144940   3.142   6.052   0.860 -0.6399  1.0352 -1.6925
 6915TIP3    H244941   3.262   6.099   0.939  0.6899 -2.6370 -1.3329
 6916TIP3   OH244942   2.557   5.783   2.155  0.3926 -0.4475  0.1609
 6916TIP3    H144943   2.622   5.850   2.135  0.0229 -0.1080  0.0696
 6916TIP3    H244944   2.597   5.701   2.127  0.1413 -0.0667 -1.4518
 6917TIP3   OH244945   4.437   1.241   0.996 -0.1529 -0.6906 -0.2150
 6917TIP3    H144946   4.491   1.170   0.960  0.6463  0.6307 -1.7945
 6917TIP3    H244947   4.489   1.320   0.981 -1.7625  0.4329 -0.1307
 6918TIP3   OH244948   1.126   3.111   0.446  0.2333 -0.0826 -0.6761
 6918TIP3    H144949   1.103   3.029   0.490 -0.2909 -0.1811 -1.1200
 6918TIP3    H244950   1.184   3.085   0.374  0.5475  0.0059 -0.4588
 6919TIP3   OH244951   2.930   0.230   2.848 -0.3448  0.1438  0.0706
 6919TIP3    H144952   2.952   0.316   2.885  0.8880  0.1552 -0.6342
 6919TIP3    H244953   3.006   0.207   2.794 -0.8521 -1.1951 -0.1048
 6920TIP3   OH244954   1.607   1.348   1.561 -0.6735  0.4273 -0.0377
 6920TIP3    H144955   1.561   1.395   1.630 -0.6847  0.3658 -0.0039
 6920TIP3    H244956   1.634   1.266   1.601  0.6488  1.0206  0.3549
 6921TIP3   OH244957   2.766   4.580   1.793  0.6021  0.1059 -0.3792
 6921TIP3    H144958   2.813   4.602   1.874  0.3514  0.0050 -0.2038
 6921TIP3    H244959   2.818   4.620   1.723  0.8941  0.0814 -0.1797
 6922TIP3   OH244960   4.961   7.560   1.993 -0.1958 -0.1338  0.2578
 6922TIP3    H144961   4.908   7.511   1.930 -0.2252  1.9363 -1.4028
 6922TIP3    H244962   5.051   7.552   1.960 -0.0640  0.0512  0.5696
 6923TIP3   OH244963   4.759   3.935   3.144 -0.5342 -0.3633  0.0953
 6923TIP3    H144964   4.814   3.874   3.095  0.4216  1.4920 -1.2879
 6923TIP3    H244965   4.769   4.018   3.098 -2.5404  0.6374  1.3242
 6924TIP3   OH244966   1.217   7.607   0.606 -0.3514  0.8892  0.4341
 6924TIP3    H144967   1.193   7.535   0.664  0.5634 -0.2728 -0.5916
 6924TIP3    H244968   1.182   7.583   0.520 -0.0785  1.6859  0.0807
 6925TIP3   OH244969   3.095   2.440   1.618 -0.3303 -0.1219 -0.3862
 6925TIP3    H144970   3.091   2.470   1.528  2.6833  2.0645  0.0386
 6925TIP3    H244971   3.019   2.480   1.661 -0.6959  0.4429 -1.5328
 6926TIP3   OH244972   1.534   3.893   2.722 -0.0385  0.1469 -0.0367
 6926TIP3    H144973   1.517   3.866   2.812  1.5783 -0.4471  0.1229
 6926TIP3    H244974   1.566   3.983   2.730 -1.8370  0.8396 -0.2318
 6927TIP3   OH244975   0.138   1.574   2.808  0.8206  0.2858  0.1203
 6927TIP3    H144976   0.157   1.520   2.884  0.8839  1.7637  1.2139
 6927TIP3    H244977   0.044   1.593   2.815  1.2376  2.3237  1.2186
 6928TIP3   OH244978   6.511   3.175   2.782  0.4140  0.0182 -0.1005
 6928TIP3    H144979   6.582   3.139   2.834 -0.7624 -1.6521  0.4218
 6928TIP3    H244980   6.431   3.139   2.820 -0.9462  3.3375  0.5904
 6929TIP3   OH244981   3.464   4.676   1.704 -0.2111 -0.1512 -0.1563
 6929TIP3    H144982   3.524   4.602   1.715  1.5871  1.0233 -1.4957
 6929TIP3    H244983   3.474   4.727   1.784 -2.4992 -1.9688  1.4027
 6930TIP3   OH244984   4.167   4.616   2.427 -0.0283 -0.0856 -0.8290
 6930TIP3    H144985   4.262   4.603   2.437 -0.2086 -0.5940  0.3702
 6930TIP3    H244986   4.144   4.562   2.351  0.7868  0.7890 -1.7196
 6931TIP3   OH244987   1.019   6.494   2.194 -0.1830  0.1324  0.0118
 6931TIP3    H144988   1.096   6.547   2.211 -1.1399  1.4939  0.2695
 6931TIP3    H244989   0.984   6.528   2.111  0.3034 -1.4857 -0.9192
 6932TIP3   OH244990   0.765   1.156   2.957  0.5071  0.6516 -0.0612
 6932TIP3    H144991   0.776   1.125   3.047 -1.3759  1.3449  0.4575
 6932TIP3    H244992   0.797   1.084   2.902 -0.2452 -0.6512  1.1528
 6933TIP3   OH244993   0.633   2.011   0.610 -0.2858 -0.1159 -0.1343
 6933TIP3    H144994   0.687   2.080   0.647 -1.2485  0.0305  1.0482
 6933TIP3    H244995   0.690   1.966   0.548  1.0540  0.2841  0.7838
 6934TIP3   OH244996   2.943   5.100   2.569 -0.3509 -0.4250  0.9010
 6934TIP3    H144997   2.905   5.102   2.481  0.3397  0.2998  0.6114
 6934TIP3    H244998   2.874   5.134   2.626 -0.3977  0.2150  0.4727
 6935TIP3   OH244999   4.930   0.270   0.649  0.0074  0.0859  0.1180
 6935TIP3    H145000   4.992   0.212   0.694  1.8502  0.8652 -1.2748
 6935TIP3    H245001   4.977   0.353   0.641 -1.9764  1.3168  0.6680
 6936TIP3   OH245002   1.881   5.694   2.059 -0.2541  0.3095 -0.0246
 6936TIP3    H145003   1.836   5.639   2.123  0.1370  0.3930  0.3285
 6936TIP3    H245004   1.871   5.647   1.976  0.5797 -0.6052  0.3709
 6937TIP3   OH245005   2.307   1.996   3.175 -0.5186  0.3231  0.2684
 6937TIP3    H145006   2.234   1.988   3.236 -2.2644  0.4619 -1.6672
 6937TIP3    H245007   2.268   2.036   3.097  1.8141  1.1192 -0.5822
 6938TIP3   OH245008   7.510   3.290   2.526  0.0814 -0.2039  0.1554
 6938TIP3    H145009   7.541   3.270   2.438 -0.0832 -0.1781  0.0927
 6938TIP3    H245010   7.460   3.213   2.552  1.7159 -1.0568  0.9672
 6939TIP3   OH245011   1.739   3.568   1.680  0.0344 -0.2827 -0.1230
 6939TIP3    H145012   1.746   3.473   1.668  0.8372 -0.2076 -0.3011
 6939TIP3    H245013   1.671   3.578   1.747  1.7289 -1.1281  1.8538
 6940TIP3   OH245014   2.504   1.818   2.040  0.1727  0.0089 -0.1458
 6940TIP3    H145015   2.455   1.780   1.967  0.2790  0.3225 -0.3819
 6940TIP3    H245016   2.494   1.755   2.111 -2.1753  0.9476  0.4409
 6941TIP3   OH245017   3.763   3.266   0.520 -0.2364 -0.2437 -0.8513
 6941TIP3    H145018   3.737   3.205   0.589  0.7666  0.4800  0.2260
 6941TIP3    H245019   3.859   3.269   0.526 -0.1794  0.4114 -1.7852
 6942TIP3   OH245020   4.026   7.000   1.024  0.0326 -0.0860 -0.6897
 6942TIP3    H145021   3.952   6.939   1.025  0.7394 -0.9711 -0.8968
 6942TIP3    H245022   4.024   7.038   0.936 -0.9308  0.8725 -0.2807
 6943TIP3   OH245023   5.475   7.076   0.726  0.1610  0.0826  0.7013
 6943TIP3    H145024   5.476   7.045   0.817  0.0247  0.0970  0.7090
 6943TIP3    H245025   5.427   7.009   0.678  0.2811  0.0482  0.6293
 6944TIP3   OH245026   2.046   5.746   0.644 -0.0489  0.3611  0.1831
 6944TIP3    H145027   2.034   5.806   0.571 -0.6058  0.2799  0.2056
 6944TIP3    H245028   2.102   5.676   0.609  0.9178  1.0684  0.2640
 6945TIP3   OH245029   0.127   0.907   0.810  0.3065  0.0911 -0.5205
 6945TIP3    H145030   0.036   0.936   0.819  0.1723 -0.0188 -1.4244
 6945TIP3    H245031   0.129   0.822   0.853 -0.0736  0.0076 -0.6570
 6946TIP3   OH245032   2.600   3.950   2.929  0.0643 -0.0719 -0.4303
 6946TIP3    H145033   2.693   3.966   2.944  0.0179  0.7851 -1.0012
 6946TIP3    H245034   2.583   3.868   2.974  0.5188  1.0084  1.8358
 6947TIP3   OH245035   2.674   0.623   3.224  0.6372 -0.2965  0.4458
 6947TIP3    H145036   2.759   0.667   3.227  0.8413 -0.5957 -0.4692
 6947TIP3    H245037   2.696   0.532   3.203  0.1230 -0.4825  0.7046
 6948TIP3   OH245038   3.422   2.712   1.835  0.4504 -0.1001  0.4510
 6948TIP3    H145039   3.489   2.693   1.769  0.0959  0.5068 -0.0920
 6948TIP3    H245040   3.343   2.672   1.800 -0.3036  2.1918 -0.6877
 6949TIP3   OH245041   0.914   6.535   3.356 -0.5250  0.3214  0.2929
 6949TIP3    H145042   1.007   6.536   3.333 -0.5961 -1.9778 -0.3040
 6949TIP3    H245043   0.874   6.594   3.293  0.5696  1.8056  0.9230
 6950TIP3   OH245044   2.229   2.280   2.402  0.2148 -0.3985  0.5837
 6950TIP3    H145045   2.225   2.374   2.419 -0.6131 -0.2643 -0.2742
 6950TIP3    H245046   2.322   2.259   2.404  0.4410  0.5331  0.3024
 6951TIP3   OH245047   0.559   6.205   1.890  0.0721 -0.2702  0.0319
 6951TIP3    H145048   0.491   6.159   1.937  0.2616  0.0846  0.6673
 6951TIP3    H245049   0.620   6.234   1.958  0.1832  0.5258 -0.3937
 6952TIP3   OH245050   7.484   1.492   1.253  0.0797 -0.1148 -0.0310
 6952TIP3    H145051   7.490   1.576   1.299 -2.0085 -0.5952  1.2132
 6952TIP3    H245052   7.562   1.491   1.197  1.8202  1.2911  2.1458
 6953TIP3   OH245053   4.836   4.188   1.040  0.3631  0.3115 -0.5240
 6953TIP3    H145054   4.780   4.130   1.092  1.7529 -1.3274 -0.7818
 6953TIP3    H245055   4.817   4.165   0.949  2.1232 -1.0040 -0.6087
 6954TIP3   OH245056   5.257   3.814   2.590  0.1644 -0.0589  0.0939
 6954TIP3    H145057   5.195   3.882   2.564  0.4166  0.1953  0.1531
 6954TIP3    H245058   5.245   3.803   2.684  0.1251 -0.0966  0.0846
 6955TIP3   OH245059   6.878   6.218   1.753 -0.2241  0.2873 -0.1817
 6955TIP3    H145060   6.885   6.282   1.683 -0.0202  0.5132  0.0409
 6955TIP3    H245061   6.910   6.137   1.715  0.1349  0.4693 -0.2715
 6956TIP3   OH245062   2.113   2.700   0.667 -0.1400  0.0033 -0.0351
 6956TIP3    H145063   2.020   2.680   0.672  0.2206 -1.5903  1.0689
 6956TIP3    H245064   2.151   2.661   0.746  1.6279 -0.4639 -1.0464
 6957TIP3   OH245065   5.066   3.367   3.203  0.6716  0.3048 -0.7270
 6957TIP3    H145066   5.085   3.325   3.119  0.9378 -2.1673  0.4964
 6957TIP3    H245067   4.971   3.356   3.214  0.5931  0.8665 -0.8074
 6958TIP3   OH245068   6.288   2.491   1.554 -0.3638 -0.1160 -0.1218
 6958TIP3    H145069   6.259   2.501   1.463 -1.8605 -0.6256  0.2650
 6958TIP3    H245070   6.211   2.455   1.599  0.7119 -0.9421  1.1165
 6959TIP3   OH245071   6.686   7.552   2.375  0.2574  0.0861 -0.0301
 6959TIP3    H145072   6.640   7.482   2.421  1.1398 -0.0830  0.6316
 6959TIP3    H245073   6.727   7.603   2.444 -0.1226  1.0953 -0.5219
 6960TIP3   OH245074   4.098   3.098   0.986  0.4992 -0.0171 -0.6285
 6960TIP3    H145075   4.169   3.037   0.965  0.0228 -0.0523 -2.1928
 6960TIP3    H245076   4.080   3.080   1.079  1.0930 -1.5086 -0.7583
 6961TIP3   OH245077   1.460   3.396   1.846 -0.3675 -0.1497  0.1185
 6961TIP3    H145078   1.484   3.318   1.796  0.1017  0.4618 -0.6133
 6961TIP3    H245079   1.394   3.440   1.792  0.3301  0.6486 -0.0921
 6962TIP3   OH245080   1.579   6.809   2.830  0.3713  0.1903  0.5480
 6962TIP3    H145081   1.625   6.887   2.801  0.9688 -0.2928  0.1626
 6962TIP3    H245082   1.638   6.768   2.893  0.1451 -0.0491  0.6072
 6963TIP3   OH245083   3.481   3.362   3.158  0.7100 -0.3317  0.3543
 6963TIP3    H145084   3.521   3.380   3.073 -0.6786  0.9934 -0.0778
 6963TIP3    H245085   3.410   3.300   3.139 -1.0826  1.6741  0.0771
 6964TIP3   OH245086   5.468   4.426   1.211  0.0921 -0.0106 -0.1299
 6964TIP3    H145087   5.392   4.420   1.154  1.2418  0.4068 -1.7732
 6964TIP3    H245088   5.517   4.501   1.178  2.5133 -1.7661 -0.8065
 6965TIP3   OH245089   1.073   3.237   2.587  0.4291 -0.1473  0.4142
 6965TIP3    H145090   1.045   3.324   2.559  2.5689 -0.2679 -2.5183
 6965TIP3    H245091   1.059   3.237   2.682 -4.5820  1.4160 -0.0158
 6966TIP3   OH245092   6.590   6.858   2.470  0.3191 -0.1340  0.0132
 6966TIP3    H145093   6.589   6.878   2.376 -0.9267  1.7763  0.3819
 6966TIP3    H245094   6.620   6.767   2.474 -0.6405 -0.6354 -2.3062
 6967TIP3   OH245095   3.665   6.579   1.238  0.5990  0.5362 -0.1728
 6967TIP3    H145096   3.734   6.560   1.302 -0.6038 -0.5974  0.8696
 6967TIP3    H245097   3.705   6.562   1.153  1.2866 -1.2644  0.4579
 6968TIP3   OH245098   0.683   0.414   1.031 -0.2045 -0.5554  0.2254
 6968TIP3    H145099   0.611   0.398   1.092  0.5859 -0.0192  1.3410
 6968TIP3    H245100   0.755   0.445   1.086  0.5150  0.0396 -0.9958
 6969TIP3   OH245101   6.989   6.652   1.093  0.0173  0.2254 -0.6303
 6969TIP3    H145102   7.013   6.744   1.081  1.1041  0.3110  1.6219
 6969TIP3    H245103   7.034   6.626   1.173 -0.6677 -2.1507 -0.9377
 6970TIP3   OH245104   6.082   3.698   1.549 -0.2133  0.0770 -0.2807
 6970TIP3    H145105   6.143   3.656   1.489 -0.9727 -0.4491 -0.6961
 6970TIP3    H245106   6.074   3.788   1.516  0.9372  0.3874  0.2490
 6971TIP3   OH245107   1.833   0.591   2.835 -0.1318  0.2629  1.0788
 6971TIP3    H145108   1.778   0.607   2.912 -1.7843 -0.5379  0.1288
 6971TIP3    H245109   1.850   0.497   2.837  2.0287  0.6285  1.8454
 6972TIP3   OH245110   0.896   4.002   1.595  0.0176 -0.0128  0.2767
 6972TIP3    H145111   0.880   4.078   1.539  0.9247 -0.2801 -0.3798
 6972TIP3    H245112   0.919   3.932   1.534  1.5035 -0.1934  0.9932
 6973TIP3   OH245113   0.269   0.576   2.332 -0.3957 -0.1793  0.2636
 6973TIP3    H145114   0.248   0.501   2.387 -1.9815 -0.8017 -1.0859
 6973TIP3    H245115   0.237   0.651   2.381 -0.5287 -0.5840  0.8025
 6974TIP3   OH245116   2.497   0.410   2.339  0.5033 -0.0665  0.9704
 6974TIP3    H145117   2.448   0.377   2.264 -0.2180  0.1923  1.3191
 6974TIP3    H245118   2.587   0.381   2.324  0.2297 -0.6153  0.3587
 6975TIP3   OH245119   3.970   0.318   2.015  0.1721 -0.0934 -0.2782
 6975TIP3    H145120   4.004   0.319   1.925  0.9165 -1.3138 -0.0259
 6975TIP3    H245121   3.948   0.226   2.031  1.5966 -0.1983  1.3524
 6976TIP3   OH245122   3.921   5.092   2.045 -0.3881  0.2804  0.6637
 6976TIP3    H145123   3.900   5.146   1.969 -1.7625 -0.7800  0.2396
 6976TIP3    H245124   4.011   5.063   2.030  0.0006  1.5646  0.3778
 6977TIP3   OH245125   4.045   6.480   2.751  0.2597  0.3572 -0.3486
 6977TIP3    H145126   3.960   6.519   2.730  0.2978  0.5919 -0.0661
 6977TIP3    H245127   4.077   6.530   2.826  1.7077  1.8097 -1.8727
 6978TIP3   OH245128   4.794   1.476   1.672 -0.2041 -0.2404  0.3990
 6978TIP3    H145129   4.746   1.559   1.673  0.9528  0.4548 -0.0061
 6978TIP3    H245130   4.726   1.410   1.661 -1.0752  0.7222 -0.2406
 6979TIP3   OH245131   7.130   1.313   2.490 -0.6911 -0.2571  0.2342
 6979TIP3    H145132   7.116   1.377   2.421  0.3314  0.9977  1.1419
 6979TIP3    H245133   7.221   1.327   2.518 -1.2121 -0.4086  2.1273
 6980TIP3   OH245134   2.412   2.861   0.847  0.2676 -0.2948 -0.7655
 6980TIP3    H145135   2.489   2.896   0.802  0.5978  0.7576  0.5573
 6980TIP3    H245136   2.437   2.771   0.870  0.4780 -0.4983 -1.7524
 6981TIP3   OH245137   3.183   4.973   1.291 -0.1591 -0.0649 -0.5336
 6981TIP3    H145138   3.176   4.907   1.222  1.1651  0.0532 -0.7974
 6981TIP3    H245139   3.267   4.954   1.334  0.4725  1.7167 -0.9150
 6982TIP3   OH245140   0.840   4.763   2.117 -0.0903 -0.3297 -0.1820
 6982TIP3    H145141   0.779   4.698   2.151  0.0056 -0.5904 -0.5063
 6982TIP3    H245142   0.800   4.847   2.140 -0.1424 -0.5003  0.3603
 6983TIP3   OH245143   3.160   1.637   0.956  0.4404 -0.7324 -0.4433
 6983TIP3    H145144   3.077   1.638   0.910  0.4372 -1.4816 -0.4675
 6983TIP3    H245145   3.223   1.675   0.895  0.0675  0.0791 -0.3249
 6984TIP3   OH245146   0.200   4.432   2.199  0.3790 -0.0602  0.5734
 6984TIP3    H145147   0.147   4.357   2.223  1.6764 -1.1287  0.2193
 6984TIP3    H245148   0.252   4.402   2.125 -1.0380  2.0588 -1.4401
 6985TIP3   OH245149   5.593   7.654   1.644  0.1190  0.1185  0.0642
 6985TIP3    H145150   5.680   7.621   1.666  0.6690  0.9470 -0.7673
 6985TIP3    H245151   5.533   7.583   1.666  1.0654 -0.6737  0.1225
 6986TIP3   OH245152   5.476   7.401   2.176  0.3413  0.5129 -0.1312
 6986TIP3    H145153   5.461   7.479   2.122  0.4508  0.6708  0.0659
 6986TIP3    H245154   5.496   7.436   2.263  2.5396  0.3433 -0.5183
 6987TIP3   OH245155   7.016   0.528   0.727  0.3134 -0.4412  0.1544
 6987TIP3    H145156   7.108   0.512   0.748  0.1438 -1.0003  0.4835
 6987TIP3    H245157   6.992   0.606   0.778  1.1999  1.0902 -1.6109
 6988TIP3   OH245158   0.404   5.400   3.382  0.1985  0.3672 -0.6618
 6988TIP3    H145159   0.344   5.464   3.420  1.0609  0.8632 -0.0710
 6988TIP3    H245160   0.475   5.395   3.446 -0.3051 -1.9243 -0.2099
 6989TIP3   OH245161   3.860   5.393   1.101  0.5001 -0.2515  0.6297
 6989TIP3    H145162   3.906   5.436   1.028 -1.5132  1.6869  0.3984
 6989TIP3    H245163   3.819   5.316   1.061 -0.6542  0.8364 -0.3685
 6990TIP3   OH245164   6.380   3.195   2.290  0.2824 -0.4663 -0.0294
 6990TIP3    H145165   6.446   3.251   2.331  0.0450 -0.9267  1.0217
 6990TIP3    H245166   6.301   3.211   2.342  0.1094 -1.4599  0.0260
 6991TIP3   OH245167   0.334   6.466   2.930 -0.1109  0.4172  0.6342
 6991TIP3    H145168   0.279   6.521   2.873 -2.3921 -1.3301  0.9912
 6991TIP3    H245169   0.297   6.477   3.017 -0.5915 -1.5400  0.7358
 6992TIP3   OH245170   1.981   4.687   1.482  0.4566 -0.2495  0.1276
 6992TIP3    H145171   2.011   4.682   1.573 -0.2288  1.5785  0.4907
 6992TIP3    H245172   1.986   4.779   1.460 -0.1602 -0.5639 -1.4476
 6993TIP3   OH245173   4.825   6.129   2.103 -0.2508 -0.0495  0.0160
 6993TIP3    H145174   4.804   6.092   2.017  0.4907 -0.0138 -0.1907
 6993TIP3    H245175   4.908   6.088   2.127  0.3658  1.1272 -0.0181
 6994TIP3   OH245176   6.694   5.834   2.377  0.0034 -1.0562  0.1159
 6994TIP3    H145177   6.754   5.838   2.303 -0.4287  0.0695 -0.1970
 6994TIP3    H245178   6.637   5.910   2.365  1.2930  0.4360  2.7937
 6995TIP3   OH245179   0.281   0.731   1.188 -0.3974  0.8651 -0.1787
 6995TIP3    H145180   0.351   0.780   1.145 -0.9597  1.2347 -0.6985
 6995TIP3    H245181   0.234   0.796   1.240  0.0528  0.4879  0.7213
 6996TIP3   OH245182   0.778   0.879   2.586 -0.2383  0.3071  0.3544
 6996TIP3    H145183   0.829   0.876   2.505 -0.2576  0.2310  0.3444
 6996TIP3    H245184   0.688   0.891   2.556 -0.2446  0.2863  0.3647
 6997TIP3   OH245185   5.176   6.140   1.852 -0.5491 -0.0006 -0.2870
 6997TIP3    H145186   5.201   6.052   1.880 -1.6528 -0.5124 -0.8413
 6997TIP3    H245187   5.116   6.170   1.920  0.6638  0.7839  0.4723
 6998TIP3   OH245188   6.795   4.518   1.753  0.0299 -0.2844 -0.0077
 6998TIP3    H145189   6.786   4.548   1.844 -2.0562  0.4404 -0.4048
 6998TIP3    H245190   6.819   4.597   1.704 -2.2881  0.1207 -0.5713
 6999TIP3   OH245191   0.360   6.077   2.461  0.0232 -0.1142 -0.3318
 6999TIP3    H145192   0.299   6.030   2.404 -0.1790  0.7492 -0.8457
 6999TIP3    H245193   0.426   6.012   2.484  0.5070 -0.3243 -2.1352
 7000TIP3   OH245194   6.236   4.347   1.820 -0.3468  0.1210  0.1574
 7000TIP3    H145195   6.290   4.414   1.776 -0.3766 -0.4878 -0.8291
 7000TIP3    H245196   6.281   4.332   1.903  0.6622  0.0884 -0.3764
 7001TIP3   OH245197   6.922   1.759   2.183  0.3875 -0.4680  0.0094
 7001TIP3    H145198   7.011   1.750   2.218  0.5313 -0.2704 -0.2998
 7001TIP3    H245199   6.865   1.746   2.258  0.7221  1.6748  0.6996
 7002TIP3   OH245200   3.256   7.089   2.065  0.6921 -0.4017 -0.1185
 7002TIP3    H145201   3.244   7.127   1.978  0.4404 -2.4005 -1.0208
 7002TIP3    H245202   3.186   7.024   2.072 -0.2849  0.8056  2.2552
 7003TIP3   OH245203   0.631   4.603   2.297 -0.4152  0.3585  0.4146
 7003TIP3    H145204   0.555   4.558   2.334 -0.2006  0.8321  1.4787
 7003TIP3    H245205   0.700   4.590   2.362  0.6438 -0.6747 -0.8569
 7004TIP3   OH245206   2.512   2.403   2.317  0.3240  0.1457  0.4010
 7004TIP3    H145207   2.481   2.412   2.227  2.7448  0.0046 -0.5195
 7004TIP3    H245208   2.533   2.492   2.345  1.8244 -0.0498 -0.0615
 7005TIP3   OH245209   0.896   1.746   1.047  0.1374 -0.6873 -0.3176
 7005TIP3    H145210   0.874   1.736   0.955 -0.6373  2.7813 -0.6303
 7005TIP3    H245211   0.990   1.762   1.048 -0.1331  1.0487 -0.7363
 7006TIP3   OH245212   7.347   7.184   2.140 -0.3708  0.3643  0.4560
 7006TIP3    H145213   7.440   7.205   2.129 -0.0430 -0.9653  0.5483
 7006TIP3    H245214   7.301   7.262   2.108  0.7422  0.4925 -0.9311
 7007TIP3   OH245215   2.684   5.273   0.826 -0.5325  0.4328 -0.4997
 7007TIP3    H145216   2.682   5.354   0.879 -2.6821 -0.9088  1.7318
 7007TIP3    H245217   2.776   5.246   0.827 -0.0410  1.9834  0.1355
 7008TIP3   OH245218   2.360   5.308   0.634 -0.2964  0.2907  0.5485
 7008TIP3    H145219   2.446   5.303   0.593 -0.0809 -1.2368  1.1288
 7008TIP3    H245220   2.324   5.219   0.626 -1.8959  0.9315  0.1734
 7009TIP3   OH245221   2.472   4.454   2.725  0.3879 -0.2465  0.0467
 7009TIP3    H145222   2.378   4.468   2.738  0.4659 -1.1685  1.9104
 7009TIP3    H245223   2.479   4.418   2.637 -1.1413 -1.2307  0.3046
 7010TIP3   OH245224   0.949   6.687   2.417  0.3056  0.1864  0.3920
 7010TIP3    H145225   0.928   6.778   2.396  1.4220  0.0985 -1.3257
 7010TIP3    H245226   1.025   6.694   2.476 -0.8206  0.3627  1.8940
 7011TIP3   OH245227   6.582   4.852   1.508  0.1117 -0.4437  0.3446
 7011TIP3    H145228   6.645   4.850   1.436  0.1900 -0.8743  0.4234
 7011TIP3    H245229   6.508   4.800   1.476 -0.0996 -0.1509  0.3518
 7012TIP3   OH245230   1.551   2.981   1.918 -0.4117  1.0665 -0.2379
 7012TIP3    H145231   1.461   2.952   1.925 -0.1061  0.1948  0.2092
 7012TIP3    H245232   1.598   2.907   1.880  0.3363  1.0460  0.6837
 7013TIP3   OH245233   3.147   5.398   0.966  0.5493 -0.5300 -0.1249
 7013TIP3    H145234   3.166   5.443   0.884 -1.6875  1.0814  0.1619
 7013TIP3    H245235   3.154   5.466   1.033 -1.4561 -0.8788  0.5109
 7014TIP3   OH245236   6.134   1.496   1.598 -0.1099  0.0169  0.1631
 7014TIP3    H145237   6.055   1.549   1.600 -0.0680  0.1034 -0.4018
 7014TIP3    H245238   6.188   1.529   1.671  0.4472  1.5597 -0.9102
 7015TIP3   OH245239   4.086   0.320   1.766  0.4608  0.4032  0.2009
 7015TIP3    H145240   4.155   0.374   1.805 -0.5820  1.0735  1.1997
 7015TIP3    H245241   4.042   0.379   1.704  0.8489 -0.0566 -0.5234
 7016TIP3   OH245242   3.574   4.113   1.627 -0.3073  0.1646  0.3781
 7016TIP3    H145243   3.627   4.186   1.657 -0.2638  0.2426  0.1104
 7016TIP3    H245244   3.619   4.080   1.549 -1.0244  0.6838 -0.2736
 7017TIP3   OH245245   0.891   6.888   0.797 -0.0021 -0.1200  0.0379
 7017TIP3    H145246   0.852   6.816   0.846 -1.5785  0.6837  0.0235
 7017TIP3    H245247   0.901   6.855   0.708  1.0854 -0.9356  0.4367
 7018TIP3   OH245248   3.215   5.017   2.419 -0.4661  0.6725 -0.5106
 7018TIP3    H145249   3.148   4.972   2.368 -1.6290  1.2758  0.4342
 7018TIP3    H245250   3.174   5.035   2.504  1.4717 -0.4752  0.7561
 7019TIP3   OH245251   1.542   5.654   2.100  0.3458 -0.0924 -0.3361
 7019TIP3    H145252   1.490   5.582   2.066 -0.2396  0.0399  0.2412
 7019TIP3    H245253   1.601   5.614   2.163  0.2283 -0.1156 -0.2387
 7020TIP3   OH245254   1.587   1.162   0.666  0.1405 -0.1078  0.2223
 7020TIP3    H145255   1.503   1.116   0.670 -0.6780  1.3096 -0.1354
 7020TIP3    H245256   1.634   1.132   0.744 -0.3949 -1.4530  0.0609
 7021TIP3   OH245257   2.254   4.651   0.897  0.1078 -0.0281 -0.2523
 7021TIP3    H145258   2.257   4.667   0.991 -0.4436  0.9567 -0.3844
 7021TIP3    H245259   2.160   4.642   0.878  0.2101 -0.0996 -0.7213
 7022TIP3   OH245260   6.687   1.874   0.611  0.1866 -0.8168  0.1885
 7022TIP3    H145261   6.713   1.838   0.526  0.0882 -0.2140 -0.0999
 7022TIP3    H245262   6.595   1.852   0.619 -0.1269  0.1992 -0.4295
 7023TIP3   OH245263   2.750   1.934   2.137 -0.4437  0.0386  0.5406
 7023TIP3    H145264   2.664   1.895   2.123  0.1939 -0.6218 -2.3045
 7023TIP3    H245265   2.738   2.026   2.117 -0.1784 -0.3963 -1.9987
 7024TIP3   OH245266   1.696   5.523   0.854  0.1815  0.1650 -0.8405
 7024TIP3    H145267   1.791   5.514   0.852  0.1166 -2.4814  1.2904
 7024TIP3    H245268   1.681   5.612   0.886  1.9104  0.7221 -1.4634
 7025TIP3   OH245269   5.402   6.134   1.016  0.0154  0.5127  0.2243
 7025TIP3    H145270   5.479   6.111   1.069 -1.6270 -0.3568  2.4144
 7025TIP3    H245271   5.417   6.089   0.933  1.2855 -0.7448  1.0650
 7026TIP3   OH245272   3.835   2.441   1.331  0.1623 -0.4569 -0.1872
 7026TIP3    H145273   3.839   2.483   1.245 -1.4316 -1.0683 -0.5906
 7026TIP3    H245274   3.747   2.463   1.364  0.4972 -0.8074  0.9900
 7027TIP3   OH245275   2.510   1.196   1.570  0.2591 -0.3266 -0.2258
 7027TIP3    H145276   2.555   1.116   1.597 -0.0619 -0.1043  1.0513
 7027TIP3    H245277   2.475   1.232   1.652 -1.1231  0.1903 -1.0214
 7028TIP3   OH245278   0.425   7.228   1.654  0.7557 -0.1358  0.0498
 7028TIP3    H145279   0.466   7.286   1.718 -0.1526 -1.6345  2.0944
 7028TIP3    H245280   0.479   7.149   1.655  1.1943  0.0951 -1.6872
 7029TIP3   OH245281   5.858   1.508   0.855 -0.3044  0.1449  0.1631
 7029TIP3    H145282   5.800   1.456   0.799  0.5643  0.1054 -0.7348
 7029TIP3    H245283   5.799   1.561   0.908 -1.1972 -1.2350  0.5979
 7030TIP3   OH245284   4.580   0.253   3.101 -0.4576  0.0902  0.6667
 7030TIP3    H145285   4.563   0.253   3.196 -0.3575 -0.7642  0.6971
 7030TIP3    H245286   4.548   0.338   3.071 -2.3101 -0.3719  1.1603
 7031TIP3   OH245287   1.213   3.753   2.789  0.2414 -0.4257  0.4287
 7031TIP3    H145288   1.292   3.773   2.838  1.6577 -1.3892 -1.3551
 7031TIP3    H245289   1.228   3.790   2.702 -1.5742 -0.0475  0.2382
 7032TIP3   OH245290   1.867   2.151   3.811 -0.3773  0.0664 -0.0976
 7032TIP3    H145291   1.895   2.243   3.813  2.3257 -0.4998 -3.0121
 7032TIP3    H245292   1.902   2.114   3.891 -1.7609  1.5532  1.2764
 7033TIP3   OH245293   5.056   1.516   1.895 -0.0459 -0.1530  0.3140
 7033TIP3    H145294   5.065   1.459   1.818  2.8887 -0.0693  0.4648
 7033TIP3    H245295   5.133   1.573   1.891 -1.3416  1.8284  1.7992
 7034TIP3   OH245296   6.323   4.526   2.097  0.7003 -0.3207  0.1020
 7034TIP3    H145297   6.361   4.520   2.184  0.8046 -1.5066 -0.0071
 7034TIP3    H245298   6.376   4.468   2.043  1.4901  1.4245 -1.0879
 7035TIP3   OH245299   1.084   0.381   3.205 -0.0735  0.1782 -0.3684
 7035TIP3    H145300   1.034   0.463   3.208 -0.2626  0.0739 -0.5829
 7035TIP3    H245301   1.018   0.313   3.220 -0.2305 -0.0484 -1.9950
 7036TIP3   OH245302   0.346   0.514   1.335 -0.1560  0.3897 -0.0461
 7036TIP3    H145303   0.347   0.569   1.413 -1.1173  0.8786 -0.3636
 7036TIP3    H245304   0.296   0.564   1.271 -0.6419 -0.6444 -0.4994
 7037TIP3   OH245305   5.201   3.619   2.395 -0.4203  0.4376  0.3538
 7037TIP3    H145306   5.202   3.651   2.305 -2.0134  1.4267  0.6547
 7037TIP3    H245307   5.227   3.694   2.447 -0.1807  0.0614  0.7845
 7038TIP3   OH245308   1.122   1.824   7.936  0.2553 -0.3495 -0.7576
 7038TIP3    H145309   1.155   1.736   7.957 -1.8119 -0.7212  1.2988
 7038TIP3    H245310   1.195   1.882   7.958  0.4850 -1.3005  1.1997
 7039TIP3   OH245311   3.438   3.825   1.481 -0.0113  0.4961 -0.0701
 7039TIP3    H145312   3.350   3.831   1.444 -0.5492  0.7359  1.1871
 7039TIP3    H245313   3.481   3.755   1.431 -1.2022 -0.1950 -0.1541
 7040TIP3   OH245314   6.777   0.165   1.364  0.6408  0.0534  0.1729
 7040TIP3    H145315   6.762   0.116   1.284  2.7768  1.0489 -0.9048
 7040TIP3    H245316   6.740   0.109   1.433  2.3541 -2.7874 -1.0449
 7041TIP3   OH245317   0.156   4.647   1.049 -0.2830  0.3735 -0.5093
 7041TIP3    H145318   0.100   4.708   1.097 -0.2588 -0.5480  0.7313
 7041TIP3    H245319   0.206   4.703   0.990 -0.8872  1.4607 -0.0272
 7042TIP3   OH245320   3.508   5.460   0.510 -0.0302  0.1307  0.2630
 7042TIP3    H145321   3.449   5.532   0.488 -0.5097  0.1884  1.6306
 7042TIP3    H245322   3.576   5.500   0.564  0.0545 -0.3184  0.5004
 7043TIP3   OH245323   4.751   4.418   2.217 -0.1391 -0.5566  0.0312
 7043TIP3    H145324   4.734   4.362   2.142  0.1095 -0.2507 -0.2517
 7043TIP3    H245325   4.817   4.371   2.268 -0.6511 -0.9941  0.3181
 7044TIP3   OH245326   2.055   7.156   1.146  0.5044 -0.0271 -0.1545
 7044TIP3    H145327   2.091   7.240   1.118  1.4879  0.4951  2.3964
 7044TIP3    H245328   2.129   7.096   1.139  0.4403 -0.1494  0.2299
 7045TIP3   OH245329   2.790   4.258   1.409  0.7165  0.3107 -0.0682
 7045TIP3    H145330   2.828   4.337   1.371 -0.1136  1.5762  1.6280
 7045TIP3    H245331   2.768   4.282   1.499  0.1598 -1.7694  0.4161
 7046TIP3   OH245332   1.328   6.006   1.344 -0.2983 -0.0803  0.1116
 7046TIP3    H145333   1.383   6.083   1.353 -1.9184  1.4280 -1.8888
 7046TIP3    H245334   1.380   5.945   1.291  0.5997  0.0180  0.8596
 7047TIP3   OH245335   1.029   7.244   1.954 -0.0136 -0.1963 -0.4725
 7047TIP3    H145336   0.959   7.192   1.993  0.1521  1.9983  3.2767
 7047TIP3    H245337   0.985   7.324   1.923  0.3207 -0.6014 -2.0900
 7048TIP3   OH245338   3.688   0.827   2.683 -0.0434 -0.2619  0.3088
 7048TIP3    H145339   3.695   0.796   2.773  1.4847  1.1964  0.7572
 7048TIP3    H245340   3.762   0.785   2.637 -1.1908 -1.5119 -0.4730
 7049TIP3   OH245341   6.612   7.221   2.929  0.1400 -0.0870 -0.2637
 7049TIP3    H145342   6.561   7.264   2.860 -1.0676 -2.1274 -0.7003
 7049TIP3    H245343   6.547   7.182   2.987  1.1790 -0.0149  1.0126
 7050TIP3   OH245344   2.707   7.151   1.569 -0.4994  0.3689  0.1613
 7050TIP3    H145345   2.698   7.112   1.656  0.7511 -0.0153  0.1469
 7050TIP3    H245346   2.802   7.161   1.557 -0.4778 -1.5861 -2.0086
 7051TIP3   OH245347   0.820   1.710   0.792 -0.5823 -0.3698 -0.0283
 7051TIP3    H145348   0.900   1.667   0.761 -0.3536  1.8957 -2.9641
 7051TIP3    H245349   0.749   1.663   0.746 -0.7208 -0.5442  0.3595
 7052TIP3   OH245350   7.561   4.205   0.628 -0.3137 -0.2834 -0.0642
 7052TIP3    H145351   7.556   4.297   0.601 -0.4674 -0.4316 -0.5540
 7052TIP3    H245352   7.644   4.199   0.674  0.1305 -0.0932 -0.8138
 7053TIP3   OH245353   7.409   5.538   0.635  0.2161 -0.1698  0.0754
 7053TIP3    H145354   7.400   5.581   0.550  0.3446 -1.3349 -0.5519
 7053TIP3    H245355   7.451   5.454   0.615 -1.8863 -1.5146  0.9580
 7054TIP3   OH245356   1.294   6.079   2.324  0.0526  0.3177  0.0358
 7054TIP3    H145357   1.344   6.154   2.355  0.2929  0.5666 -0.9243
 7054TIP3    H245358   1.354   6.031   2.267 -0.8008  0.6813 -1.2244
 7055TIP3   OH245359   6.066   6.897   2.429  0.1193  0.5861  0.3287
 7055TIP3    H145360   6.032   6.852   2.351  1.1221 -0.8198  0.6731
 7055TIP3    H245361   6.067   6.830   2.497  2.8722  0.7115  0.5172
 7056TIP3   OH245362   1.445   5.156   1.454 -0.2104  0.1403 -0.0284
 7056TIP3    H145363   1.415   5.239   1.416  0.0018  0.6764  0.9369
 7056TIP3    H245364   1.492   5.113   1.384  0.2172  1.1267 -0.3666
 7057TIP3   OH245365   6.793   2.322   0.481 -0.3574 -0.1456 -0.4838
 7057TIP3    H145366   6.866   2.299   0.539  0.4227  2.6358 -0.2105
 7057TIP3    H245367   6.717   2.324   0.538 -0.7383 -2.9300 -0.7421
 7058TIP3   OH245368   6.429   6.657   1.801 -0.2789  0.2084 -0.2652
 7058TIP3    H145369   6.467   6.577   1.837  0.2263  0.4077 -0.3472
 7058TIP3    H245370   6.347   6.629   1.761 -0.3644 -0.1780  0.1785
 7059TIP3   OH245371   2.068   1.066   0.854 -0.3262  0.9256  0.6180
 7059TIP3    H145372   2.043   0.976   0.877  2.8707 -0.5345 -0.9560
 7059TIP3    H245373   2.020   1.084   0.774 -1.4106  0.8534  1.2387
 7060TIP3   OH245374   1.656   4.558   3.390  0.1470 -0.2194 -0.0401
 7060TIP3    H145375   1.569   4.568   3.350  0.2789  1.1921  0.0093
 7060TIP3    H245376   1.683   4.646   3.413  0.8891 -0.8202  1.4975
 7061TIP3   OH245377   2.661   3.459   2.370  0.4542  0.4155  0.2438
 7061TIP3    H145378   2.576   3.426   2.400  0.3447 -1.5555 -1.9245
 7061TIP3    H245379   2.659   3.552   2.390 -2.9287  0.7694 -1.1713
 7062TIP3   OH245380   6.161   6.605   1.734  0.4819  0.3715  0.1357
 7062TIP3    H145381   6.171   6.592   1.640  1.3116  2.4585 -0.1196
 7062TIP3    H245382   6.068   6.591   1.750  0.5740 -1.5156 -0.6925
 7063TIP3   OH245383   3.379   4.007   2.185  0.1067 -0.1587 -0.2068
 7063TIP3    H145384   3.345   3.918   2.193  0.6021 -0.5864 -2.2602
 7063TIP3    H245385   3.462   4.006   2.232 -0.9630 -0.1063  1.7568
 7064TIP3   OH245386   0.877   1.971   2.856 -0.4117 -0.4853  0.4729
 7064TIP3    H145387   0.794   1.999   2.895 -1.2802  0.1387 -1.6612
 7064TIP3    H245388   0.933   2.048   2.860 -0.4724 -0.4453  0.5477
 7065TIP3   OH245389   1.276   7.341   0.753  0.1340  0.2509 -0.0915
 7065TIP3    H145390   1.260   7.297   0.837 -0.2813  1.3538  0.4280
 7065TIP3    H245391   1.227   7.289   0.689  1.2375 -1.1729  0.1561
 7066TIP3   OH245392   7.444   1.800   2.183 -0.1536  0.7242 -0.2953
 7066TIP3    H145393   7.395   1.880   2.202 -0.5678  0.6616 -1.0328
 7066TIP3    H245394   7.499   1.823   2.109 -0.7489  0.1620 -0.9368
 7067TIP3   OH245395   1.229   5.109   2.469  0.0710  0.3870  0.1361
 7067TIP3    H145396   1.136   5.085   2.465 -0.2756  1.4849  1.1229
 7067TIP3    H245397   1.230   5.193   2.513  1.3875  1.4499 -1.7954
 7068TIP3   OH245398   0.206   0.799   2.019  0.0965 -0.3456  0.7588
 7068TIP3    H145399   0.256   0.823   2.097 -0.0269 -0.0865  0.7618
 7068TIP3    H245400   0.145   0.731   2.049 -1.2905  1.0773  1.3719
 7069TIP3   OH245401   2.578   4.415   3.238  0.1054 -0.2513  0.5416
 7069TIP3    H145402   2.515   4.391   3.305  0.1556  0.7891  0.9957
 7069TIP3    H245403   2.647   4.349   3.244  0.1029 -0.1741  1.5187
 7070TIP3   OH245404   3.723   1.586   2.047 -0.2265 -0.1167  0.0583
 7070TIP3    H145405   3.784   1.512   2.042 -1.6844 -1.5489  1.8422
 7070TIP3    H245406   3.636   1.545   2.046 -1.1522  1.7498 -0.8476
 7071TIP3   OH245407   4.855   1.926   2.747 -0.2433 -0.0987  0.9160
 7071TIP3    H145408   4.806   2.004   2.720 -1.2216 -0.5047  1.4657
 7071TIP3    H245409   4.794   1.853   2.731  1.1375 -0.9294 -0.8935
 7072TIP3   OH245410   4.074   4.721   1.975  0.5759 -0.1874 -0.2048
 7072TIP3    H145411   4.067   4.761   1.888  0.0521 -0.3752 -0.2466
 7072TIP3    H245412   4.022   4.778   2.031  1.0294  0.0141  0.0186
 7073TIP3   OH245413   4.062   1.672   0.572 -0.2091  0.2623  0.4289
 7073TIP3    H145414   4.014   1.639   0.648 -0.4348  0.7691  0.5108
 7073TIP3    H245415   4.087   1.593   0.523 -0.2825 -0.0545  0.8907
 7074TIP3   OH245416   0.946   5.648   2.138  0.1163 -0.0525  0.1073
 7074TIP3    H145417   0.910   5.736   2.145  2.0906  0.8295 -0.3179
 7074TIP3    H245418   1.031   5.659   2.097  0.5220 -2.1461  0.2424
 7075TIP3   OH245419   1.823   7.141   1.354  0.1824  0.0377  0.1613
 7075TIP3    H145420   1.889   7.124   1.287 -0.6581 -1.7881 -0.2753
 7075TIP3    H245421   1.747   7.173   1.305  0.7088  2.1975  0.6664
 7076TIP3   OH245422   0.327   4.065   1.092 -0.2067  0.1313  0.1490
 7076TIP3    H145423   0.262   3.995   1.091 -1.4099  1.2147 -0.3091
 7076TIP3    H245424   0.390   4.040   1.024 -0.4804 -0.6259  0.1629
 7077TIP3   OH245425   2.159   0.788   1.774  0.1521  0.6112 -0.1926
 7077TIP3    H145426   2.143   0.798   1.680  0.9309  1.3550 -0.2675
 7077TIP3    H245427   2.126   0.701   1.796 -0.0766  0.4520 -1.1493
 7078TIP3   OH245428   3.150   6.355   2.858 -0.3799 -0.3196  0.0841
 7078TIP3    H145429   3.177   6.264   2.869 -0.4779 -0.4496 -0.6945
 7078TIP3    H245430   3.215   6.405   2.907  0.2382 -0.7493 -0.2731
 7079TIP3   OH245431   0.296   5.396   2.782  0.2160 -0.8269 -0.3442
 7079TIP3    H145432   0.321   5.340   2.856 -1.6101 -2.2665 -0.7622
 7079TIP3    H245433   0.210   5.430   2.806  0.6376  0.5987 -0.7922
 7080TIP3   OH245434   6.149   4.928   1.084  0.2231  0.4982  0.5255
 7080TIP3    H145435   6.156   4.878   1.003  3.5814  2.0473 -0.3083
 7080TIP3    H245436   6.147   5.020   1.056 -1.8283  1.0155  2.1433
 7081TIP3   OH245437   3.568   5.803   2.230  0.4085  0.8484 -0.7123
 7081TIP3    H145438   3.532   5.844   2.309  2.0214 -0.2771  0.6629
 7081TIP3    H245439   3.601   5.718   2.259  0.7601  0.2437 -2.6855
 7082TIP3   OH245440   5.625   5.156   3.001  0.0279  0.0764  0.3741
 7082TIP3    H145441   5.564   5.218   3.042  0.1568  0.4339  0.0389
 7082TIP3    H245442   5.618   5.175   2.907  1.2327  0.6726  0.3811
 7083TIP3   OH245443   1.207   0.554   0.947  0.2983  0.0408  0.7086
 7083TIP3    H145444   1.214   0.634   0.999 -0.1965  0.7890 -0.3307
 7083TIP3    H245445   1.129   0.510   0.979 -0.2579  0.7224  0.3032
 7084TIP3   OH245446   4.821   0.438   2.836 -0.5283  0.3861 -0.4369
 7084TIP3    H145447   4.754   0.476   2.780  0.1081 -0.1173 -1.5677
 7084TIP3    H245448   4.805   0.477   2.922 -2.1281  0.4364 -0.7216
 7085TIP3   OH245449   2.330   1.303   1.189  0.2759 -0.0463  0.0687
 7085TIP3    H145450   2.400   1.351   1.234 -0.8068  1.0942  0.5688
 7085TIP3    H245451   2.261   1.294   1.254 -0.4639 -0.2550 -0.7293
 7086TIP3   OH245452   3.793   6.854   1.093  0.4315 -0.5822 -0.4065
 7086TIP3    H145453   3.776   6.894   1.178 -0.3951  1.2456 -1.3829
 7086TIP3    H245454   3.740   6.774   1.093  0.5614 -0.6895  0.8332
 7087TIP3   OH245455   4.618   5.342   1.947 -0.3986 -0.2709 -0.0222
 7087TIP3    H145456   4.524   5.328   1.940 -0.3571 -0.9490  0.6926
 7087TIP3    H245457   4.657   5.265   1.904 -0.1720 -1.5964  2.4238
 7088TIP3   OH245458   7.675   1.951   0.460 -0.0346 -0.5036  0.2828
 7088TIP3    H145459   7.649   2.043   0.467  0.8456 -0.3509  1.8442
 7088TIP3    H245460   7.754   1.944   0.513 -0.4322 -2.2969  0.6951
 7089TIP3   OH245461   1.593   1.779   2.262  0.4234 -0.0067 -0.5668
 7089TIP3    H145462   1.568   1.765   2.354 -0.4642 -1.7511 -1.0191
 7089TIP3    H245463   1.559   1.866   2.241  0.2528  0.2371  0.6265
 7090TIP3   OH245464   3.537   3.906   2.395 -0.0263  0.1183 -0.1546
 7090TIP3    H145465   3.496   3.940   2.475 -0.9664  0.1218 -0.6302
 7090TIP3    H245466   3.487   3.828   2.374  0.4976 -0.1256 -0.5083
 7091TIP3   OH245467   2.755   6.819   2.704  0.3899 -0.4705 -0.1652
 7091TIP3    H145468   2.701   6.799   2.781  1.8381 -1.0313  0.7470
 7091TIP3    H245469   2.758   6.915   2.701 -0.5592 -0.4292 -0.1811
 7092TIP3   OH245470   2.139   4.919   1.239  0.7052 -0.4458  0.1091
 7092TIP3    H145471   2.150   4.827   1.218  0.2753 -0.1192 -1.7567
 7092TIP3    H245472   2.182   4.966   1.167  0.0820  0.7968  0.5090
 7093TIP3   OH245473   5.475   4.714   2.008 -0.1306 -0.1290  0.0360
 7093TIP3    H145474   5.383   4.725   1.983 -0.1631  1.4142  0.7318
 7093TIP3    H245475   5.521   4.700   1.926 -0.8599  0.1325 -0.4285
 7094TIP3   OH245476   0.762   7.026   1.127  0.6848  0.0066  0.1504
 7094TIP3    H145477   0.805   6.952   1.084  1.7549 -0.7849  2.3980
 7094TIP3    H245478   0.833   7.089   1.141  0.6837 -0.3170  1.8308
 7095TIP3   OH245479   4.881   4.148   2.991 -0.1122 -0.1346 -0.1621
 7095TIP3    H145480   4.927   4.232   2.981  0.4240 -0.3942  0.0553
 7095TIP3    H245481   4.943   4.083   2.957  0.5773 -0.7320  2.0661
 7096TIP3   OH245482   3.940   4.144   1.106 -0.2675 -0.3816 -0.0718
 7096TIP3    H145483   3.929   4.185   1.192 -0.5622 -0.8126  0.1053
 7096TIP3    H245484   3.885   4.065   1.111 -1.3134  0.2621 -1.1165
 7097TIP3   OH245485   6.685   3.048   0.859  0.2176 -0.4143  0.2474
 7097TIP3    H145486   6.655   3.064   0.949  1.9791  0.6125  0.6997
 7097TIP3    H245487   6.694   2.953   0.855 -0.5893 -0.5364  0.9062
 7098TIP3   OH245488   4.144   5.423   1.039  0.1255  0.5397  0.0560
 7098TIP3    H145489   4.082   5.377   1.096 -0.9540 -0.2618 -1.7118
 7098TIP3    H245490   4.193   5.479   1.099  0.6973 -1.9978  2.1321
 7099TIP3   OH245491   7.345   2.388   1.059  0.0609  0.9229 -0.2556
 7099TIP3    H145492   7.259   2.393   1.017 -0.4350 -2.4392  0.0543
 7099TIP3    H245493   7.406   2.369   0.987 -0.0859 -0.3243 -0.0794
 7100TIP3   OH245494   5.691   3.828   1.854  0.3108 -0.2550  0.2523
 7100TIP3    H145495   5.773   3.787   1.824 -0.8377 -1.7063 -1.0523
 7100TIP3    H245496   5.634   3.754   1.874 -1.5929  0.6914 -1.4259
 7101TIP3   OH245497   7.476   7.129   0.781  0.2719  0.3745 -0.5599
 7101TIP3    H145498   7.520   7.189   0.720  0.3977  0.6303 -0.2207
 7101TIP3    H245499   7.484   7.171   0.866  2.5091 -1.2203  0.1298
 7102TIP3   OH245500   4.257   3.947   1.934  0.2893 -0.8050  0.0450
 7102TIP3    H145501   4.352   3.935   1.924  0.2763  0.0619 -1.5755
 7102TIP3    H245502   4.248   4.037   1.965 -0.0086 -0.8999  0.2316
 7103TIP3   OH245503   3.323   7.459   3.499 -0.0759  0.1917  0.3298
 7103TIP3    H145504   3.395   7.499   3.548 -0.6760  1.3960  0.2698
 7103TIP3    H245505   3.367   7.401   3.436  0.7977  0.2513  0.8664
 7104TIP3   OH245506   4.586   5.746   1.365  0.0344 -0.2309 -0.0036
 7104TIP3    H145507   4.663   5.707   1.406 -0.1545 -1.5899 -0.8789
 7104TIP3    H245508   4.529   5.769   1.438 -0.2913 -2.5775  0.5628
 7105TIP3   OH245509   2.901   5.602   1.980 -0.1656 -0.1040 -0.2638
 7105TIP3    H145510   2.949   5.685   1.980 -0.7218  0.2385 -1.6775
 7105TIP3    H245511   2.864   5.596   1.893 -2.1912 -0.6807  0.5949
 7106TIP3   OH245512   6.116   0.710   1.287 -0.4606 -0.4872  0.4901
 7106TIP3    H145513   6.112   0.675   1.376 -0.7150 -2.6250 -0.3054
 7106TIP3    H245514   6.191   0.771   1.288 -0.1583 -0.8509  2.0219
 7107TIP3   OH245515   3.285   5.106   2.897 -0.4514 -0.2935 -0.1402
 7107TIP3    H145516   3.334   5.066   2.825 -0.2067 -0.9000  0.3594
 7107TIP3    H245517   3.211   5.150   2.854 -2.4023 -3.6389 -0.5320
 7108TIP3   OH245518   1.988   2.888   2.271 -0.0480  0.2492 -0.4785
 7108TIP3    H145519   1.989   2.802   2.312  1.8219  0.8474  0.8555
 7108TIP3    H245520   1.899   2.922   2.288 -0.7286 -1.2838 -0.8371
 7109TIP3   OH245521   6.110   6.096   1.593 -0.3194  0.3223  0.0186
 7109TIP3    H145522   6.121   6.175   1.540  1.1381  0.3228  0.3007
 7109TIP3    H245523   6.198   6.058   1.601 -0.3505  0.6002  2.8541
 7110TIP3   OH245524   6.117   5.953   1.932  0.0033  0.1294 -0.0134
 7110TIP3    H145525   6.116   5.863   1.964 -0.8061 -0.8598 -2.5568
 7110TIP3    H245526   6.205   5.984   1.950 -0.1578 -0.5775  2.3120
 7111TIP3   OH245527   1.770   2.448   2.329  0.0810  0.0368 -0.0937
 7111TIP3    H145528   1.799   2.357   2.331 -0.1210 -0.1414 -2.5826
 7111TIP3    H245529   1.715   2.455   2.251 -0.6778  2.0989  0.5316
 7112TIP3   OH245530   6.327   5.229   3.084 -0.0372 -0.5325 -0.5342
 7112TIP3    H145531   6.385   5.174   3.137  0.5900 -0.9666 -1.6581
 7112TIP3    H245532   6.262   5.168   3.049  0.8792 -0.6701 -2.0901
 7113TIP3   OH245533   7.309   4.658   0.723 -0.3701  0.5144  0.4503
 7113TIP3    H145534   7.374   4.676   0.791 -0.9046 -0.6450  1.3074
 7113TIP3    H245535   7.256   4.738   0.719 -1.3484  0.0694  2.6095
 7114TIP3   OH245536   2.918   0.017   0.904  0.2730 -0.4065 -0.1272
 7114TIP3    H145537   3.003   0.049   0.873  0.0976  0.5930  0.3834
 7114TIP3    H245538   2.858   0.035   0.831  0.0743  0.9446  0.3404
 7115TIP3   OH245539   3.984   3.311   2.006 -0.5120 -0.4431  0.5841
 7115TIP3    H145540   4.067   3.315   2.054  0.0563 -1.1426 -0.3143
 7115TIP3    H245541   3.976   3.220   1.978 -1.1601 -0.1917 -0.0784
 7116TIP3   OH245542   3.138   6.293   3.259  0.2285 -0.0431  0.2063
 7116TIP3    H145543   3.191   6.279   3.337  0.7939 -0.4485 -0.2412
 7116TIP3    H245544   3.083   6.368   3.281  2.0784  1.4047  0.1540
 7117TIP3   OH245545   2.023   4.206   2.589 -0.3632  0.9210 -0.0736
 7117TIP3    H145546   1.956   4.258   2.632 -0.3055  1.2004 -0.3142
 7117TIP3    H245547   2.055   4.146   2.656 -2.0104 -0.3687 -0.3936
 7118TIP3   OH245548   6.126   3.455   2.213  0.5517 -0.7103  0.2423
 7118TIP3    H145549   6.055   3.497   2.261 -1.0584 -1.5967 -1.2338
 7118TIP3    H245550   6.160   3.523   2.155 -1.4763 -1.0910 -1.5279
 7119TIP3   OH245551   5.811   4.813   1.715 -0.2066 -0.1191 -0.3995
 7119TIP3    H145552   5.861   4.812   1.634 -0.8384 -0.8107 -0.7851
 7119TIP3    H245553   5.760   4.894   1.711  2.2881  1.6703  0.9049
 7120TIP3   OH245554   4.802   0.591   3.082  0.0943 -0.2169  0.0565
 7120TIP3    H145555   4.713   0.615   3.059  0.5557 -0.1387 -1.7762
 7120TIP3    H245556   4.852   0.673   3.075  0.3102 -0.2154  1.2529
 7121TIP3   OH245557   7.281   6.033   2.855 -0.4278 -0.9750 -0.5881
 7121TIP3    H145558   7.246   6.097   2.793 -3.6629 -2.8827 -0.9883
 7121TIP3    H245559   7.246   6.060   2.939  2.2717  0.4293  0.2044
 7122TIP3   OH245560   0.349   3.246   2.478  0.4760  0.0125  0.4496
 7122TIP3    H145561   0.412   3.180   2.507  1.1753 -0.1797 -1.3613
 7122TIP3    H245562   0.265   3.200   2.478  0.9217 -0.8638 -0.5726
 7123TIP3   OH245563   2.784   5.246   2.031  0.3560 -0.4427  0.3329
 7123TIP3    H145564   2.690   5.232   2.044  0.2723 -2.4136 -1.6826
 7123TIP3    H245565   2.813   5.290   2.110 -2.7296  2.7532 -0.0088
 7124TIP3   OH245566   2.615   1.783   1.425  0.1837  0.7086  0.0433
 7124TIP3    H145567   2.683   1.718   1.444  1.0909  1.6444  0.0978
 7124TIP3    H245568   2.535   1.745   1.461  0.4773 -0.8365 -0.8226
 7125TIP3   OH245569   4.965   1.598   0.697  0.2089 -1.0055  0.8082
 7125TIP3    H145570   5.007   1.516   0.670  1.2588  0.4103 -2.3606
 7125TIP3    H245571   4.876   1.591   0.665 -0.1669 -1.4482  1.8869
 7126TIP3   OH245572   6.258   1.367   1.387  0.5918 -0.0354  0.1015
 7126TIP3    H145573   6.253   1.435   1.320 -1.3254 -1.1230 -0.9229
 7126TIP3    H245574   6.215   1.406   1.463  2.1073  0.9219  0.5222
 7127TIP3   OH245575   6.791   6.351   1.999  0.5333 -0.2668  0.2737
 7127TIP3    H145576   6.774   6.292   2.072 -2.0120  0.2983  0.2107
 7127TIP3    H245577   6.834   6.297   1.934  1.5103 -1.1404  1.5816
 7128TIP3   OH245578   3.755   4.908   0.523  0.6282  0.0037 -0.2394
 7128TIP3    H145579   3.770   4.855   0.445  1.7865 -0.0447  0.0020
 7128TIP3    H245580   3.790   4.995   0.501  1.8920 -0.2765  0.5485
 7129TIP3   OH245581   4.392   3.261   0.867 -0.6174  0.4448 -0.0302
 7129TIP3    H145582   4.349   3.324   0.924 -1.9355  0.9018 -1.4565
 7129TIP3    H245583   4.458   3.218   0.923 -0.6231  2.1061  1.3121
 7130TIP3   OH245584   7.040   4.014   0.871 -0.0017 -0.0006 -0.0711
 7130TIP3    H145585   7.128   3.984   0.894  0.5454  0.9682 -0.7875
 7130TIP3    H245586   7.052   4.106   0.848 -1.3265  0.3197  0.4570
 7131TIP3   OH245587   3.087   6.798   2.064  0.2537  0.2839 -0.2955
 7131TIP3    H145588   3.115   6.790   1.973  2.5373 -0.5576  0.4259
 7131TIP3    H245589   3.116   6.717   2.106 -0.5528  0.7507  1.2411
 7132TIP3   OH245590   0.220   1.168   1.291  0.6199  0.1473 -0.1044
 7132TIP3    H145591   0.165   1.091   1.302  0.5843 -0.2620 -2.6283
 7132TIP3    H245592   0.238   1.172   1.198  1.9409  2.3173  0.1669
 7133TIP3   OH245593   0.610   1.185   2.197 -0.1998 -0.4246  0.4205
 7133TIP3    H145594   0.638   1.267   2.238 -1.2750  0.3271 -0.2851
 7133TIP3    H245595   0.539   1.153   2.253  1.2616 -1.7572  1.6002
 7134TIP3   OH245596   1.866   7.525   2.197 -0.0883  0.0467 -0.2904
 7134TIP3    H145597   1.924   7.596   2.226 -1.1367  0.8705 -0.1724
 7134TIP3    H245598   1.891   7.450   2.251  0.5993  0.4955  0.0292
 7135TIP3   OH245599   3.284   1.280   2.214 -0.0734 -0.0319  0.0993
 7135TIP3    H145600   3.226   1.204   2.213  0.6030 -0.5825  0.9768
 7135TIP3    H245601   3.252   1.333   2.288  1.3822 -1.0566  1.5389
 7136TIP3   OH245602   5.281   5.838   1.821  0.4152  0.7505 -0.0116
 7136TIP3    H145603   5.188   5.835   1.799  0.5055  0.1258 -0.3208
 7136TIP3    H245604   5.286   5.811   1.912  0.2448  1.2866  0.1591
 7137TIP3   OH245605   5.982   0.718   2.825  0.4251 -0.2890 -0.2525
 7137TIP3    H145606   5.920   0.728   2.752 -1.4486 -0.1925  1.2661
 7137TIP3    H245607   5.995   0.808   2.857  0.1456 -0.4575  0.3521
 7138TIP3   OH245608   4.475   0.461   0.628 -0.2362 -0.3541 -0.5509
 7138TIP3    H145609   4.547   0.403   0.656 -0.1415 -0.7858 -1.6577
 7138TIP3    H245610   4.413   0.403   0.585 -1.5193 -0.0595  0.8484
 7139TIP3   OH245611   4.119   1.848   1.308 -0.2530  0.0885 -0.0935
 7139TIP3    H145612   4.124   1.934   1.350 -1.5690  0.9498 -1.6012
 7139TIP3    H245613   4.059   1.798   1.364  0.2243  0.2581  0.5850
 7140TIP3   OH245614   5.077   6.272   1.580  0.0131 -0.1240  0.4833
 7140TIP3    H145615   5.000   6.270   1.523  0.1682  0.0879  0.2600
 7140TIP3    H245616   5.042   6.275   1.669 -0.2394  0.2386  0.3751
 7141TIP3   OH245617   3.257   1.801   3.571 -0.1062 -0.4680 -0.2974
 7141TIP3    H145618   3.298   1.830   3.653 -1.1466 -1.0381  0.4459
 7141TIP3    H245619   3.177   1.756   3.599  0.0738 -1.6212 -1.5789
 7142TIP3   OH245620   2.245   0.306   1.437  0.0814 -0.0746 -0.9125
 7142TIP3    H145621   2.149   0.303   1.436  0.0825 -0.0152 -1.4386
 7142TIP3    H245622   2.271   0.232   1.383  0.3803 -1.6510  1.2631
 7143TIP3   OH245623   1.180   1.807   3.045 -0.3563  0.0607  0.1263
 7143TIP3    H145624   1.110   1.742   3.048 -0.4089  0.1453  0.8566
 7143TIP3    H245625   1.253   1.766   3.092  0.0077  0.0720 -0.4187
 7144TIP3   OH245626   1.963   3.112   1.741  0.4264 -0.0470  0.3941
 7144TIP3    H145627   2.018   3.184   1.709 -0.2783  0.5749  0.5499
 7144TIP3    H245628   2.013   3.033   1.722  1.7597  0.5508  1.3045
 7145TIP3   OH245629   6.386   7.077   3.013  0.0486  0.1882 -0.0806
 7145TIP3    H145630   6.299   7.115   3.027 -0.7545 -1.2164 -1.0278
 7145TIP3    H245631   6.376   7.022   2.935  1.9208  0.3614 -0.4830
 7146TIP3   OH245632   0.780   2.137   2.076 -0.0934 -0.4416  0.3806
 7146TIP3    H145633   0.694   2.178   2.062  0.6394  0.5429 -1.7029
 7146TIP3    H245634   0.763   2.043   2.071 -0.9214 -0.2460 -1.3365
 7147TIP3   OH245635   2.712   6.607   0.968 -0.0390 -0.7149  0.1100
 7147TIP3    H145636   2.645   6.580   1.031 -0.5543 -2.0179 -0.9554
 7147TIP3    H245637   2.721   6.533   0.909  1.5129 -0.0979 -0.4861
 7148TIP3   OH245638   2.141   7.642   3.102 -0.5908 -0.1044 -0.0657
 7148TIP3    H145639   2.219   7.622   3.050 -0.3761 -0.5222  0.4145
 7148TIP3    H245640   2.072   7.586   3.065 -0.4743 -0.2923  0.0012
 7149TIP3   OH245641   0.910   7.531   2.281 -0.1077  0.1147 -0.3394
 7149TIP3    H145642   0.970   7.464   2.247 -0.9310 -0.0662 -1.4856
 7149TIP3    H245643   0.966   7.591   2.330  0.9870 -0.1287 -1.2658
 7150TIP3   OH245644   3.677   4.640   2.919 -0.3994 -0.0125 -0.6751
 7150TIP3    H145645   3.607   4.696   2.951  0.1301  1.3666 -1.8514
 7150TIP3    H245646   3.650   4.615   2.831  1.3185  1.9796 -1.8540
 7151TIP3   OH245647   5.859   5.591   1.684  0.0859 -0.5599 -0.1949
 7151TIP3    H145648   5.926   5.632   1.629  1.6094 -2.0659  0.4641
 7151TIP3    H245649   5.847   5.652   1.757 -0.1987  0.2978 -0.9289
 7152TIP3   OH245650   5.909   5.281   1.723 -0.2916 -0.1972 -0.0906
 7152TIP3    H145651   5.936   5.298   1.632 -2.8930  0.1699 -0.8893
 7152TIP3    H245652   5.916   5.365   1.767 -0.4246 -0.0384 -0.3707
 7153TIP3   OH245653   0.774   5.893   0.876  0.2496  0.7069  0.0793
 7153TIP3    H145654   0.700   5.932   0.829 -0.9197 -0.1906  1.0963
 7153TIP3    H245655   0.799   5.817   0.824 -0.7387 -0.0192  0.6318
 7154TIP3   OH245656   2.714   2.242   0.609 -0.0575  0.1281  0.0003
 7154TIP3    H145657   2.631   2.221   0.651  0.5092 -1.1901  0.5335
 7154TIP3    H245658   2.698   2.323   0.562 -1.4076  0.3248  0.7639
 7155TIP3   OH245659   2.339   6.134   2.268  0.3979 -0.6028  0.6155
 7155TIP3    H145660   2.292   6.081   2.333 -0.1253 -1.9876 -0.8060
 7155TIP3    H245661   2.324   6.088   2.185  0.4411  1.4742 -0.6208
 7156TIP3   OH245662   0.567   1.370   3.422  0.1881 -0.1179 -0.2589
 7156TIP3    H145663   0.612   1.390   3.505  1.4955  0.2074 -1.0212
 7156TIP3    H245664   0.592   1.280   3.402 -0.8910 -0.5327  0.1466
 7157TIP3   OH245665   4.694   4.188   2.063  0.2148 -0.1348 -0.1923
 7157TIP3    H145666   4.604   4.192   2.032 -0.9562 -1.9264  2.5969
 7157TIP3    H245667   4.733   4.114   2.017 -0.0023  0.0722 -0.7184
 7158TIP3   OH245668   1.740   4.571   2.762 -0.3180 -0.3571  0.8054
 7158TIP3    H145669   1.709   4.598   2.849 -1.3487 -1.1251  0.6900
 7158TIP3    H245670   1.673   4.604   2.702 -1.3824 -2.6686  0.6149
 7159TIP3   OH245671   6.257   2.071   0.854 -0.0903  0.2600 -0.3808
 7159TIP3    H145672   6.334   2.020   0.880  1.0103  1.7906 -0.4773
 7159TIP3    H245673   6.243   2.047   0.763  0.4059  0.1204 -0.4279
 7160TIP3   OH245674   2.970   1.561   0.706 -0.2328  0.2036 -0.0932
 7160TIP3    H145675   2.876   1.578   0.699 -0.0970  2.5057  2.3006
 7160TIP3    H245676   3.012   1.636   0.663  0.4912 -0.2020 -0.1147
 7161TIP3   OH245677   3.574   1.128   2.101 -0.2570  0.0821 -0.0586
 7161TIP3    H145678   3.543   1.209   2.140 -1.0416 -0.1671 -0.1623
 7161TIP3    H245679   3.501   1.067   2.109 -0.5091  0.0528 -2.0423
 7162TIP3   OH245680   0.186   7.162   0.869  0.2926 -0.9618  0.0247
 7162TIP3    H145681   0.253   7.125   0.812  1.7585  1.4897  0.0389
 7162TIP3    H245682   0.205   7.125   0.956  1.9405  0.0320  0.1172
 7163TIP3   OH245683   7.592   0.745   2.701 -0.1466 -0.7007  0.3142
 7163TIP3    H145684   7.586   0.839   2.715  1.3928 -0.5820  0.3481
 7163TIP3    H245685   7.587   0.707   2.789 -1.4125 -0.7235  0.2559
 7164TIP3   OH245686   0.725   1.058   1.694 -0.1573 -0.1745 -0.3995
 7164TIP3    H145687   0.639   1.082   1.661 -0.7771 -2.1970 -0.4082
 7164TIP3    H245688   0.712   1.045   1.788  0.2889  0.1088 -0.2937
 7165TIP3   OH245689   7.629   5.655   0.779  0.1765 -0.1247  0.5595
 7165TIP3    H145690   7.592   5.708   0.850 -0.6431 -2.1919  1.7593
 7165TIP3    H245691   7.554   5.620   0.733  0.7016 -0.5205 -0.0117
 7166TIP3   OH245692   0.092   4.254   1.404  0.0069  0.4419 -0.3925
 7166TIP3    H145693   0.055   4.332   1.444 -0.1360  0.9244 -1.4271
 7166TIP3    H245694   0.172   4.236   1.454 -1.7939 -0.9059  2.1975
 7167TIP3   OH245695   4.671   3.731   2.069  0.4298 -0.6482  0.3366
 7167TIP3    H145696   4.630   3.653   2.031 -0.8101 -0.5059  1.3178
 7167TIP3    H245697   4.603   3.768   2.126  1.2418  0.7587  0.4251
 7168TIP3   OH245698   0.149   3.022   3.270  1.1636 -0.0996 -0.1201
 7168TIP3    H145699   0.131   2.942   3.220 -0.3852  0.3008 -0.2706
 7168TIP3    H245700   0.118   3.092   3.213  0.7725  0.4670  0.7753
 7169TIP3   OH245701   5.356   5.422   2.897 -0.0400  0.0180 -0.1498
 7169TIP3    H145702   5.386   5.343   2.853  0.8453  0.6003 -0.6289
 7169TIP3    H245703   5.366   5.404   2.990  1.9116  0.1980 -0.2856
 7170TIP3   OH245704   7.534   4.106   1.424  0.0294 -0.3217 -0.1921
 7170TIP3    H145705   7.522   4.081   1.516  1.8635 -2.0276 -0.3376
 7170TIP3    H245706   7.624   4.136   1.418 -0.0875 -0.1454 -1.4105
 7171TIP3   OH245707   3.298   6.358   0.752  0.2451  0.1039 -0.6411
 7171TIP3    H145708   3.257   6.278   0.785 -2.9139  1.2852 -1.3699
 7171TIP3    H245709   3.369   6.376   0.814 -2.7015 -0.0497  3.1440
 7172TIP3   OH245710   1.901   6.087   3.631 -0.1372  0.1996 -0.2796
 7172TIP3    H145711   1.856   6.092   3.546  0.0093  1.7452 -0.2798
 7172TIP3    H245712   1.857   6.152   3.685 -0.2905 -0.8391  0.8859
 7173TIP3   OH245713   4.877   7.147   2.371  0.6288 -0.5737  0.3608
 7173TIP3    H145714   4.915   7.121   2.287 -0.6310  0.1929 -0.4631
 7173TIP3    H245715   4.811   7.080   2.389 -0.0100 -0.0241  0.0867
 7174TIP3   OH245716   3.486   4.837   1.935 -0.0929  0.6423 -0.3007
 7174TIP3    H145717   3.580   4.856   1.930 -0.2460  1.4325 -0.3335
 7174TIP3    H245718   3.447   4.917   1.969 -0.7486  0.2873 -0.1978
 7175TIP3   OH245719   5.443   7.628   2.015 -0.4184  0.0492  0.1970
 7175TIP3    H145720   5.455   7.676   1.933 -1.1457  0.6638  0.4338
 7175TIP3    H245721   5.402   7.691   2.074  0.8764 -0.1161  1.3240
 7176TIP3   OH245722   1.647   7.096   0.936  0.6791 -0.2461  0.0956
 7176TIP3    H145723   1.562   7.055   0.916  0.3705  0.5362 -0.2369
 7176TIP3    H245724   1.666   7.149   0.859  1.2840 -0.1110  0.3391
 7177TIP3   OH245725   3.370   1.126   0.631 -0.6769  0.4915 -0.0682
 7177TIP3    H145726   3.281   1.117   0.598 -0.9475  2.8633 -0.1731
 7177TIP3    H245727   3.370   1.209   0.679  0.8242 -0.7259  2.2251
 7178TIP3   OH245728   2.503   0.801   3.359  0.1308 -0.8532 -0.0343
 7178TIP3    H145729   2.419   0.758   3.377 -0.5845 -1.2884 -3.5650
 7178TIP3    H245730   2.556   0.732   3.319  1.0815  0.1412 -0.5206
 7179TIP3   OH245731   2.185   5.040   1.950 -0.8891 -0.0313 -0.1471
 7179TIP3    H145732   2.102   4.994   1.941  0.1537 -2.2936  0.9599
 7179TIP3    H245733   2.209   5.028   2.042  0.6910  0.5082 -0.4579
 7180TIP3   OH245734   5.514   4.537   3.031 -0.4993 -0.5015  0.0487
 7180TIP3    H145735   5.575   4.517   2.959 -0.0954 -0.7788  0.4587
 7180TIP3    H245736   5.430   4.504   3.001 -0.4108 -0.2847 -0.4518
 7181TIP3   OH245737   1.085   0.083   0.999  0.0570  0.6228 -0.4105
 7181TIP3    H145738   1.153   0.076   0.931 -0.3202  0.4420 -0.7789
 7181TIP3    H245739   1.064  -0.008   1.021  0.7275  0.6853  0.5188
 7182TIP3   OH245740   4.783   0.391   2.489 -0.1879 -0.0404  0.2123
 7182TIP3    H145741   4.707   0.333   2.489 -0.5336  0.3965  0.7333
 7182TIP3    H245742   4.754   0.468   2.441  0.8111 -0.9465 -1.9627
 7183TIP3   OH245743   4.394   3.471   2.804 -0.0512  0.4019  0.1113
 7183TIP3    H145744   4.427   3.484   2.893 -0.2141  0.5071  0.1556
 7183TIP3    H245745   4.463   3.419   2.761  1.4110  2.7735 -0.5846
 7184TIP3   OH245746   5.542   2.422   2.310 -0.2895  0.2486 -0.8749
 7184TIP3    H145747   5.499   2.397   2.392  0.2111  0.1228 -0.6466
 7184TIP3    H245748   5.607   2.353   2.295 -0.0902  0.4959 -1.1605
 7185TIP3   OH245749   4.776   2.135   1.433 -0.1264 -0.8854  0.1131
 7185TIP3    H145750   4.726   2.133   1.351  0.9032 -2.3524 -0.5151
 7185TIP3    H245751   4.809   2.046   1.443  0.5486 -0.4938  1.6543
 7186TIP3   OH245752   0.249   2.032   2.567  0.0947 -0.4225  0.4500
 7186TIP3    H145753   0.200   1.950   2.574  0.6826 -0.9284 -0.9652
 7186TIP3    H245754   0.339   2.007   2.586  0.5254 -0.4404 -1.4445
 7187TIP3   OH245755   7.184   2.000   1.026 -0.8242 -0.1568 -0.0194
 7187TIP3    H145756   7.279   2.016   1.020 -0.6479 -1.2311 -0.3988
 7187TIP3    H245757   7.173   1.912   0.989 -1.9570 -0.0963  0.1553
 7188TIP3   OH245758   4.029   3.306   1.419  0.5290 -0.4669 -0.3909
 7188TIP3    H145759   4.068   3.389   1.393  1.2796 -0.6639  0.0702
 7188TIP3    H245760   4.093   3.268   1.480 -0.3836 -0.8056  0.3652
 7189TIP3   OH245761   5.455   4.991   2.620  0.4228 -0.3635  0.1043
 7189TIP3    H145762   5.494   5.022   2.538  0.1540  0.4934  0.2925
 7189TIP3    H245763   5.370   4.954   2.594 -1.3576  3.1525  0.3424
 7190TIP3   OH245764   0.856   0.893   1.496 -0.3157  0.1063 -0.4155
 7190TIP3    H145765   0.765   0.890   1.466  0.0776 -1.1229 -1.5571
 7190TIP3    H245766   0.853   0.949   1.574 -1.6217  2.1747 -1.8377
 7191TIP3   OH245767   3.705   3.010   1.406 -0.0536  0.1545 -0.5951
 7191TIP3    H145768   3.795   3.008   1.374  1.7745 -0.2853  3.8474
 7191TIP3    H245769   3.695   3.098   1.443 -1.4035  0.1025 -0.7783
 7192TIP3   OH245770   4.241   4.592   1.581  0.3206 -0.4798 -0.5565
 7192TIP3    H145771   4.325   4.625   1.612 -0.4982  0.6264  0.5884
 7192TIP3    H245772   4.220   4.647   1.505  0.7643 -0.9620 -1.0330
 7193TIP3   OH245773   0.977   7.192   1.113  0.3233  0.1943 -0.2676
 7193TIP3    H145774   0.948   7.221   1.027  0.1418 -0.1240 -0.3162
 7193TIP3    H245775   1.072   7.191   1.108  0.3269  0.6144 -0.3174
 7194TIP3   OH245776   3.388   0.794   1.839 -0.0146  0.5907 -0.4687
 7194TIP3    H145777   3.369   0.888   1.844  0.0399  0.5980 -0.3887
 7194TIP3    H245778   3.425   0.782   1.751 -0.5599  0.5432 -0.6941
 7195TIP3   OH245779   0.805   4.760   1.577 -0.0723  0.1518 -0.1453
 7195TIP3    H145780   0.767   4.823   1.638 -1.0586 -1.3924  0.9136
 7195TIP3    H245781   0.900   4.772   1.587 -0.2337  0.9714  0.5502
 7196TIP3   OH245782   1.448   4.660   1.685  0.2621 -0.3757  0.2572
 7196TIP3    H145783   1.442   4.746   1.726 -0.8217  0.5134 -1.6508
 7196TIP3    H245784   1.402   4.602   1.746  0.9978  0.3640  1.5567
 7197TIP3   OH245785   3.080   5.555   0.702 -0.0850 -0.1685 -0.0327
 7197TIP3    H145786   3.076   5.514   0.616  2.3058 -1.6535  0.4613
 7197TIP3    H245787   3.173   5.553   0.725 -0.6060  0.5406  2.4014
 7198TIP3   OH245788   1.624   0.963   1.916 -0.8892 -0.1346  0.0585
 7198TIP3    H145789   1.697   1.013   1.952  0.8397 -2.3251 -0.2510
 7198TIP3    H245790   1.626   0.982   1.822 -1.8797  1.1609  0.2615
 7199TIP3   OH245791   7.303   6.840   1.258  0.3094  0.5547  0.6777
 7199TIP3    H145792   7.209   6.845   1.280 -0.0201 -0.7715 -0.3099
 7199TIP3    H245793   7.337   6.927   1.280 -0.9910  0.8231  1.7597
 7200TIP3   OH245794   1.793   6.414   2.757  0.6405 -0.3216 -0.2402
 7200TIP3    H145795   1.714   6.425   2.809  0.8690  1.4858 -0.2268
 7200TIP3    H245796   1.761   6.389   2.670 -0.0688  1.6457 -0.5928
 7201TIP3   OH245797   3.184   1.321   1.763  0.2037 -0.9993  0.6130
 7201TIP3    H145798   3.166   1.287   1.676  0.6104 -1.5931  0.7506
 7201TIP3    H245799   3.140   1.406   1.766 -1.2206 -1.7133  0.4166
 7202TIP3   OH245800   3.203   6.500   2.083 -0.0052 -0.1517 -0.2631
 7202TIP3    H145801   3.123   6.453   2.103  0.7225 -1.5777 -0.5589
 7202TIP3    H245802   3.188   6.538   1.996 -0.2988 -0.5425 -0.3818
 7203TIP3   OH245803   0.498   2.794   2.371  0.6130 -0.0700 -0.9175
 7203TIP3    H145804   0.572   2.807   2.312 -0.3612  1.8240 -1.8268
 7203TIP3    H245805   0.455   2.715   2.338  2.0088 -1.0230 -0.5523
 7204TIP3   OH245806   1.566   7.053   4.045 -0.2835 -0.1106  0.4137
 7204TIP3    H145807   1.589   6.985   4.109 -0.6140 -0.6138  0.0022
 7204TIP3    H245808   1.591   7.016   3.961  2.1406  1.3880  0.3872
 7205TIP3   OH245809   0.579   4.652   1.382  0.3307  0.5832 -0.0012
 7205TIP3    H145810   0.644   4.703   1.335  1.2736 -0.8845 -0.3507
 7205TIP3    H245811   0.558   4.579   1.324 -0.0730 -0.1031  0.9704
 7206TIP3   OH245812   0.601   3.346   2.921 -0.0786 -0.0589 -0.1038
 7206TIP3    H145813   0.570   3.380   3.005 -0.0217  1.1210 -0.5390
 7206TIP3    H245814   0.688   3.311   2.940  0.1155  0.5982  0.2587
 7207TIP3   OH245815   1.763   3.249   2.502  0.9823  0.1733 -0.6776
 7207TIP3    H145816   1.720   3.167   2.524  1.5024 -0.4166 -1.7883
 7207TIP3    H245817   1.694   3.305   2.467 -0.6026  2.2753  4.7425
 7208TIP3   OH245818   3.140   6.661   1.442  0.2763 -0.3983 -0.1812
 7208TIP3    H145819   3.094   6.647   1.359 -3.5596  0.7192  1.5101
 7208TIP3    H245820   3.133   6.578   1.488  2.1130 -0.9156 -0.7465
 7209TIP3   OH245821   7.161   0.068   1.647 -0.0522  0.4497 -0.7317
 7209TIP3    H145822   7.156  -0.014   1.598 -1.5967  0.6358 -0.9241
 7209TIP3    H245823   7.135   0.135   1.584  1.4214  1.1511 -0.6485
 7210TIP3   OH245824   6.729   6.272   0.863  0.4445 -0.0718  0.0280
 7210TIP3    H145825   6.795   6.274   0.794  0.5169 -0.5386  0.0790
 7210TIP3    H245826   6.776   6.297   0.942  0.3418  0.5487 -0.1015
 7211TIP3   OH245827   7.200   7.326   1.797  0.4275  0.5846 -0.5181
 7211TIP3    H145828   7.141   7.262   1.759 -0.4746  1.5049 -0.7008
 7211TIP3    H245829   7.193   7.311   1.892  0.0183  0.6025 -0.5467
 7212TIP3   OH245830   3.278   5.708   3.248  0.3833 -0.5883 -0.8350
 7212TIP3    H145831   3.350   5.689   3.307 -1.3592 -0.3114  1.5310
 7212TIP3    H245832   3.240   5.789   3.282 -1.4071 -1.0562 -1.5995
 7213TIP3   OH245833   6.711   3.063   1.970  0.0933  0.2290 -0.5248
 7213TIP3    H145834   6.631   3.043   2.019  0.7811  0.2419  0.6437
 7213TIP3    H245835   6.753   2.978   1.959  0.8764  0.4391  0.6221
 7214TIP3   OH245836   4.004   5.427   2.018 -0.0870 -0.1982  0.8831
 7214TIP3    H145837   3.960   5.395   2.097  1.2750 -1.4483  1.1764
 7214TIP3    H245838   3.984   5.521   2.016 -1.1066 -0.3602  2.0666
 7215TIP3   OH245839   6.014   1.330   1.000  0.1497 -1.0475  0.2382
 7215TIP3    H145840   5.930   1.291   1.024 -0.6615 -0.0494 -0.8501
 7215TIP3    H245841   6.002   1.359   0.910  0.7837  1.3873  0.8614
 7216TIP3   OH245842   1.095   2.583   2.738  0.6592  0.2106  0.1365
 7216TIP3    H145843   1.161   2.515   2.748 -0.8501 -1.2820  0.2852
 7216TIP3    H245844   1.062   2.599   2.827  1.0823  1.2367  0.1229
 7217TIP3   OH245845   5.786   0.448   2.346 -0.2177  0.6892  0.0906
 7217TIP3    H145846   5.840   0.374   2.318 -1.0316 -0.3977  1.2527
 7217TIP3    H245847   5.847   0.520   2.359  1.1264 -0.7671  2.3082
 7218TIP3   OH245848   3.738   4.276   1.754 -0.5830 -0.1849 -0.5932
 7218TIP3    H145849   3.788   4.352   1.723 -0.6606  0.2532  0.3190
 7218TIP3    H245850   3.667   4.314   1.805 -0.7788 -0.8698 -0.3534
 7219TIP3   OH245851   1.052   7.299   1.543  0.7472  0.3627  0.3313
 7219TIP3    H145852   1.009   7.235   1.600  1.2736  0.0312  0.3736
 7219TIP3    H245853   1.002   7.297   1.462 -0.1622  1.0283  0.8703
 7220TIP3   OH245854   1.913   4.354   2.807 -0.2929 -0.2037  0.3930
 7220TIP3    H145855   1.855   4.429   2.811  1.1614  0.9044  1.8854
 7220TIP3    H245856   1.924   4.327   2.898 -0.6824 -2.1727 -0.0972
 7221TIP3   OH245857   5.670   7.343   1.570  0.5993 -0.2069  0.1022
 7221TIP3    H145858   5.700   7.380   1.653  1.0018  0.7647 -0.4648
 7221TIP3    H245859   5.749   7.336   1.516  0.3389 -0.8087 -0.2211
 7222TIP3   OH245860   4.038   2.525   0.890  0.8589  0.0115 -0.5235
 7222TIP3    H145861   4.084   2.449   0.856  0.6325  0.1243 -1.0866
 7222TIP3    H245862   4.090   2.600   0.860  1.1831  0.0771  0.1831
 7223TIP3   OH245863   6.203   6.278   2.191 -0.2183  0.1733  0.1263
 7223TIP3    H145864   6.244   6.305   2.108 -0.4116 -0.0658 -0.0449
 7223TIP3    H245865   6.125   6.229   2.166 -0.9584  1.1474  0.4572
 7224TIP3   OH245866   1.240   1.789   2.728  0.0670  0.0865  0.1187
 7224TIP3    H145867   1.190   1.864   2.694 -1.2836 -0.7297  0.2162
 7224TIP3    H245868   1.235   1.799   2.823 -0.3573 -0.2545  0.1385
 7225TIP3   OH245869   2.263   0.603   3.099  0.4790  0.7176 -0.0875
 7225TIP3    H145870   2.267   0.644   3.186  0.1259 -1.3867  0.9875
 7225TIP3    H245871   2.191   0.541   3.105  0.2604  0.7175 -2.0122
 7226TIP3   OH245872   3.371   0.863   3.649 -0.3952 -0.3147  0.6707
 7226TIP3    H145873   3.420   0.895   3.573  0.1739 -2.1349  0.2057
 7226TIP3    H245874   3.354   0.941   3.701 -1.6211  1.1609 -1.7603
 7227TIP3   OH245875   3.842   1.635   2.341 -0.0451 -0.2743  0.2614
 7227TIP3    H145876   3.802   1.601   2.261  0.5741 -0.1381 -0.1131
 7227TIP3    H245877   3.932   1.655   2.316 -0.5490  2.3309  0.2288
 7228TIP3   OH245878   6.345   5.366   2.608 -0.8338  0.3465  0.0963
 7228TIP3    H145879   6.282   5.355   2.680  0.6870  0.5575  1.5425
 7228TIP3    H245880   6.404   5.434   2.640 -0.2384  0.6016 -1.4881
 7229TIP3   OH245881   6.283   0.899   0.813 -0.3181 -0.4871 -0.4053
 7229TIP3    H145882   6.303   0.809   0.837 -0.7910 -0.5363 -0.1662
 7229TIP3    H245883   6.245   0.937   0.893  3.5385  1.1553  0.8795
 7230TIP3   OH245884   6.022   3.432   1.872 -0.2528 -0.5034 -0.2523
 7230TIP3    H145885   6.029   3.476   1.956 -0.3756 -1.4252  0.2522
 7230TIP3    H245886   6.112   3.420   1.843 -0.2148 -0.0822 -0.3159
 7231TIP3   OH245887   2.102   6.867   3.161  0.4577  0.2553  0.6046
 7231TIP3    H145888   2.188   6.851   3.198  1.6545  1.1405 -1.5888
 7231TIP3    H245889   2.117   6.930   3.090 -1.5644 -1.4074 -1.4955
 7232TIP3   OH245890   6.158   5.429   2.153  0.0196  0.0972 -0.0567
 7232TIP3    H145891   6.077   5.411   2.105  0.5361 -1.9111 -0.2820
 7232TIP3    H245892   6.228   5.403   2.092  0.8061  0.8678  0.4957
 7233TIP3   OH245893   4.442   2.717   1.849 -0.0474 -0.0657  0.1697
 7233TIP3    H145894   4.391   2.734   1.770  1.5316 -0.1199 -0.9168
 7233TIP3    H245895   4.477   2.629   1.836  1.3437  0.4481  0.2643
 7234TIP3   OH245896   4.315   1.783   1.704  0.6005  0.2607  0.1779
 7234TIP3    H145897   4.294   1.735   1.624  0.1588 -1.6481  1.3749
 7234TIP3    H245898   4.237   1.775   1.758  1.2281  0.7433  1.1810
 7235TIP3   OH245899   1.159   0.767   1.602 -0.6546  0.3463  0.2771
 7235TIP3    H145900   1.155   0.803   1.513  0.8429 -0.9828 -0.4004
 7235TIP3    H245901   1.116   0.681   1.594 -0.3329  0.1379  0.7714
 7236TIP3   OH245902   6.048   1.359   1.957 -0.0082  0.0262  0.1837
 7236TIP3    H145903   6.049   1.310   1.875  0.5473  0.3206  0.0149
 7236TIP3    H245904   6.140   1.365   1.983 -0.1313  0.4248  0.5337
 7237TIP3   OH245905   6.360   4.513   1.602  0.5540 -0.2207 -0.7730
 7237TIP3    H145906   6.413   4.578   1.555 -0.3818 -0.0174 -1.5880
 7237TIP3    H245907   6.280   4.560   1.625  2.0620  0.5708  3.6500
 7238TIP3   OH245908   6.743   7.013   1.353  0.3198  0.4779 -0.1093
 7238TIP3    H145909   6.821   7.067   1.337  1.4674 -0.9541  0.3526
 7238TIP3    H245910   6.674   7.076   1.375  1.7051  1.7352  0.8415
 7239TIP3   OH245911   5.769   5.197   3.288  0.5414  0.1767 -0.6580
 7239TIP3    H145912   5.736   5.113   3.258  2.5247 -0.9521  0.1718
 7239TIP3    H245913   5.818   5.232   3.213 -0.7739  0.9367 -1.2109
 7240TIP3   OH245914   3.813   6.010   0.424  0.1187 -0.4485  0.2135
 7240TIP3    H145915   3.730   6.041   0.389 -0.8586 -2.6185  0.4843
 7240TIP3    H245916   3.814   6.039   0.515  0.2018  0.5706 -0.1039
 7241TIP3   OH245917   0.149   7.639   1.911 -0.7558 -0.4878  0.1184
 7241TIP3    H145918   0.149   7.727   1.947  1.4855 -0.1933 -0.4493
 7241TIP3    H245919   0.084   7.642   1.841 -0.4754  0.8388 -0.1179
 7242TIP3   OH245920   2.697   0.366   2.823 -0.5680  0.1124  0.5528
 7242TIP3    H145921   2.782   0.321   2.826 -1.2305 -1.2577 -0.1536
 7242TIP3    H245922   2.717   0.457   2.846  1.1155 -0.1437  0.2363
 7243TIP3   OH245923   0.741   0.357   1.599  0.3955 -0.3367 -0.3290
 7243TIP3    H145924   0.689   0.281   1.574 -0.3668  0.0333  0.0934
 7243TIP3    H245925   0.727   0.365   1.694  1.0796 -0.1255 -0.2428
 7244TIP3   OH245926   6.628   6.702   2.219 -0.2412  0.1429  0.3173
 7244TIP3    H145927   6.701   6.652   2.258  1.0602  1.6481 -0.1034
 7244TIP3    H245928   6.669   6.758   2.154 -1.9960 -0.0198 -1.0133
 7245TIP3   OH245929   5.513   2.608   0.978 -0.3265 -0.1216 -0.1302
 7245TIP3    H145930   5.573   2.552   0.929 -1.7900 -1.5892 -0.3511
 7245TIP3    H245931   5.566   2.643   1.050  1.2732  0.2671 -1.4457
 7246TIP3   OH245932   1.516   3.548   2.425 -0.6346 -0.2382  0.0203
 7246TIP3    H145933   1.540   3.596   2.346  0.5342 -0.3099  0.3225
 7246TIP3    H245934   1.512   3.456   2.397  0.7547 -0.3864  0.2382
 7247TIP3   OH245935   1.019   4.634   2.306 -0.7065  0.1320 -0.2302
 7247TIP3    H145936   0.957   4.575   2.348  0.6117 -0.2906  1.2383
 7247TIP3    H245937   0.968   4.680   2.239 -2.4994 -0.3817  0.7265
 7248TIP3   OH245938   6.447   6.501   2.156  0.0069 -0.1494 -0.2147
 7248TIP3    H145939   6.518   6.563   2.136 -2.4092  2.5458 -1.1803
 7248TIP3    H245940   6.406   6.537   2.235 -0.1233 -1.8717  0.5406
 7249TIP3   OH245941   0.015   6.970   1.170 -0.4156 -0.1511 -0.1507
 7249TIP3    H145942  -0.026   6.886   1.192  0.6261 -1.7081 -3.4708
 7249TIP3    H245943   0.104   6.963   1.204  0.1879 -1.1868 -1.8032
 7250TIP3   OH245944   1.312   5.137   3.551 -0.0841  0.3466 -0.5549
 7250TIP3    H145945   1.335   5.093   3.469  0.6874 -2.1054  0.8594
 7250TIP3    H245946   1.274   5.068   3.605 -2.0977  2.2500  0.6218
 7251TIP3   OH245947   2.276   6.975   1.081  0.0867 -0.0185 -0.3894
 7251TIP3    H145948   2.257   6.955   0.989 -1.5498  1.5465 -0.4360
 7251TIP3    H245949   2.370   6.993   1.083  0.0500  0.4590 -1.8746
 7252TIP3   OH245950   2.437   5.667   0.501 -0.0347 -0.1566 -0.0342
 7252TIP3    H145951   2.483   5.587   0.474  1.0612 -0.2639  1.9475
 7252TIP3    H245952   2.495   5.707   0.566 -2.3440  0.1751  1.9708
 7253TIP3   OH245953   1.817   6.233   1.234 -0.2728  0.2607  0.3413
 7253TIP3    H145954   1.763   6.234   1.155 -0.8757 -0.5012  0.7279
 7253TIP3    H245955   1.777   6.298   1.292 -1.2309 -0.7753  0.8952
 7254TIP3   OH245956   4.659   5.311   0.477  0.1697 -0.4264  0.2140
 7254TIP3    H145957   4.596   5.280   0.412  0.0637 -0.6826  0.4383
 7254TIP3    H245958   4.607   5.368   0.534  0.1244 -0.6933  0.4403
 7255TIP3   OH245959   6.498   2.753   2.267 -0.1219  0.3228 -0.1055
 7255TIP3    H145960   6.462   2.691   2.330 -1.4249 -0.9651 -1.9954
 7255TIP3    H245961   6.501   2.704   2.184 -1.3249  2.7824 -1.7303
 7256TIP3   OH245962   3.310   3.564   3.288 -0.3446 -0.0977  0.1672
 7256TIP3    H145963   3.256   3.589   3.363 -0.8384  0.3108 -0.3134
 7256TIP3    H245964   3.255   3.584   3.212  0.6016  0.6335 -0.3500
 7257TIP3   OH245965   4.629   3.559   0.734 -0.4086 -0.2217  0.2253
 7257TIP3    H145966   4.704   3.578   0.790 -0.4135 -1.0325  0.5187
 7257TIP3    H245967   4.573   3.636   0.742  0.7457  0.7500 -0.6239
 7258TIP3   OH245968   5.178   3.524   1.262 -0.4610 -0.0588  0.4787
 7258TIP3    H145969   5.110   3.552   1.323  0.2015 -1.5325  1.9736
 7258TIP3    H245970   5.181   3.428   1.272 -0.1228 -0.3093 -1.6791
 7259TIP3   OH245971   2.372   2.706   0.547 -0.1265  0.3466 -0.8907
 7259TIP3    H145972   2.403   2.796   0.531  1.3862 -0.0590 -0.4182
 7259TIP3    H245973   2.278   2.716   0.564 -0.4402  1.5815 -2.9424
 7260TIP3   OH245974   2.093   1.648   1.186  0.1019  0.1333 -0.0561
 7260TIP3    H145975   2.038   1.719   1.219 -1.9491 -1.5297  0.2994
 7260TIP3    H245976   2.088   1.656   1.091  0.0356  0.5726 -0.0187
 7261TIP3   OH245977   1.567   0.024   3.790 -0.2573 -0.3242 -0.5629
 7261TIP3    H145978   1.591   0.100   3.843  0.2544  0.7844 -2.2687
 7261TIP3    H245979   1.639  -0.037   3.799  0.0477  0.0662 -0.3510
 7262TIP3   OH245980   2.679   0.545   1.290 -0.0080  0.0665 -0.1177
 7262TIP3    H145981   2.584   0.554   1.281  0.0037  0.9134  0.4683
 7262TIP3    H245982   2.711   0.544   1.200 -0.5158  0.6190 -0.3152
 7263TIP3   OH245983   4.087   6.933   1.525 -0.6665 -0.2222 -0.8191
 7263TIP3    H145984   4.086   6.874   1.450 -0.0482  0.8122 -1.6700
 7263TIP3    H245985   4.154   6.998   1.504 -2.4853  1.7978 -0.7206
 7264TIP3   OH245986   2.787   4.871   1.342 -0.5748 -0.0856  0.0274
 7264TIP3    H145987   2.719   4.914   1.290 -0.6620 -0.4948 -0.2072
 7264TIP3    H245988   2.870   4.899   1.303 -0.6435 -0.5098 -0.4346
 7265TIP3   OH245989   4.495   6.798   7.313  0.3350 -0.5405  0.1833
 7265TIP3    H145990   4.580   6.772   7.277  0.3401 -1.3149  0.7189
 7265TIP3    H245991   4.472   6.726   7.372 -0.6452 -0.2826  0.1218
 7266TIP3   OH245992   2.829   1.546   2.535 -0.5343 -0.4568 -0.1995
 7266TIP3    H145993   2.742   1.507   2.544 -0.1282 -1.0887  1.1478
 7266TIP3    H245994   2.812   1.640   2.529 -1.3800 -0.6543 -1.2622
 7267TIP3   OH245995   5.127   4.799   1.642  0.2401  0.3162  0.0533
 7267TIP3    H145996   5.082   4.882   1.632  0.8664  0.7583  0.7571
 7267TIP3    H245997   5.216   4.823   1.668  0.7220 -0.5442 -0.7531
 7268TIP3   OH245998   0.961   4.533   0.795  0.0710  0.1017  0.1614
 7268TIP3    H145999   0.982   4.620   0.827 -0.4352  0.0294  0.7051
 7268TIP3    H246000   0.876   4.512   0.833 -0.8090  0.2045 -1.6255
 7269TIP3   OH246001   1.436   2.000   1.517  0.2452  0.6620 -0.1613
 7269TIP3    H146002   1.372   2.026   1.451  1.1120 -0.5899 -1.5634
 7269TIP3    H246003   1.446   2.077   1.572 -2.2100  0.9966 -0.0803
 7270TIP3   OH246004   1.367   4.310   2.550  0.0190  0.1012  0.1397
 7270TIP3    H146005   1.357   4.299   2.645 -0.1113 -2.3268 -0.0908
 7270TIP3    H246006   1.309   4.245   2.512 -0.9242  1.9085 -1.6816
 7271TIP3   OH246007   1.517   6.061   2.553 -0.6247 -0.0267 -0.9636
 7271TIP3    H146008   1.439   6.031   2.600 -0.4754  0.4331 -0.4043
 7271TIP3    H246009   1.589   6.014   2.595 -0.5724 -0.2656 -1.3161
 7272TIP3   OH246010   5.583   3.006   0.864 -0.2933  0.5016 -0.6251
 7272TIP3    H146011   5.624   3.001   0.951  1.6433 -2.6849 -1.5286
 7272TIP3    H246012   5.647   3.052   0.810 -0.9688  1.4308 -0.6547
 7273TIP3   OH246013   2.636   5.421   0.597  0.1844  0.2422 -0.3160
 7273TIP3    H146014   2.700   5.479   0.638  0.1368  0.4133 -0.4835
 7273TIP3    H246015   2.631   5.346   0.656 -0.9403  1.1282  0.7718
 7274TIP3   OH246016   4.457   3.535   3.076  0.0512  0.1546 -0.6794
 7274TIP3    H146017   4.484   3.623   3.101 -1.3866  0.8508 -1.4367
 7274TIP3    H246018   4.361   3.539   3.074  0.0027 -0.8539 -2.7440
 7275TIP3   OH246019   5.653   1.012   0.618  0.1436 -0.0433  0.2087
 7275TIP3    H146020   5.662   1.027   0.524  0.9945 -0.6309  0.1880
 7275TIP3    H246021   5.732   1.049   0.656 -0.7356  1.2715  0.8429
 7276TIP3   OH246022   5.236   0.560   0.956  0.2274  0.2291 -0.3094
 7276TIP3    H146023   5.228   0.602   1.042  0.9262  0.0479 -0.1462
 7276TIP3    H246024   5.305   0.608   0.912  2.9515 -2.2561  0.8699
 7277TIP3   OH246025   6.908   1.530   2.821  0.9248  0.4427  0.0111
 7277TIP3    H146026   6.814   1.521   2.807  0.6311  0.9620  1.4928
 7277TIP3    H246027   6.921   1.507   2.913  2.1624  0.9531 -0.0177
 7278TIP3   OH246028   6.012   6.701   1.240  0.0792 -0.0299  0.2698
 7278TIP3    H146029   6.028   6.687   1.146 -2.0515 -0.6692 -0.0386
 7278TIP3    H246030   5.980   6.791   1.245  1.1995  0.3739  0.5590
 7279TIP3   OH246031   6.986   4.033   1.988 -0.5629  0.1902  0.5680
 7279TIP3    H146032   6.911   3.974   2.001  2.2610 -3.9215  0.0202
 7279TIP3    H246033   6.995   4.040   1.893 -0.2395  0.6843  0.6300
 7280TIP3   OH246034   2.090   1.682   2.043  0.4430 -0.2043 -0.2802
 7280TIP3    H146035   2.180   1.649   2.030  0.8446  0.9462 -0.5132
 7280TIP3    H246036   2.048   1.669   1.958  0.4717 -0.4904 -0.2523
 7281TIP3   OH246037   2.374   1.407   0.932 -0.2495  0.3289  0.3835
 7281TIP3    H146038   2.338   1.397   1.020  0.5242 -1.9726  0.5339
 7281TIP3    H246039   2.298   1.407   0.874 -0.7111  0.6695  0.9836
 7282TIP3   OH246040   1.547   0.675   2.734  0.4339  0.1233 -0.1823
 7282TIP3    H146041   1.587   0.589   2.727  1.3196  0.5907 -1.2333
 7282TIP3    H246042   1.477   0.665   2.799  2.0496 -0.8049  1.5060
 7283TIP3   OH246043   4.138   4.384   1.242  0.2874  0.1443  0.2953
 7283TIP3    H146044   4.111   4.415   1.155 -0.4709 -1.9332 -0.2708
 7283TIP3    H246045   4.056   4.360   1.285  0.7092  0.6368  1.3992
 7284TIP3   OH246046   4.339   5.957   2.146  0.1662 -0.5522  0.3582
 7284TIP3    H146047   4.422   5.990   2.111 -0.6622  0.7481 -0.4489
 7284TIP3    H246048   4.332   5.868   2.112  1.1925 -0.6631  0.3985
 7285TIP3   OH246049   5.433   5.356   3.153 -0.2100  0.0892  0.9710
 7285TIP3    H146050   5.351   5.356   3.201 -0.0229  0.7638  1.3100
 7285TIP3    H246051   5.481   5.432   3.188 -0.2156  0.8073 -0.5098
 7286TIP3   OH246052   1.401   5.609   1.623  0.6836 -0.3743  0.3490
 7286TIP3    H146053   1.487   5.570   1.613  0.5107 -1.3079  2.0981
 7286TIP3    H246054   1.350   5.544   1.671 -0.8262  0.3999 -0.1213
 7287TIP3   OH246055   2.963   5.257   0.782 -0.0370 -0.5741 -0.1160
 7287TIP3    H146056   3.009   5.308   0.848 -1.3784  0.0744  0.3513
 7287TIP3    H246057   3.010   5.174   0.778  1.5988  0.3089 -0.1928
 7288TIP3   OH246058   0.924   7.160   0.831 -0.3013  0.7977  0.1726
 7288TIP3    H146059   0.940   7.065   0.834 -0.3856  0.7987  1.2316
 7288TIP3    H246060   0.829   7.168   0.842 -0.4080  0.9850 -0.7921
 7289TIP3   OH246061   1.778   4.244   0.858 -0.5058  0.2349  0.1388
 7289TIP3    H146062   1.737   4.160   0.880  1.4047 -0.5720  0.8208
 7289TIP3    H246063   1.758   4.301   0.933  0.8699 -0.6407  1.2198
 7290TIP3   OH246064   5.537   1.167   2.390  0.0695 -0.0780 -0.3587
 7290TIP3    H146065   5.581   1.239   2.436  0.5049 -0.6130  0.0892
 7290TIP3    H246066   5.473   1.134   2.453  0.4866 -0.6447 -0.2152
 7291TIP3   OH246067   1.458   4.149   1.320  0.3412  0.1595  0.1051
 7291TIP3    H146068   1.381   4.104   1.354 -0.5327  1.6665  0.2187
 7291TIP3    H246069   1.426   4.194   1.242  1.0404  0.9728  0.2742
 7292TIP3   OH246070   4.496   4.432   2.321  0.2774 -0.7295 -0.3099
 7292TIP3    H146071   4.419   4.395   2.278 -0.1071  0.3841 -0.6211
 7292TIP3    H246072   4.567   4.421   2.258 -0.5382  2.0220 -1.8689
 7293TIP3   OH246073   3.866   7.020   1.958  0.6273  0.0424 -0.5072
 7293TIP3    H146074   3.926   7.037   1.885  0.8565 -1.0606 -0.5893
 7293TIP3    H246075   3.801   6.960   1.922  0.5620 -0.2650  0.1057
 7294TIP3   OH246076   5.590   5.517   1.710  0.4773 -0.2640 -0.7216
 7294TIP3    H146077   5.680   5.520   1.679  1.3271 -1.1320  1.4945
 7294TIP3    H246078   5.570   5.606   1.736  2.3607 -0.7643  2.9787
 7295TIP3   OH246079   3.643   7.245   1.465 -0.1520  0.7366 -0.0369
 7295TIP3    H146080   3.679   7.225   1.551 -0.2636 -0.9030 -0.3434
 7295TIP3    H246081   3.706   7.306   1.426  1.4698 -0.7781  0.0799
 7296TIP3   OH246082   2.936   4.314   1.678 -0.3657  0.6018  0.5931
 7296TIP3    H146083   2.844   4.307   1.702 -0.4687  1.7290  0.5679
 7296TIP3    H246084   2.976   4.233   1.711 -1.1479  0.6143  1.5970
 7297TIP3   OH246085   2.777   0.246   2.278  0.3849  0.1218  0.5831
 7297TIP3    H146086   2.810   0.214   2.362 -1.4898  0.4553  1.5032
 7297TIP3    H246087   2.842   0.219   2.214  2.7875  1.3837  2.3562
 7298TIP3   OH246088   2.224   2.619   3.825  0.4228  0.3491  0.1585
 7298TIP3    H146089   2.205   2.702   3.782 -0.8189  0.1533  0.2984
 7298TIP3    H246090   2.174   2.554   3.775  0.0966 -0.0784  1.0214
 7299TIP3   OH246091   0.937   7.125   3.436  0.2168 -0.7322  0.0478
 7299TIP3    H146092   0.939   7.166   3.349  1.7626 -0.1035  0.3260
 7299TIP3    H246093   0.951   7.032   3.419  0.8280 -0.5722 -0.3735
 7300TIP3   OH246094   3.742   6.958   1.372  0.0359 -0.1791 -0.1111
 7300TIP3    H146095   3.718   7.050   1.363 -0.9261 -0.5340 -1.6061
 7300TIP3    H246096   3.813   6.957   1.436  2.0366  1.9465 -2.0810
 7301TIP3   OH246097   6.698   0.262   1.923  0.5909  0.5172 -0.8421
 7301TIP3    H146098   6.720   0.303   2.006  0.6054 -0.3849 -0.3914
 7301TIP3    H246099   6.781   0.227   1.890  0.9209  2.3023 -2.0728
 7302TIP3   OH246100   1.348   1.354   1.376  0.4250  0.2434 -0.3640
 7302TIP3    H146101   1.311   1.439   1.401  1.3447  0.7342 -0.6313
 7302TIP3    H246102   1.438   1.356   1.409  0.4717 -0.6165 -0.4138
 7303TIP3   OH246103   1.068   4.854   2.456 -0.0592  0.0495 -0.7524
 7303TIP3    H146104   1.054   4.786   2.390  1.2664 -1.4988  0.4731
 7303TIP3    H246105   1.161   4.875   2.449  0.3082 -0.7553  1.1324
 7304TIP3   OH246106   1.063   1.227   2.858 -0.3446 -0.1345 -0.4162
 7304TIP3    H146107   0.995   1.163   2.838 -0.7993  0.0626  0.4058
 7304TIP3    H246108   1.015   1.309   2.872  0.3141  0.6570 -2.4811
 7305TIP3   OH246109   2.995   3.607   3.263 -0.3700 -0.3221  0.1719
 7305TIP3    H146110   2.963   3.680   3.316 -0.2251 -0.1163 -0.0213
 7305TIP3    H246111   3.016   3.538   3.327 -0.3525 -0.1353  0.3681
 7306TIP3   OH246112   1.944   0.183   0.502 -0.7546  0.1949 -0.7011
 7306TIP3    H146113   1.848   0.184   0.509 -0.6389  1.1087  1.5605
 7306TIP3    H246114   1.971   0.267   0.540  1.0032 -0.5743 -0.1922
 7307TIP3   OH246115   2.092   5.872   3.702  0.3236 -0.1305 -0.1365
 7307TIP3    H146116   2.033   5.797   3.710 -0.4248  0.4716  0.0675
 7307TIP3    H246117   2.034   5.948   3.694  1.0249  0.6780  1.8117
 7308TIP3   OH246118   3.780   5.526   1.785 -0.3484  0.1319 -0.3580
 7308TIP3    H146119   3.849   5.496   1.726  0.6327  1.0509  0.2713
 7308TIP3    H246120   3.757   5.449   1.837 -0.1699 -0.3149 -0.9374
 7309TIP3   OH246121   3.096   1.846   1.964 -0.2157 -0.2548  0.3065
 7309TIP3    H146122   3.016   1.814   2.006 -0.2830 -0.0759  0.3146
 7309TIP3    H246123   3.103   1.938   1.992  0.3632 -0.4651  0.8776
 7310TIP3   OH246124   2.616   4.494   1.236 -0.3349  0.1351  0.0319
 7310TIP3    H146125   2.620   4.586   1.208 -2.4161 -0.5090 -2.7680
 7310TIP3    H246126   2.707   4.471   1.255  0.0870  3.2332  2.8421
 7311TIP3   OH246127   5.816   5.010   0.820 -0.3263 -0.4930 -0.1539
 7311TIP3    H146128   5.848   5.093   0.786  0.8226 -0.8787 -0.0676
 7311TIP3    H246129   5.755   5.034   0.890 -1.7052  0.2884 -1.5588
 7312TIP3   OH246130   2.267   5.494   2.832 -0.5078 -0.3602  0.3332
 7312TIP3    H146131   2.337   5.448   2.880 -0.0991 -1.0780 -0.8871
 7312TIP3    H246132   2.242   5.566   2.889 -0.7219 -1.7281  2.0484
 7313TIP3   OH246133   4.502   1.981   2.391 -0.2558 -0.4969 -0.2456
 7313TIP3    H146134   4.431   1.968   2.328 -0.2090 -0.2609 -0.3476
 7313TIP3    H246135   4.468   2.046   2.452 -0.1979 -0.5229 -0.1858
 7314TIP3   OH246136   2.809   1.003   1.522  0.2422 -0.8320  0.2332
 7314TIP3    H146137   2.796   0.994   1.617  0.9901 -2.1428  0.2405
 7314TIP3    H246138   2.799   0.914   1.488  0.5065 -0.4631 -0.8626
 7315TIP3   OH246139   1.771   4.231   3.352  0.0904  0.0199  0.5604
 7315TIP3    H146140   1.695   4.272   3.393  1.0456  1.4939  0.9379
 7315TIP3    H246141   1.752   4.137   3.355 -1.6010  0.3379  0.8373
 7316TIP3   OH246142   5.855   0.683   2.111  0.5343 -0.0093 -0.4528
 7316TIP3    H146143   5.941   0.720   2.093  0.5614 -0.1285 -0.5714
 7316TIP3    H246144   5.867   0.589   2.100  0.3731 -0.0202 -0.5345
 7317TIP3   OH246145   0.342   3.633   3.300  0.4769  0.3540 -0.3679
 7317TIP3    H146146   0.325   3.548   3.260 -0.9836  1.0853 -1.3580
 7317TIP3    H246147   0.279   3.639   3.372  1.5062  0.0448  0.5923
 7318TIP3   OH246148   6.173   6.059   1.206 -0.1308 -0.1167 -0.5249
 7318TIP3    H146149   6.207   6.086   1.121  2.3541 -0.1425  0.3701
 7318TIP3    H246150   6.213   6.120   1.269 -1.5253 -0.3818  0.6809
 7319TIP3   OH246151   7.245   7.609   0.810  0.3572  0.0641 -0.1690
 7319TIP3    H146152   7.158   7.647   0.827 -1.1468 -1.9605 -2.6533
 7319TIP3    H246153   7.236   7.517   0.835  2.3529  0.1466  1.0309
 7320TIP3   OH246154   3.084   2.346   2.362 -0.4844  0.1227  0.2187
 7320TIP3    H146155   3.090   2.397   2.443 -0.0808  1.0354 -0.3677
 7320TIP3    H246156   2.993   2.317   2.359  0.0174 -1.9153  2.1568
 7321TIP3   OH246157   0.936   3.053   1.571  0.5337  0.1506 -0.7804
 7321TIP3    H146158   0.971   2.980   1.519 -1.8288 -2.2593  0.7507
 7321TIP3    H246159   0.956   3.030   1.661 -2.1533  0.1636 -0.0973
 7322TIP3   OH246160   7.334   7.057   1.867  0.3000  0.4644 -0.1088
 7322TIP3    H146161   7.428   7.051   1.850  0.0786 -0.2358 -1.1571
 7322TIP3    H246162   7.324   7.025   1.957  0.9325 -0.6197 -0.4055
 7323TIP3   OH246163   1.217   5.361   2.579 -0.5050 -0.5695  0.0364
 7323TIP3    H146164   1.221   5.397   2.667  1.1711 -0.3641 -0.1063
 7323TIP3    H246165   1.237   5.435   2.521 -0.9060 -0.8569 -0.4820
 7324TIP3   OH246166   4.322   4.188   1.634 -0.1613 -0.1023  0.5301
 7324TIP3    H146167   4.409   4.150   1.646 -0.2114 -0.9633 -1.5256
 7324TIP3    H246168   4.336   4.259   1.572 -0.7905  0.3884  0.9426
 7325TIP3   OH246169   1.116   1.404   2.601 -0.1300  0.1575 -0.1506
 7325TIP3    H146170   1.046   1.350   2.565 -0.3010  0.4785 -0.3070
 7325TIP3    H246171   1.106   1.397   2.696 -1.1138  1.1223 -0.1508
 7326TIP3   OH246172   5.835   2.839   0.472  0.6846  0.1628  0.5175
 7326TIP3    H146173   5.876   2.763   0.432 -0.5918  0.1447 -0.8412
 7326TIP3    H246174   5.741   2.820   0.469  0.3368  1.7807  0.1501
 7327TIP3   OH246175   1.303   0.879   2.966 -0.3863 -0.2208 -0.5918
 7327TIP3    H146176   1.385   0.926   2.983 -0.6177  0.9023 -2.3512
 7327TIP3    H246177   1.320   0.790   2.997  0.9000  0.4051  0.6054
 7328TIP3   OH246178   0.335   1.389   1.396 -0.2159  0.1636  0.3446
 7328TIP3    H146179   0.428   1.367   1.396  0.2820  1.7876 -2.5174
 7328TIP3    H246180   0.292   1.311   1.362  0.5899  0.5775 -1.8034
 7329TIP3   OH246181   0.209   6.787   1.270  0.0191 -0.0821  0.8985
 7329TIP3    H146182   0.215   6.713   1.210  1.8855  0.4918  0.3074
 7329TIP3    H246183   0.166   6.752   1.348 -2.4048 -0.8831 -0.6688
 7330TIP3   OH246184   7.605   2.891   0.726 -0.2703 -0.0307 -0.7478
 7330TIP3    H146185   7.695   2.908   0.698 -0.4673  0.8817 -0.8620
 7330TIP3    H246186   7.579   2.813   0.678  0.7434 -0.8164 -0.0705
 7331TIP3   OH246187   1.348   2.188   1.327  0.4531  0.4388  0.5859
 7331TIP3    H146188   1.399   2.241   1.265 -0.3227  0.7180  0.1682
 7331TIP3    H246189   1.259   2.220   1.317 -0.0642 -1.0465  0.2393
 7332TIP3   OH246190   0.079   0.545   2.107 -0.1579  0.1404 -0.2299
 7332TIP3    H146191   0.140   0.533   2.180 -0.3006  1.0328  0.0364
 7332TIP3    H246192   0.061   0.455   2.077  0.1924 -0.2141  0.5827
 7333TIP3   OH246193   4.023   5.474   2.673 -0.2364  0.2753 -0.2009
 7333TIP3    H146194   4.055   5.564   2.684 -0.7336  0.4167  0.1222
 7333TIP3    H246195   4.089   5.432   2.618  0.4484  0.5953  0.3534
 7334TIP3   OH246196   6.943   0.825   2.828  0.4779  0.2556 -0.3969
 7334TIP3    H146197   6.996   0.886   2.879 -0.1170 -1.1572  2.1274
 7334TIP3    H246198   6.853   0.848   2.850  0.1044  0.7556 -2.3199
 7335TIP3   OH246199   2.114   6.627   1.388 -0.0442  0.1007 -0.0145
 7335TIP3    H146200   2.035   6.666   1.426 -0.5347  0.0272 -0.9240
 7335TIP3    H246201   2.175   6.620   1.461 -0.3222  1.5935  0.3912
 7336TIP3   OH246202   4.173   4.019   0.980 -0.1900  0.1052  0.5165
 7336TIP3    H146203   4.121   4.089   1.019 -0.0850 -0.3919  1.5623
 7336TIP3    H246204   4.109   3.968   0.930 -0.0688  1.6532 -1.3621
 7337TIP3   OH246205   4.742   0.612   2.333 -0.2237  0.3853 -0.2122
 7337TIP3    H146206   4.734   0.594   2.239 -3.4336  0.5489 -0.0691
 7337TIP3    H246207   4.751   0.707   2.338  3.6350  0.1923 -0.3819
 7338TIP3   OH246208   6.427   4.506   2.379 -0.3266 -0.5998 -1.2356
 7338TIP3    H146209   6.495   4.533   2.440  1.2379 -0.1955 -3.0315
 7338TIP3    H246210   6.373   4.443   2.427  0.5546  0.0391  0.6398
 7339TIP3   OH246211   2.537   5.092   3.133 -0.1691  0.3267  0.2244
 7339TIP3    H146212   2.553   5.000   3.156  0.4056  0.1478 -0.8356
 7339TIP3    H246213   2.623   5.133   3.137 -0.0415  0.2910 -1.5102
 7340TIP3   OH246214   5.416   0.730   1.239  0.1399 -0.7765  0.1130
 7340TIP3    H146215   5.410   0.808   1.184 -1.0799 -0.9155  0.0284
 7340TIP3    H246216   5.509   0.705   1.235  0.1589 -0.5550 -1.5446
 7341TIP3   OH246217   2.294   1.104   1.430 -0.3087 -0.3489  0.5724
 7341TIP3    H146218   2.378   1.148   1.441 -0.9387  0.6366  1.6066
 7341TIP3    H246219   2.253   1.109   1.516 -1.8020 -0.0212 -0.1292
 7342TIP3   OH246220   4.380   2.038   1.743 -0.4867  0.2282 -0.8236
 7342TIP3    H146221   4.367   1.944   1.729 -1.7264  0.1927  0.3680
 7342TIP3    H246222   4.322   2.080   1.680  0.8662  0.2583 -2.1176
 7343TIP3   OH246223   6.631   6.030   2.998 -0.7519 -0.0627  0.1471
 7343TIP3    H146224   6.645   5.952   3.052  0.4632  0.5226  0.7240
 7343TIP3    H246225   6.543   6.019   2.962 -1.4354 -0.7076  1.8818
 7344TIP3   OH246226   7.641   4.404   2.991 -0.4517  0.5658  0.0458
 7344TIP3    H146227   7.584   4.456   2.934 -0.3439  1.0044  0.3324
 7344TIP3    H246228   7.580   4.352   3.043 -0.5266 -0.9248 -1.4497
 7345TIP3   OH246229   0.252   2.946   1.006  0.2661  0.0967  0.0114
 7345TIP3    H146230   0.159   2.966   1.003  0.4938  1.3229  0.4438
 7345TIP3    H246231   0.285   2.970   0.920  0.4517  1.2285  0.3753
 7346TIP3   OH246232   7.294   0.343   0.524  0.2523  0.0576  0.1158
 7346TIP3    H146233   7.351   0.392   0.583  2.7224 -1.1088 -1.1399
 7346TIP3    H246234   7.335   0.257   0.516 -1.1045 -0.5075 -1.7160
 7347TIP3   OH246235   5.377   6.920   2.497  0.2519 -0.6132 -0.0301
 7347TIP3    H146236   5.398   6.988   2.432  0.9971 -1.1137 -0.3236
 7347TIP3    H246237   5.446   6.928   2.562 -1.8075  1.5728  2.1302
 7348TIP3   OH246238   1.107   3.691   3.026 -0.1419  0.0116  0.1598
 7348TIP3    H146239   1.102   3.693   2.930 -0.2962 -2.6693  0.0606
 7348TIP3    H246240   1.187   3.741   3.046  2.0008 -2.3855 -1.6821
 7349TIP3   OH246241   2.250   3.778   0.855  0.7871  0.4978  0.0697
 7349TIP3    H146242   2.189   3.811   0.790  2.1077  0.5011 -1.2296
 7349TIP3    H246243   2.196   3.730   0.918 -0.4177 -0.6129 -1.7207
 7350TIP3   OH246244   4.080   1.124   0.879  0.4295 -0.1149 -0.0155
 7350TIP3    H146245   4.048   1.214   0.888 -0.3242 -0.1768 -1.7729
 7350TIP3    H246246   4.141   1.127   0.805 -0.6268 -1.2839 -0.9771
 7351TIP3   OH246247   3.940   4.084   3.291 -0.5646  0.6495  0.1609
 7351TIP3    H146248   4.020   4.103   3.242  0.6238 -3.2027  0.3287
 7351TIP3    H246249   3.886   4.035   3.230 -1.5334  0.6658  0.9859
 7352TIP3   OH246250   5.696   4.939   3.145 -0.1589 -0.0550 -0.4195
 7352TIP3    H146251   5.666   4.992   3.071  0.4567 -1.0447 -1.4201
 7352TIP3    H246252   5.626   4.875   3.159 -0.1004 -0.1187 -0.4143
 7353TIP3   OH246253   3.045   1.417   3.719 -0.0227  0.4762  0.0434
 7353TIP3    H146254   3.120   1.386   3.667 -0.3239  0.6207 -0.4933
 7353TIP3    H246255   2.993   1.339   3.734 -0.2434  0.5339 -0.4000
 7354TIP3   OH246256   3.181   6.878   1.819  0.3428  0.5082  0.1123
 7354TIP3    H146257   3.169   6.857   1.727 -0.7730  0.7211  0.1901
 7354TIP3    H246258   3.147   6.967   1.828  2.7871  1.4986  0.2556
 7355TIP3   OH246259   2.049   6.108   0.739 -0.6020 -0.0088 -0.1910
 7355TIP3    H146260   1.974   6.157   0.774 -0.1471  1.2082 -0.8627
 7355TIP3    H246261   2.060   6.141   0.650  1.5195  0.8117  0.3134
 7356TIP3   OH246262   5.444   4.729   0.840  0.3285  0.0533  0.4723
 7356TIP3    H146263   5.507   4.783   0.792 -0.2503  1.2415  0.9845
 7356TIP3    H246264   5.412   4.665   0.777  3.2399 -1.6840  0.6163
 7357TIP3   OH246265   0.491   2.473   3.274 -0.4175 -0.3718 -0.3215
 7357TIP3    H146266   0.469   2.397   3.221  0.8341  0.3112 -1.9038
 7357TIP3    H246267   0.479   2.548   3.216 -0.6754  0.5659  0.8956
 7358TIP3   OH246268   5.754   2.614   1.861 -0.0847 -0.0141 -0.0645
 7358TIP3    H146269   5.754   2.652   1.773 -0.6640  1.2373  0.4570
 7358TIP3    H246270   5.664   2.625   1.892 -0.3613 -2.0673  0.0289
 7359TIP3   OH246271   2.026   5.774   1.368  0.2765  0.1228  0.3803
 7359TIP3    H146272   1.994   5.740   1.451 -1.7177 -1.3353 -0.8996
 7359TIP3    H246273   1.984   5.859   1.358 -0.5767 -0.2982  0.2794
 7360TIP3   OH246274   2.973   0.719   3.171  0.0459  0.0018 -0.4747
 7360TIP3    H146275   2.919   0.786   3.129 -0.3621 -0.5498 -0.8516
 7360TIP3    H246276   3.056   0.763   3.189 -0.4315  0.7834 -0.1331
 7361TIP3   OH246277   5.014   0.582   1.270 -0.4321 -0.0852 -0.0397
 7361TIP3    H146278   5.051   0.634   1.341  0.0984 -0.0987 -0.2955
 7361TIP3    H246279   5.034   0.632   1.191 -0.5102 -0.3478 -0.2284
 7362TIP3   OH246280   7.619   1.065   1.618 -0.5254 -0.6505  0.6166
 7362TIP3    H146281   7.647   1.154   1.596 -2.1155  0.1448  1.6529
 7362TIP3    H246282   7.613   1.020   1.534 -0.4340  0.4391  0.0092
 7363TIP3   OH246283   3.387   3.632   2.445 -0.0269  0.1438 -0.0633
 7363TIP3    H146284   3.312   3.657   2.499 -1.5872  0.1961 -2.1291
 7363TIP3    H246285   3.372   3.540   2.424 -0.1027  0.4337 -1.3572
 7364TIP3   OH246286   1.746   1.791   3.062  0.2757  0.2972 -0.3565
 7364TIP3    H146287   1.755   1.759   3.152  1.6368 -1.4010 -1.0503
 7364TIP3    H246288   1.661   1.758   3.033  0.6392 -0.7056 -0.2895
 7365TIP3   OH246289   4.795   5.045   0.559 -0.2429 -0.0484  0.1866
 7365TIP3    H146290   4.726   4.979   0.562  0.6565 -1.2196 -2.3128
 7365TIP3    H246291   4.749   5.126   0.535 -0.9847 -0.3700  0.4914
 7366TIP3   OH246292   6.722   5.284   1.283 -0.0163 -0.5604 -0.2950
 7366TIP3    H146293   6.666   5.343   1.333  1.0630 -0.1813  0.5159
 7366TIP3    H246294   6.673   5.266   1.203 -1.3417 -0.3529  0.4311
 7367TIP3   OH246295   5.379   0.399   1.755  0.8637 -0.5532 -0.3023
 7367TIP3    H146296   5.330   0.369   1.832  0.0530 -1.5271 -1.1714
 7367TIP3    H246297   5.326   0.470   1.718  2.3553  1.4982  1.2571
 7368TIP3   OH246298   6.514   0.084   1.019  0.4379 -0.7353 -0.1719
 7368TIP3    H146299   6.562   0.151   0.970 -0.6457 -0.4668 -0.9146
 7368TIP3    H246300   6.580   0.041   1.073  1.1560  0.9528  0.3555
 7369TIP3   OH246301   7.599   6.297   1.426 -0.0353  0.0016  0.0980
 7369TIP3    H146302   7.580   6.218   1.476  1.7430 -0.6858 -0.2192
 7369TIP3    H246303   7.636   6.264   1.343  0.9147  1.1535  0.0410
 7370TIP3   OH246304   6.643   6.798   1.200 -0.0684 -0.7294  0.5399
 7370TIP3    H146305   6.698   6.870   1.231 -1.7669  0.3308  1.2626
 7370TIP3    H246306   6.614   6.754   1.280 -0.4393 -1.1376  0.1874
 7371TIP3   OH246307   6.735   2.454   2.773  0.3477 -0.6610 -0.3231
 7371TIP3    H146308   6.777   2.371   2.751  0.7094 -0.2082 -1.3998
 7371TIP3    H246309   6.658   2.429   2.824  0.5834 -1.6412 -0.4307
 7372TIP3   OH246310   1.664   6.031   3.437  0.4197 -0.1122 -0.6533
 7372TIP3    H146311   1.616   5.973   3.496  0.6590  0.4807  0.1254
 7372TIP3    H246312   1.627   6.118   3.453  2.0302  0.4340  0.2748
 7373TIP3   OH246313   3.439   1.801   1.452  0.5736  0.3906 -0.0039
 7373TIP3    H146314   3.446   1.740   1.526 -0.9095 -0.2483 -0.3662
 7373TIP3    H246315   3.468   1.750   1.376 -0.2627  0.2601 -0.2415
 7374TIP3   OH246316   0.919   3.011   2.805  0.1932 -0.8113  0.5059
 7374TIP3    H146317   0.885   3.101   2.803 -1.0578 -1.2057  1.8064
 7374TIP3    H246318   0.895   2.974   2.720  2.1042  0.5066 -0.6923
 7375TIP3   OH246319   3.453   2.728   1.197  0.0829  0.2689  0.3824
 7375TIP3    H146320   3.416   2.793   1.257 -0.7692  1.1862 -1.0792
 7375TIP3    H246321   3.411   2.747   1.113  0.6850 -1.4567 -0.3375
 7376TIP3   OH246322   7.436   0.787   1.713 -0.0075  0.3822 -0.2903
 7376TIP3    H146323   7.372   0.856   1.725 -0.8243 -0.3266 -0.4864
 7376TIP3    H246324   7.519   0.833   1.697 -0.3589  1.3002  0.4757
 7377TIP3   OH246325   6.333   4.063   2.165 -0.1541  0.4123  0.5223
 7377TIP3    H146326   6.420   4.086   2.198 -0.4375  1.1738  0.7698
 7377TIP3    H246327   6.342   4.067   2.070  0.5083 -1.1936  0.4830
 7378TIP3   OH246328   5.790   0.243   1.310  0.0146 -0.1487 -0.0380
 7378TIP3    H146329   5.847   0.280   1.243 -1.0832 -0.6744 -1.3080
 7378TIP3    H246330   5.724   0.311   1.326  0.0757 -0.1589  0.2626
 7379TIP3   OH246331   3.565   7.499   1.147  0.2787  0.5524 -0.3480
 7379TIP3    H146332   3.615   7.420   1.132 -0.7162 -0.1969  0.1475
 7379TIP3    H246333   3.496   7.473   1.208 -0.2896  1.7106 -0.4570
 7380TIP3   OH246334   3.874   4.746   0.343  0.0899 -0.0246  0.1398
 7380TIP3    H146335   3.947   4.780   0.395 -0.2162  1.3857 -0.3001
 7380TIP3    H246336   3.905   4.661   0.311  1.0367 -0.0270  0.9952
 7381TIP3   OH246337   0.689   3.824   0.497 -0.4359  0.3010 -0.0418
 7381TIP3    H146338   0.772   3.788   0.466 -0.2196  1.9006 -1.4843
 7381TIP3    H246339   0.627   3.751   0.493  0.0163 -0.0275 -2.6874
 7382TIP3   OH246340   1.331   2.218   0.693 -0.1513  0.7528 -0.8886
 7382TIP3    H146341   1.359   2.309   0.682 -0.7895  1.2656  1.1883
 7382TIP3    H246342   1.265   2.204   0.625  0.8561  1.4005 -2.0455
 7383TIP3   OH246343   7.019   2.435   3.113 -0.4180 -0.1071  0.1085
 7383TIP3    H146344   6.999   2.526   3.137  1.0965  0.2403  0.1371
 7383TIP3    H246345   7.100   2.415   3.160 -0.8508 -1.5580  0.2810
 7384TIP3   OH246346   7.076   3.660   2.167 -0.3211 -0.0714  0.0132
 7384TIP3    H146347   7.113   3.575   2.190 -1.5283 -0.4730  0.5553
 7384TIP3    H246348   7.035   3.646   2.082 -0.0534  0.1275 -0.1525
 7385TIP3   OH246349   2.808   0.287   1.490 -0.2367 -0.0138  0.7254
 7385TIP3    H146350   2.850   0.334   1.561 -0.8231 -2.2765  2.7030
 7385TIP3    H246351   2.880   0.250   1.439  0.2430 -0.7333  1.8733
 7386TIP3   OH246352   3.424   3.196   2.029 -0.0737 -0.1115  0.7802
 7386TIP3    H146353   3.334   3.226   2.026  0.0014  0.0256 -1.0942
 7386TIP3    H246354   3.419   3.101   2.023 -0.0645 -0.0084 -1.5923
 7387TIP3   OH246355   0.880   2.672   0.929 -0.6552  0.2785  0.2209
 7387TIP3    H146356   0.865   2.669   0.834 -1.6913 -1.8364  0.4118
 7387TIP3    H246357   0.879   2.581   0.957 -0.2087  0.8543  2.2725
 7388TIP3   OH246358   2.685   7.019   1.817 -0.1249 -0.5931 -0.2678
 7388TIP3    H146359   2.596   7.024   1.851  0.4325 -1.4595  1.4086
 7388TIP3    H246360   2.701   6.926   1.802  0.8773 -0.5649  0.5420
 7389TIP3   OH246361   6.141   3.648   0.824 -0.8275 -0.3866 -0.2100
 7389TIP3    H146362   6.066   3.695   0.789 -1.1432 -0.1454  0.7582
 7389TIP3    H246363   6.159   3.691   0.907  1.3641  0.5692 -1.1019
 7390TIP3   OH246364   6.119   4.664   1.660 -0.6361  0.3563  0.4501
 7390TIP3    H146365   6.083   4.746   1.625 -1.4702  0.8566  2.3159
 7390TIP3    H246366   6.181   4.692   1.728  1.6779 -0.5483 -1.1562
 7391TIP3   OH246367   4.136   2.106   1.396 -0.2910 -0.1942  0.2792
 7391TIP3    H146368   4.207   2.140   1.342 -0.3979 -2.8024 -1.6787
 7391TIP3    H246369   4.057   2.128   1.348 -0.4625 -1.5779 -0.0955
 7392TIP3   OH246370   2.421   5.338   0.915  0.0921 -0.1194  0.1923
 7392TIP3    H146371   2.393   5.336   0.823  1.5352 -2.2241 -0.2648
 7392TIP3    H246372   2.515   5.321   0.912  0.0996 -0.6550  2.0976
 7393TIP3   OH246373   5.918   1.009   0.730 -0.8355 -0.2916 -0.5049
 7393TIP3    H146374   5.945   0.981   0.818 -0.3570 -3.7091 -1.5779
 7393TIP3    H246375   5.999   1.036   0.687 -0.6908 -0.8979 -0.6172
 7394TIP3   OH246376   7.060   1.040   0.786 -0.3090 -0.4460 -0.1529
 7394TIP3    H146377   7.066   1.073   0.697 -0.3982 -0.5153 -0.1844
 7394TIP3    H246378   7.126   0.971   0.791  0.3096  0.1498  0.0951
 7395TIP3   OH246379   3.214   7.353   1.681 -0.2295 -0.4207  0.3688
 7395TIP3    H146380   3.268   7.289   1.728 -1.4747  0.0744  2.6481
 7395TIP3    H246381   3.149   7.300   1.634 -0.8791 -0.9263  1.7551
 7396TIP3   OH246382   1.883   4.304   1.184  0.5306  0.4664  0.4977
 7396TIP3    H146383   1.789   4.313   1.199  0.1318 -0.1683 -1.2877
 7396TIP3    H246384   1.924   4.359   1.250 -1.0899  0.6928  1.3629
 7397TIP3   OH246385   7.434   4.050   1.066  0.3264 -0.2807  0.8727
 7397TIP3    H146386   7.371   4.103   1.115  0.4384 -1.6371  2.5608
 7397TIP3    H246387   7.382   4.012   0.994  0.0851  1.4560  0.0712
 7398TIP3   OH246388   1.088   2.090   2.118  0.4083 -0.5494  0.1991
 7398TIP3    H146389   1.119   2.077   2.028  0.6177  0.3842  0.1311
 7398TIP3    H246390   0.995   2.113   2.108  0.2760 -1.0447  0.2632
 7399TIP3   OH246391   0.007   3.830   0.818  0.5227 -0.9272  0.3725
 7399TIP3    H146392  -0.059   3.870   0.761  2.4152  1.2596 -0.4629
 7399TIP3    H246393   0.009   3.887   0.895  1.0320 -1.3250  0.6584
 7400TIP3   OH246394   4.034   1.163   1.645 -0.3625 -0.0319  0.2732
 7400TIP3    H146395   3.939   1.162   1.634 -0.4266  0.0504  0.7807
 7400TIP3    H246396   4.069   1.159   1.556 -0.8361 -0.9425  0.1191
 7401TIP3   OH246397   4.431   3.072   1.383  0.1514  0.6846  0.0165
 7401TIP3    H146398   4.489   3.145   1.363 -0.0019  0.6553 -0.5503
 7401TIP3    H246399   4.344   3.103   1.359 -0.2899  1.2342  2.1363
 7402TIP3   OH246400   1.880   2.582   0.699 -0.7431  0.0375  0.1646
 7402TIP3    H146401   1.854   2.540   0.781 -0.4887  0.4266  0.4482
 7402TIP3    H246402   1.918   2.511   0.647  0.2437  0.0251  0.8747
 7403TIP3   OH246403   0.828   7.056   1.379 -0.2326 -0.4282  0.8776
 7403TIP3    H146404   0.869   7.141   1.369 -1.1776 -0.0208  0.2982
 7403TIP3    H246405   0.755   7.057   1.317  0.5644 -2.1858 -0.2014
 7404TIP3   OH246406   0.107   7.368   1.926 -0.0479  0.3539 -0.1736
 7404TIP3    H146407   0.195   7.337   1.947 -0.0451 -0.3675 -1.1317
 7404TIP3    H246408   0.115   7.463   1.919  0.2731  0.4528  1.3996
 7405TIP3   OH246409   4.037   1.115   3.431  0.1557  0.5994  0.1274
 7405TIP3    H146410   4.120   1.070   3.414  0.0065  0.3275  0.1159
 7405TIP3    H246411   4.052   1.204   3.401  0.6871  0.7453  0.7856
 7406TIP3   OH246412   1.971   3.438   1.383 -0.2815  0.2577  0.6837
 7406TIP3    H146413   1.971   3.530   1.407 -1.3212  0.1839  0.9970
 7406TIP3    H246414   1.931   3.393   1.457 -0.3343 -0.3752  0.2811
 7407TIP3   OH246415   2.758   7.662   1.555 -0.0926  0.0897 -0.6423
 7407TIP3    H146416   2.734   7.755   1.554  1.1791  0.4404 -0.4895
 7407TIP3    H246417   2.815   7.651   1.478  0.4608 -0.3533 -0.1811
 7408TIP3   OH246418   5.503   1.269   1.901 -0.2146  0.3590  0.1287
 7408TIP3    H146419   5.423   1.244   1.854 -0.7882  1.3004  0.5799
 7408TIP3    H246420   5.512   1.363   1.886  2.2089 -0.1236 -1.9892
 7409TIP3   OH246421   2.271   3.061   2.633  0.3998  0.0870 -0.2161
 7409TIP3    H146422   2.230   3.052   2.547 -1.5301  1.1279  0.5429
 7409TIP3    H246423   2.255   2.978   2.677  0.1719  0.0521 -0.3663
 7410TIP3   OH246424   1.361   6.522   1.407 -0.2816 -0.1180  0.4264
 7410TIP3    H146425   1.424   6.581   1.365  0.7839 -2.5319 -1.6068
 7410TIP3    H246426   1.400   6.501   1.492  0.8738 -0.2971 -0.1376
 7411TIP3   OH246427   0.626   6.660   0.865 -0.2572  0.4580 -0.3592
 7411TIP3    H146428   0.692   6.616   0.811 -0.1844 -0.1640  0.2181
 7411TIP3    H246429   0.611   6.743   0.821 -2.2304 -1.1049 -2.9253
 7412TIP3   OH246430   7.505   4.703   0.356  0.3851  0.0543 -0.3870
 7412TIP3    H146431   7.582   4.674   0.307  1.6612  1.4345  0.7096
 7412TIP3    H246432   7.519   4.796   0.370 -1.2602  0.2349  0.2806
 7413TIP3   OH246433   1.501   5.182   2.519  0.1931  0.1680  0.0724
 7413TIP3    H146434   1.515   5.115   2.452  0.0769 -0.3500  0.5472
 7413TIP3    H246435   1.409   5.206   2.510 -0.4088 -1.4026  1.3398
 7414TIP3   OH246436   0.680   6.993   1.801  0.2351  0.4031  0.0182
 7414TIP3    H146437   0.642   7.019   1.885  1.5778  2.0653  0.1653
 7414TIP3    H246438   0.616   6.932   1.764 -0.6824  0.1065  1.9560
 7415TIP3   OH246439   4.567   5.802   2.910  0.4311 -0.1599  0.2057
 7415TIP3    H146440   4.601   5.825   2.824  0.0836 -0.4004  0.0032
 7415TIP3    H246441   4.638   5.825   2.971  0.6177  0.1473 -0.1262
 7416TIP3   OH246442   1.505   6.765   1.124  0.3404 -0.1412  0.9678
 7416TIP3    H146443   1.455   6.841   1.153 -0.3800 -1.0241  2.1435
 7416TIP3    H246444   1.445   6.691   1.134  0.5095 -0.7165 -1.5477
 7417TIP3   OH246445   2.906   5.837   1.107 -0.2000 -0.1085  0.1754
 7417TIP3    H146446   2.876   5.877   1.025 -1.9441 -1.1205  0.2647
 7417TIP3    H246447   3.001   5.831   1.097 -0.1594  1.6322 -0.8967
 7418TIP3   OH246448   4.759   7.340   1.533 -0.3692 -0.5807 -0.3853
 7418TIP3    H146449   4.709   7.402   1.585 -0.2188 -1.0142  0.2814
 7418TIP3    H246450   4.851   7.361   1.552 -0.2802 -0.0806 -1.2625
 7419TIP3   OH246451   2.915   7.565   2.245 -0.6052  0.5354 -0.0047
 7419TIP3    H146452   2.938   7.486   2.196  2.6665  0.3546  1.5958
 7419TIP3    H246453   2.898   7.534   2.334 -0.1927  1.5326  0.4318
 7420TIP3   OH246454   5.163   4.597   2.177 -0.6502  0.2527 -0.3382
 7420TIP3    H146455   5.251   4.615   2.209 -1.1008  0.3608  0.8871
 7420TIP3    H246456   5.148   4.505   2.198 -1.2727  0.5519  0.5714
 7421TIP3   OH246457   4.647   1.576   0.900 -0.5940  0.0561  0.2804
 7421TIP3    H146458   4.663   1.622   0.983  0.0015 -1.9335  1.3421
 7421TIP3    H246459   4.693   1.629   0.834  0.7834  0.5336  1.5593
 7422TIP3   OH246460   7.104   5.368   1.413 -0.4868 -0.2573  0.1447
 7422TIP3    H146461   7.032   5.415   1.372  0.6385 -0.4102 -2.1995
 7422TIP3    H246462   7.074   5.278   1.419 -0.6762 -0.2278 -0.3451
 7423TIP3   OH246463   3.561   4.446   0.555 -0.0631  0.4298 -0.2706
 7423TIP3    H146464   3.526   4.360   0.531  1.2578  0.2559 -1.7140
 7423TIP3    H246465   3.656   4.435   0.555  0.1017  1.5072  1.1115
 7424TIP3   OH246466   3.944   5.792   0.731  0.1922 -0.0830  0.3339
 7424TIP3    H146467   3.904   5.871   0.768 -0.7248 -0.1694 -0.4188
 7424TIP3    H246468   3.903   5.783   0.645  0.0923 -1.5066  0.5033
 7425TIP3   OH246469   3.110   2.176   1.501 -0.1106  0.4376 -0.0931
 7425TIP3    H146470   3.163   2.109   1.458 -0.7545 -0.1723  0.0492
 7425TIP3    H246471   3.062   2.218   1.431  0.3427  0.8031 -0.1901
 7426TIP3   OH246472   1.733   1.574   1.154  0.0671  0.2724 -0.0283
 7426TIP3    H146473   1.781   1.508   1.204  0.4911 -0.5612 -1.4736
 7426TIP3    H246474   1.651   1.531   1.131  1.5022 -0.9900 -3.4856
 7427TIP3   OH246475   4.374   3.201   2.330 -0.1973 -0.1248 -0.0130
 7427TIP3    H146476   4.441   3.137   2.305  0.0263 -0.0446  0.3809
 7427TIP3    H246477   4.420   3.285   2.329 -0.4658  0.0182 -0.4288
 7428TIP3   OH246478   1.107   6.517   3.080 -0.2369  0.0749  0.1163
 7428TIP3    H146479   1.131   6.575   3.152  0.9152 -0.3995  0.1311
 7428TIP3    H246480   1.190   6.495   3.038 -0.8103 -0.3676 -0.8050
 7429TIP3   OH246481   6.459   1.394   2.057  0.5106  0.0979 -0.1210
 7429TIP3    H146482   6.524   1.462   2.076  0.4170  0.5043 -1.1739
 7429TIP3    H246483   6.484   1.360   1.972  0.8515 -1.5765  0.6191
 7430TIP3   OH246484   0.681   4.791   3.414  0.4761 -0.2450  0.3862
 7430TIP3    H146485   0.704   4.699   3.403  1.3130 -0.0552  0.4834
 7430TIP3    H246486   0.751   4.827   3.468 -0.6267  0.1163  1.6575
 7431TIP3   OH246487   4.849   4.428   1.655 -0.0711 -0.0598 -0.5231
 7431TIP3    H146488   4.929   4.420   1.603  0.0022  1.3140 -0.6715
 7431TIP3    H246489   4.872   4.392   1.740  1.7856  3.1042  0.4741
 7432TIP3   OH246490   2.837   3.058   2.160  0.4026 -0.0220  0.0671
 7432TIP3    H146491   2.762   3.086   2.212  1.4332 -1.1281  2.2515
 7432TIP3    H246492   2.803   2.989   2.103 -0.4144  0.0917  0.4131
 7433TIP3   OH246493   1.409   2.752   2.133 -0.3341 -0.0332  0.0558
 7433TIP3    H146494   1.497   2.774   2.162  0.0363  1.1836 -1.7885
 7433TIP3    H246495   1.370   2.703   2.206  2.6056 -2.5893  0.1097
 7434TIP3   OH246496   4.875   4.587   1.098 -0.0818 -0.1208 -0.0476
 7434TIP3    H146497   4.899   4.629   1.181 -0.8246 -0.2987  0.2656
 7434TIP3    H246498   4.933   4.627   1.034  0.0383  0.5193  0.4447
 7435TIP3   OH246499   3.340   5.516   0.774  0.2998 -0.3769 -0.5860
 7435TIP3    H146500   3.410   5.548   0.832  0.8394 -0.5219 -1.1549
 7435TIP3    H246501   3.380   5.445   0.725 -0.3429 -0.6606 -0.7005
 7436TIP3   OH246502   1.412   2.988   3.019  0.4612  0.1259  0.4297
 7436TIP3    H146503   1.507   2.978   3.020  0.4568 -0.0140 -0.2426
 7436TIP3    H246504   1.380   2.920   3.079  0.7633 -0.0826  0.3542
 7437TIP3   OH246505   2.483   3.428   2.023 -0.3648 -0.2023  0.6314
 7437TIP3    H146506   2.390   3.451   2.024  0.1229  2.0228  0.1827
 7437TIP3    H246507   2.501   3.405   1.932 -0.1641  0.8305  0.4060
 7438TIP3   OH246508   3.914   2.189   1.226  0.1735  0.6381  0.4389
 7438TIP3    H146509   3.859   2.261   1.256  0.6005  0.3924  1.8817
 7438TIP3    H246510   3.851   2.121   1.200 -0.2695  0.3340  2.1289
 7439TIP3   OH246511   2.721   2.848   3.836 -0.3977  0.2322 -0.1360
 7439TIP3    H146512   2.671   2.909   3.782  1.5363  3.2829  1.2417
 7439TIP3    H246513   2.661   2.824   3.906 -1.5680 -0.4745 -1.3176
 7440TIP3   OH246514   6.776   5.799   1.450  0.5715  0.2914 -0.0933
 7440TIP3    H146515   6.839   5.863   1.416  1.5452 -0.4670  0.2382
 7440TIP3    H246516   6.754   5.831   1.538  1.2072  0.0665  0.1494
 7441TIP3   OH246517   0.983   4.166   2.244  0.3723 -0.0894  0.0828
 7441TIP3    H146518   1.005   4.109   2.170  1.6880  1.5810 -0.8888
 7441TIP3    H246519   1.067   4.185   2.286 -0.0320  1.0231  0.4372
 7442TIP3   OH246520   4.656   6.337   2.129 -0.3130  0.2619 -0.2496
 7442TIP3    H146521   4.695   6.380   2.205 -1.9934  2.0424 -0.3021
 7442TIP3    H246522   4.722   6.275   2.100  1.3981  1.3322  1.1462
 7443TIP3   OH246523   3.309   6.453   1.066  0.2491 -0.1427 -0.3064
 7443TIP3    H146524   3.356   6.502   1.134  0.9766 -0.8184 -0.2986
 7443TIP3    H246525   3.379   6.414   1.014 -0.3155 -0.8669 -0.5262
 7444TIP3   OH246526   1.049   7.411   0.425  0.2573  0.0097 -0.1117
 7444TIP3    H146527   1.071   7.366   0.506  1.5512 -0.5004 -0.7296
 7444TIP3    H246528   0.957   7.389   0.410 -0.0028  0.1271  1.2108
 7445TIP3   OH246529   5.936   2.568   0.720  0.0148 -0.2632 -0.1095
 7445TIP3    H146530   5.994   2.641   0.743  1.0973 -0.9125 -0.7015
 7445TIP3    H246531   5.974   2.492   0.765  1.0238 -1.1665 -2.3216
 7446TIP3   OH246532   3.223   7.618   1.656  0.2548 -0.3481 -0.2789
 7446TIP3    H146533   3.222   7.522   1.658  0.7572 -0.3490  0.2604
 7446TIP3    H246534   3.315   7.640   1.638  0.0426  0.0309 -0.9597
 7447TIP3   OH246535   0.884   0.486   2.447  0.1070 -0.1720  0.8583
 7447TIP3    H146536   0.928   0.509   2.365 -2.9891  0.9290 -0.6701
 7447TIP3    H246537   0.868   0.392   2.441 -1.3433  0.1248 -0.5640
 7448TIP3   OH246538   5.024   0.854   2.169 -0.2792  0.3059 -0.0494
 7448TIP3    H146539   5.113   0.888   2.171 -0.5195  0.9304  0.4057
 7448TIP3    H246540   5.008   0.831   2.078  0.5072 -0.2550 -0.0531
 7449TIP3   OH246541   0.609   5.119   0.954 -0.3452  0.4756  0.0818
 7449TIP3    H146542   0.569   5.206   0.954 -0.5579  0.3767  0.2862
 7449TIP3    H246543   0.682   5.126   1.015 -0.0218  0.6655 -0.3172
 7450TIP3   OH246544   0.918   5.598   1.018  0.1190  0.0485 -0.2503
 7450TIP3    H146545   0.839   5.645   1.045 -0.5684 -2.3929  2.5646
 7450TIP3    H246546   0.892   5.551   0.938 -1.5059 -1.0384  0.8507
 7451TIP3   OH246547   1.326   5.374   1.312  0.1268  0.3214 -0.4752
 7451TIP3    H146548   1.327   5.341   1.222 -0.2672  1.2641 -0.8409
 7451TIP3    H246549   1.414   5.408   1.326  0.3543 -0.3298 -0.3059
 7452TIP3   OH246550   5.026   6.946   0.771  0.2718  0.1241 -0.8938
 7452TIP3    H146551   5.024   6.854   0.797 -0.8648  0.4244  0.1431
 7452TIP3    H246552   4.953   6.956   0.710 -0.3419  0.5880 -0.0981
 7453TIP3   OH246553   5.329   1.587   1.165  0.0907 -0.1404 -0.0858
 7453TIP3    H146554   5.389   1.648   1.123 -0.5729 -0.6903 -1.9239
 7453TIP3    H246555   5.246   1.634   1.171  0.2666  0.0613  0.9913
 7454TIP3   OH246556   7.023   0.856   0.538 -0.1808  0.2120  0.7232
 7454TIP3    H146557   7.091   0.799   0.574  1.4998  0.9157 -1.1540
 7454TIP3    H246558   6.966   0.876   0.612  1.4171 -0.7409  2.2776
 7455TIP3   OH246559   6.551   3.582   1.855 -0.4038  0.3133  0.2287
 7455TIP3    H146560   6.528   3.631   1.934 -0.2928  0.2966  0.2707
 7455TIP3    H246561   6.551   3.491   1.882  0.5662  0.3706  0.4372
 7456TIP3   OH246562   2.948   4.956   3.073  0.1114 -0.7052  0.2468
 7456TIP3    H146563   2.928   5.047   3.052  0.5244 -0.8578 -0.8659
 7456TIP3    H246564   3.021   4.961   3.135 -1.8050 -0.2135  2.6175
 7457TIP3   OH246565   3.436   0.959   1.292  0.1745 -0.0366 -0.3114
 7457TIP3    H146566   3.410   1.051   1.300  1.4795  0.4215 -1.1024
 7457TIP3    H246567   3.479   0.953   1.207 -1.1300 -1.7060 -0.9298
 7458TIP3   OH246568   6.596   3.610   2.856 -0.4069 -0.1062 -0.9312
 7458TIP3    H146569   6.611   3.581   2.946 -1.2346  1.1837 -0.3530
 7458TIP3    H246570   6.622   3.535   2.803  1.3653 -0.4462  0.2975
 7459TIP3   OH246571   0.892   4.477   1.977 -0.3715 -0.3062 -0.3405
 7459TIP3    H146572   0.879   4.395   2.024  1.3447  0.1016  0.9180
 7459TIP3    H246573   0.925   4.450   1.891 -1.7276 -0.9766 -0.6827
 7460TIP3   OH246574   0.925   2.923   3.082 -0.8317  1.1917  0.0683
 7460TIP3    H146575   1.004   2.966   3.114 -0.9073  1.3199  0.0818
 7460TIP3    H246576   0.931   2.930   2.986 -0.1475  0.0029  0.0058
 7461TIP3   OH246577   7.049   3.736   0.804  0.5725  0.5543 -0.2692
 7461TIP3    H146578   6.999   3.817   0.817  1.6012  0.9782  1.2671
 7461TIP3    H246579   6.982   3.670   0.784 -0.3817  1.5571 -0.4992
 7462TIP3   OH246580   4.887   4.492   0.616  0.5156  0.2515 -0.1245
 7462TIP3    H146581   4.830   4.490   0.692  2.6141 -0.2039  1.5309
 7462TIP3    H246582   4.854   4.564   0.563 -2.3348 -0.7832  0.0645
 7463TIP3   OH246583   3.541   7.478   2.400  0.4636  0.2029  0.6599
 7463TIP3    H146584   3.568   7.535   2.471  0.5825  0.1463  0.6610
 7463TIP3    H246585   3.474   7.422   2.439  2.1530 -1.4227  1.4136
 7464TIP3   OH246586   5.356   4.176   0.965  0.3243  0.0477  0.4852
 7464TIP3    H146587   5.326   4.262   0.996 -0.3241  0.0494 -0.1232
 7464TIP3    H246588   5.321   4.115   1.030 -0.3002  0.1302  0.2326
 7465TIP3   OH246589   0.624   3.945   1.468  1.0035 -0.1132  0.0174
 7465TIP3    H146590   0.572   3.946   1.389  2.3596 -0.5218 -0.9219
 7465TIP3    H246591   0.678   4.024   1.463  0.8342  0.0548  0.7234
 7466TIP3   OH246592   5.960   6.920   1.460  0.5747  0.3652  0.2900
 7466TIP3    H146593   5.873   6.884   1.481  2.2561 -2.9449  2.5953
 7466TIP3    H246594   5.969   6.996   1.518  0.0562 -0.7351  1.8916
 7467TIP3   OH246595   6.278   7.229   0.852 -0.4590 -0.1882 -0.0605
 7467TIP3    H146596   6.359   7.179   0.853  1.1915  2.2563 -1.8926
 7467TIP3    H246597   6.284   7.286   0.929 -0.5616 -0.1768 -0.0607
 7468TIP3   OH246598   4.189   0.113   2.445 -0.1356 -0.2680 -0.1353
 7468TIP3    H146599   4.113   0.165   2.421  0.2789  0.5697  0.3218
 7468TIP3    H246600   4.222   0.079   2.362 -0.9727 -0.5987 -0.3402
 7469TIP3   OH246601   6.105   6.319   1.440  0.1236  0.9186  0.1007
 7469TIP3    H146602   6.109   6.407   1.477  0.1584  0.5124  1.0920
 7469TIP3    H246603   6.050   6.328   1.362 -0.7108  1.6315  0.7557
 7470TIP3   OH246604   1.905   6.609   2.221 -0.2387 -0.4552  0.4031
 7470TIP3    H146605   1.978   6.670   2.212 -0.9738  0.4010  0.1692
 7470TIP3    H246606   1.947   6.523   2.221  0.7364 -0.0029 -0.0915
 7471TIP3   OH246607   0.850   6.802   1.333  0.0165  0.7786 -0.6097
 7471TIP3    H146608   0.846   6.893   1.363 -1.7991  0.3893  0.5579
 7471TIP3    H246609   0.804   6.802   1.249 -2.2296  0.6103  0.5401
 7472TIP3   OH246610   4.423   5.308   2.899  0.0855  0.1971  0.4717
 7472TIP3    H146611   4.365   5.276   2.968 -0.3616  0.8988  0.4323
 7472TIP3    H246612   4.476   5.376   2.941 -0.4580  0.9059  0.0490
 7473TIP3   OH246613   2.836   3.038   1.605 -0.0286  0.2379 -0.0033
 7473TIP3    H146614   2.845   2.972   1.536 -1.1649 -0.2379  0.2938
 7473TIP3    H246615   2.773   3.001   1.666 -0.2543  1.3570  0.4657
 7474TIP3   OH246616   7.306   5.818   3.341  0.2096  0.0650 -0.5385
 7474TIP3    H146617   7.331   5.748   3.401 -1.4037 -0.4243 -0.3697
 7474TIP3    H246618   7.383   5.833   3.287  0.8364 -1.3323 -0.0786
 7475TIP3   OH246619   3.034   1.534   1.339  0.1275  0.1627  0.0888
 7475TIP3    H146620   3.033   1.458   1.280  3.7019 -0.7462  0.9456
 7475TIP3    H246621   3.024   1.609   1.281 -1.1010 -0.8431 -1.0786
 7476TIP3   OH246622   3.890   3.513   0.834  0.0048 -0.2842  0.1397
 7476TIP3    H146623   3.960   3.523   0.770 -0.5703 -1.1425 -0.6429
 7476TIP3    H246624   3.898   3.422   0.864 -1.1580 -0.5980 -0.4383
 7477TIP3   OH246625   1.375   6.866   1.562  0.3235 -0.5083 -0.0025
 7477TIP3    H146626   1.378   6.960   1.542 -1.9002  0.1588  2.3436
 7477TIP3    H246627   1.466   6.842   1.579  0.9641  1.1444 -0.9086
 7478TIP3   OH246628   4.335   7.315   1.012 -0.4254  0.0407 -0.2212
 7478TIP3    H146629   4.390   7.251   0.968  1.3137  1.4665 -0.2024
 7478TIP3    H246630   4.329   7.388   0.952 -0.0113  1.0216  0.8873
 7479TIP3   OH246631   6.091   2.069   9.504  0.1675  0.1548  0.2409
 7479TIP3    H146632   6.096   2.041   9.413 -0.8909 -0.2424  0.2886
 7479TIP3    H246633   6.182   2.072   9.534  0.6859  2.1224 -1.3521
 7480TIP3   OH246634   7.204   6.011   2.512  0.2374  0.0980  0.1045
 7480TIP3    H146635   7.163   5.924   2.518  1.2784 -0.6627 -2.4040
 7480TIP3    H246636   7.130   6.072   2.510 -0.6342 -0.9557 -0.7141
 7481TIP3   OH246637   7.005   2.605   2.149 -0.6164 -0.3513  0.2047
 7481TIP3    H146638   7.063   2.529   2.155 -1.0053 -0.6554  0.2123
 7481TIP3    H246639   7.063   2.680   2.144 -0.2312 -0.5692  1.2836
 7482TIP3   OH246640   0.285   5.275   2.127 -0.2093 -0.0799 -0.0349
 7482TIP3    H146641   0.214   5.213   2.107  0.8552 -1.1601 -0.5973
 7482TIP3    H246642   0.241   5.348   2.170 -1.3432 -1.7815  1.8476
 7483TIP3   OH246643   6.561   2.393   1.576  0.4763 -0.3854 -0.6715
 7483TIP3    H146644   6.612   2.337   1.518 -0.5666 -1.0319 -0.9993
 7483TIP3    H246645   6.494   2.431   1.519  0.7948  0.7402 -0.3309
 7484TIP3   OH246646   7.358   3.136   0.962  0.1966  0.2583  0.5644
 7484TIP3    H146647   7.317   3.066   0.911  1.3879 -0.6404  0.7729
 7484TIP3    H246648   7.285   3.179   1.007 -0.7368  0.2483 -0.8683
 7485TIP3   OH246649   7.373   4.333   0.985  0.2331  0.1958  0.1110
 7485TIP3    H146650   7.448   4.379   0.947  0.0651 -0.8778 -1.6755
 7485TIP3    H246651   7.390   4.331   1.079  1.3700  1.8175 -0.0172
 7486TIP3   OH246652   7.129   3.409   0.835 -0.8887 -0.2484 -0.0101
 7486TIP3    H146653   7.055   3.362   0.798 -0.2144 -1.6689  0.3781
 7486TIP3    H246654   7.104   3.427   0.925 -0.2031 -2.1031  0.5973
 7487TIP3   OH246655   2.498   5.060   1.903 -0.1214  0.1047  0.7383
 7487TIP3    H146656   2.510   5.114   1.824  0.7951  1.5307  1.7918
 7487TIP3    H246657   2.418   5.011   1.887  0.1370  0.2277 -1.1510
 7488TIP3   OH246658   6.264   7.002   2.297 -0.2531  0.5108  0.3178
 7488TIP3    H146659   6.309   6.926   2.261 -1.4484  0.2328 -0.6748
 7488TIP3    H246660   6.216   6.969   2.373  0.7029  0.6852  1.0152
 7489TIP3   OH246661   1.302   2.733   3.133  0.0188 -0.1214  0.3494
 7489TIP3    H146662   1.219   2.707   3.173  0.1531 -1.1382 -0.0108
 7489TIP3    H246663   1.348   2.651   3.117  0.9676  0.4155  0.2651
 7490TIP3   OH246664   0.706   4.158   2.326  0.6450  0.3116 -0.2371
 7490TIP3    H146665   0.765   4.175   2.253  0.2013 -0.0888 -0.6956
 7490TIP3    H246666   0.653   4.083   2.297 -0.3301  0.8909  0.0147
 7491TIP3   OH246667   1.062   4.634   1.389  0.4585 -0.4345  0.3208
 7491TIP3    H146668   1.099   4.668   1.470 -0.7081 -0.6359  0.9592
 7491TIP3    H246669   1.133   4.584   1.349  0.4239 -2.2566  2.3510
 7492TIP3   OH246670   7.476   4.686   1.561 -0.2850 -0.5802 -0.2539
 7492TIP3    H146671   7.437   4.610   1.605  2.2026 -2.4824 -1.1010
 7492TIP3    H246672   7.524   4.731   1.631  0.3313 -1.2866 -0.2034
 7493TIP3   OH246673   6.772   5.013   1.914 -0.2969 -0.1133  0.4509
 7493TIP3    H146674   6.770   4.941   1.852 -0.7510 -0.5823  1.0037
 7493TIP3    H246675   6.735   4.978   1.994 -1.5894  1.0415  0.3978
 7494TIP3   OH246676   3.259   3.495   1.415  0.3814 -0.2454 -0.4552
 7494TIP3    H146677   3.228   3.404   1.419 -2.4975  0.6520 -0.1961
 7494TIP3    H246678   3.325   3.494   1.345  0.6059 -2.5607 -0.3024
 7495TIP3   OH246679   4.421   0.892   0.738  0.2901 -0.0070 -0.4777
 7495TIP3    H146680   4.462   0.972   0.706 -0.1961  0.6451  0.4861
 7495TIP3    H246681   4.344   0.922   0.786  1.4401 -0.8395  2.0587
 7496TIP3   OH246682   6.556   4.006   2.598  0.1740  0.4461 -0.2560
 7496TIP3    H146683   6.476   4.057   2.614  0.5011  0.5789  1.0109
 7496TIP3    H246684   6.530   3.916   2.615  1.0884  0.7622  3.7255
 7497TIP3   OH246685   3.952   1.900   0.798  0.3043 -0.0479  0.2845
 7497TIP3    H146686   3.974   1.872   0.887  1.3878  1.0496  0.3723
 7497TIP3    H246687   3.957   1.995   0.800  0.2781 -0.0056 -0.9451
 7498TIP3   OH246688   2.963   0.950   2.144  0.4990  0.6687  0.5108
 7498TIP3    H146689   3.046   0.903   2.132  0.3840  0.7633 -0.8078
 7498TIP3    H246690   2.973   1.029   2.091 -0.8260  0.1616 -0.5480
 7499TIP3   OH246691   3.457   2.958   1.326  0.1194 -0.0233 -0.5335
 7499TIP3    H146692   3.432   2.961   1.419  1.2713 -2.0645 -0.1053
 7499TIP3    H246693   3.546   2.993   1.324  0.9269 -1.9363 -0.4774
 7500TIP3   OH246694   0.546   3.831   2.016  0.0280  0.4730  0.3533
 7500TIP3    H146695   0.591   3.848   2.098 -1.4179  0.0990  1.2515
 7500TIP3    H246696   0.494   3.752   2.032 -1.0954  0.9872 -0.5670
 7501TIP3   OH246697   1.262   5.419   0.647  0.1387  0.0745 -0.5200
 7501TIP3    H146698   1.322   5.493   0.638  1.6208 -1.0633 -0.4862
 7501TIP3    H246699   1.224   5.430   0.734  1.2118  0.2139 -0.0452
 7502TIP3   OH246700   6.817   3.432   1.918  0.6369  0.0418 -0.3699
 7502TIP3    H146701   6.748   3.381   1.875 -0.5572  0.3210  1.0987
 7502TIP3    H246702   6.771   3.478   1.989  2.1042  1.3455 -0.2212
 7503TIP3   OH246703   6.170   2.759   0.691 -0.4186 -0.9315 -0.0058
 7503TIP3    H146704   6.237   2.792   0.750 -2.6492  0.8142  1.7680
 7503TIP3    H246705   6.218   2.728   0.614  2.3128  1.3266  0.6348
 7504TIP3   OH246706   5.250   6.228   2.823  0.1213  0.2532  0.0279
 7504TIP3    H146707   5.315   6.276   2.772  0.7963  1.7885  2.1994
 7504TIP3    H246708   5.166   6.264   2.795  0.3925  0.3885 -0.6427
 7505TIP3   OH246709   5.435   4.185   3.096  0.2688  0.0122  0.2486
 7505TIP3    H146710   5.393   4.241   3.162  1.0287 -0.1678  0.9032
 7505TIP3    H246711   5.528   4.189   3.117  0.5402  0.0961 -0.9503
 7506TIP3   OH246712   6.480   3.738   2.075 -0.2510 -0.1822 -0.2568
 7506TIP3    H146713   6.572   3.762   2.064 -0.2973 -0.1637 -0.5871
 7506TIP3    H246714   6.448   3.798   2.143  0.0794 -0.4412  0.1370
 7507TIP3   OH246715   0.598   6.288   0.859 -0.1092 -0.1658 -0.0529
 7507TIP3    H146716   0.555   6.350   0.918  1.3722  0.2198  0.6744
 7507TIP3    H246717   0.537   6.213   0.855 -1.5848  1.0025 -0.3920
 7508TIP3   OH246718   3.344   4.601   0.540 -0.0389 -0.2697 -0.3921
 7508TIP3    H146719   3.437   4.579   0.538  0.4276  1.5482 -0.4400
 7508TIP3    H246720   3.299   4.518   0.525  1.5588 -1.2337 -0.0407
 7509TIP3   OH246721   2.203   3.856   2.292  0.5050  0.3960 -0.6931
 7509TIP3    H146722   2.148   3.778   2.281 -0.2428  0.3961  2.2180
 7509TIP3    H246723   2.173   3.916   2.223 -1.6086 -0.4691 -0.6196
 7510TIP3   OH246724   0.733   6.120   2.469 -0.5007  0.8249 -0.3353
 7510TIP3    H146725   0.678   6.111   2.546  1.3338 -0.6251  0.9013
 7510TIP3    H246726   0.776   6.205   2.479  0.8423  0.0392  1.0992
 7511TIP3   OH246727   1.743   1.332   2.487  0.3419  0.2974 -0.0248
 7511TIP3    H146728   1.686   1.402   2.518  0.8325  1.0443 -0.7668
 7511TIP3    H246729   1.713   1.254   2.534 -0.5218  0.9049  0.4602
 7512TIP3   OH246730   5.312   2.235   1.601 -0.1751  0.1909 -0.0879
 7512TIP3    H146731   5.223   2.232   1.565 -0.2545  1.2225 -0.0013
 7512TIP3    H246732   5.300   2.264   1.691 -0.0030 -2.6207  0.9345
 7513TIP3   OH246733   1.896   4.267   3.067  0.1178  0.1167  0.6957
 7513TIP3    H146734   1.821   4.325   3.084 -0.6740 -1.1387  1.6494
 7513TIP3    H246735   1.864   4.180   3.088  1.3050 -0.6891 -0.6471
 7514TIP3   OH246736   0.670   5.863   2.910  0.2197  0.2393  0.4028
 7514TIP3    H146737   0.726   5.941   2.911  0.3692  0.1520 -0.5503
 7514TIP3    H246738   0.651   5.846   3.003  2.6762 -0.3682  0.8707
 7515TIP3   OH246739   1.617   5.607   3.116 -0.4257  0.7842  0.5758
 7515TIP3    H146740   1.685   5.591   3.051 -1.2443  2.5180 -0.8268
 7515TIP3    H246741   1.643   5.689   3.158 -0.9181  0.7093  1.0384
 7516TIP3   OH246742   4.400   2.208   2.229 -0.8305 -0.3992  0.0902
 7516TIP3    H146743   4.429   2.129   2.183 -1.2896 -0.9706  0.7624
 7516TIP3    H246744   4.480   2.256   2.247 -0.4691 -1.0500  0.2717
 7517TIP3   OH246745   3.593   4.258   0.822  0.1819  0.0676  0.0501
 7517TIP3    H146746   3.581   4.204   0.900  0.9914  0.1796  0.2591
 7517TIP3    H246747   3.506   4.264   0.783 -0.2889  0.2652  1.1158
 7518TIP3   OH246748   5.350   5.220   0.733  0.0758 -0.4859  0.3704
 7518TIP3    H146749   5.255   5.230   0.724  0.1704  0.6982  0.5218
 7518TIP3    H246750   5.364   5.125   0.737 -1.0603 -0.6844 -0.0317
 7519TIP3   OH246751   3.183   4.011   0.647 -0.3422 -0.1387  0.0665
 7519TIP3    H146752   3.214   4.080   0.587 -0.2786 -0.5898 -0.4237
 7519TIP3    H246753   3.088   4.021   0.648 -0.3640 -0.2807 -0.3012
 7520TIP3   OH246754   0.396   3.680   1.491 -0.5546  0.2236 -0.7222
 7520TIP3    H146755   0.448   3.709   1.566 -0.0513 -2.2157 -0.0119
 7520TIP3    H246756   0.310   3.659   1.528 -0.9123  0.8095 -1.2079
 7521TIP3   OH246757   3.122   2.101   2.048  0.2219 -0.5292  0.2127
 7521TIP3    H146758   3.070   2.175   2.078 -0.2206 -1.2568  1.2823
 7521TIP3    H246759   3.190   2.140   1.992  0.3508  0.7387  1.2190
 7522TIP3   OH246760   1.159   2.386   2.203 -0.3015  0.2231 -0.0042
 7522TIP3    H146761   1.130   2.402   2.113 -0.0961  3.1594  0.3492
 7522TIP3    H246762   1.215   2.309   2.197  0.6422  1.0121 -2.6009
 7523TIP3   OH246763   4.052   3.050   1.980  0.1673  0.2421  0.1502
 7523TIP3    H146764   4.061   2.974   2.038  1.4572 -0.5473 -1.0384
 7523TIP3    H246765   4.069   3.016   1.892  0.3574  1.8272 -0.4640
 7524TIP3   OH246766   2.886   6.879   0.697 -0.1066  0.2149 -0.7429
 7524TIP3    H146767   2.872   6.946   0.630  0.2596  1.6860  0.5866
 7524TIP3    H246768   2.948   6.818   0.658 -1.1765  0.0747 -2.3408
 7525TIP3   OH246769   2.479   2.949   1.101  0.2557 -0.2563  0.1315
 7525TIP3    H146770   2.439   2.943   1.014 -1.2900 -0.8071  0.8508
 7525TIP3    H246771   2.570   2.973   1.083  0.1519 -1.0239 -1.6717
 7526TIP3   OH246772   6.324   3.390   2.758 -0.0607  0.3709 -0.5945
 7526TIP3    H146773   6.390   3.330   2.794  1.2807  2.0335 -0.1791
 7526TIP3    H246774   6.253   3.332   2.731  1.1091 -1.4070 -0.1021
 7527TIP3   OH246775   0.120   4.779   1.890 -0.6930 -0.0107 -0.1710
 7527TIP3    H146776   0.116   4.736   1.975 -2.9776 -0.1223 -0.2626
 7527TIP3    H246777   0.192   4.735   1.844  0.0882 -0.4570  1.3967
 7528TIP3   OH246778   4.329   6.828   1.973  0.1449  0.3983  0.5025
 7528TIP3    H146779   4.282   6.746   1.990 -0.6856  0.4528 -1.3662
 7528TIP3    H246780   4.364   6.819   1.885 -0.0685  2.0969  0.2062
 7529TIP3   OH246781   0.584   3.711   0.903 -0.8715  0.0804 -0.2971
 7529TIP3    H146782   0.613   3.742   0.989 -0.8102  1.0803 -0.6656
 7529TIP3    H246783   0.596   3.616   0.906 -3.0755 -0.2236  1.6286
 7530TIP3   OH246784   7.143   2.027   1.978  0.2383 -0.3045 -0.7859
 7530TIP3    H146785   7.119   1.935   1.994 -2.2865  0.3447 -0.5136
 7530TIP3    H246786   7.194   2.052   2.055  0.0008 -1.1655 -0.3354
 7531TIP3   OH246787   4.309   7.560   1.140 -0.2979 -0.1394 -0.5960
 7531TIP3    H146788   4.337   7.617   1.068  0.6808  0.1712  0.0135
 7531TIP3    H246789   4.308   7.472   1.102 -1.3502  0.2106 -1.4154
 7532TIP3   OH246790   5.795   0.487   0.627  0.1868 -0.2316 -0.0772
 7532TIP3    H146791   5.769   0.471   0.537  1.1310 -0.5237 -0.3159
 7532TIP3    H246792   5.767   0.409   0.675 -0.7314  0.1283 -0.0215
 7533TIP3   OH246793   7.438   2.544   2.939  0.4376 -0.0535  0.1203
 7533TIP3    H146794   7.478   2.568   3.023 -1.0180  1.0151  0.5364
 7533TIP3    H246795   7.481   2.461   2.916  1.5978  0.1463  1.4063
 7534TIP3   OH246796   2.829   2.922   1.893 -0.3304  0.7763 -0.8214
 7534TIP3    H146797   2.829   2.839   1.941 -1.5064  1.2672  0.0725
 7534TIP3    H246798   2.763   2.910   1.825  0.3471  0.5746 -1.4570
 7535TIP3   OH246799   1.900   1.846   1.281  0.0521 -0.3378 -0.4780
 7535TIP3    H146800   1.903   1.895   1.363  0.7977 -0.4382 -0.4449
 7535TIP3    H246801   1.806   1.834   1.265 -0.1456  1.0528 -0.4706
 7536TIP3   OH246802   4.529   6.182   2.355 -0.2430 -0.1459 -0.2547
 7536TIP3    H146803   4.511   6.265   2.399 -1.8104 -0.0994 -0.9265
 7536TIP3    H246804   4.585   6.207   2.281  0.6708  0.0634  0.4925
 7537TIP3   OH246805   2.907   7.646   2.922  0.2051  0.4109  0.1885
 7537TIP3    H146806   2.898   7.621   3.014  0.1538 -1.5639 -0.3226
 7537TIP3    H246807   2.855   7.726   2.914 -1.5650 -0.5633  1.4202
 7538TIP3   OH246808   3.852   2.343   0.685 -0.1209 -0.1445 -0.2302
 7538TIP3    H146809   3.763   2.356   0.720 -0.0681  0.3818 -0.2900
 7538TIP3    H246810   3.879   2.429   0.655  1.1672  0.1189  1.5534
 7539TIP3   OH246811   3.924   0.985   1.216 -0.2737 -0.1735 -0.0728
 7539TIP3    H146812   3.883   0.989   1.130  0.6982  0.3859 -0.5253
 7539TIP3    H246813   4.011   0.949   1.201 -0.1651 -0.2708  0.7061
 7540TIP3   OH246814   2.244   0.114   1.248 -0.6352 -0.0048  0.2123
 7540TIP3    H146815   2.309   0.046   1.266 -2.9184 -2.1297  1.0363
 7540TIP3    H246816   2.178   0.071   1.194 -1.8007  1.7788  0.1194
 7541TIP3   OH246817   4.265   2.642   0.606  0.1504  0.0247 -0.5589
 7541TIP3    H146818   4.330   2.624   0.538  1.7799 -0.7610  1.0998
 7541TIP3    H246819   4.272   2.736   0.621 -0.5516  0.2860 -1.7577
 7542TIP3   OH246820   7.515   0.297   1.808 -0.1187 -1.0496 -0.5122
 7542TIP3    H146821   7.544   0.262   1.724  0.3568 -0.1124 -0.7457
 7542TIP3    H246822   7.480   0.383   1.788 -0.3913 -0.9854  0.1988
 7543TIP3   OH246823   4.640   2.707   1.538 -0.3862 -0.0437  0.3949
 7543TIP3    H146824   4.655   2.689   1.630 -1.0079 -1.0122  0.3110
 7543TIP3    H246825   4.717   2.670   1.494  1.0548  2.3679  0.6682
 7544TIP3   OH246826   1.357   2.969   0.919 -0.0988 -0.1704 -0.3449
 7544TIP3    H146827   1.311   2.885   0.922 -1.0778  0.3469  2.0616
 7544TIP3    H246828   1.287   3.034   0.909  0.3294  0.4867  0.6997
 7545TIP3   OH246829   1.246   1.190   0.701  0.0739  0.2328  0.1608
 7545TIP3    H146830   1.245   1.101   0.666  1.4515 -0.2400  1.2498
 7545TIP3    H246831   1.156   1.222   0.686 -0.2651 -1.0739 -0.8405
 7546TIP3   OH246832   2.592   4.267   1.020 -0.5337 -0.2395 -0.5117
 7546TIP3    H146833   2.535   4.338   1.050 -0.9454 -0.7896  0.0400
 7546TIP3    H246834   2.572   4.194   1.079  0.3015 -0.6343 -0.7000
 7547TIP3   OH246835   1.558   6.587   0.878 -0.2643  0.3908  0.7295
 7547TIP3    H146836   1.598   6.602   0.964  2.0777 -0.0824 -0.2135
 7547TIP3    H246837   1.568   6.670   0.832  1.5675 -0.3190 -0.2237
 7548TIP3   OH246838   4.484   0.714   2.701  0.4326  0.6722  0.3488
 7548TIP3    H146839   4.497   0.744   2.611  0.6821 -0.2730  0.0582
 7548TIP3    H246840   4.510   0.622   2.700  0.2724  0.6005  1.3517
 7549TIP3   OH246841   2.036   1.953   1.996 -0.6330 -0.0410  0.3968
 7549TIP3    H146842   2.061   1.868   2.033  1.5974  0.1516 -0.5363
 7549TIP3    H246843   2.074   2.017   2.056 -2.8671  0.3913  1.4685
 7550TIP3   OH246844   0.233   5.579   1.448  0.0005 -0.1816 -0.1440
 7550TIP3    H146845   0.228   5.486   1.469 -0.4443  0.0937  1.0522
 7550TIP3    H246846   0.325   5.602   1.458 -0.1660 -0.1028  1.4053
 7551TIP3   OH246847   5.698   0.953   2.200 -0.1720  0.2415 -0.0535
 7551TIP3    H146848   5.719   1.045   2.180  1.6626 -0.5200 -2.0010
 7551TIP3    H246849   5.608   0.943   2.168 -0.3181  1.2956 -0.0352
 7552TIP3   OH246850   3.924   0.327   3.138  0.2221  0.4397 -0.0577
 7552TIP3    H146851   3.972   0.271   3.198  1.3555 -2.0264 -2.9665
 7552TIP3    H246852   3.832   0.315   3.162  0.5902 -1.0208  0.7256
 7553TIP3   OH246853   0.370   2.218   1.774  0.1314 -0.0861 -0.2835
 7553TIP3    H146854   0.363   2.136   1.725 -4.0739  0.5462 -1.1514
 7553TIP3    H246855   0.344   2.195   1.863  0.8560 -0.0107 -0.0491
 7554TIP3   OH246856   6.267   1.864   1.880 -0.0240 -0.2202 -0.2360
 7554TIP3    H146857   6.280   1.772   1.859 -1.6648 -1.2947  2.7979
 7554TIP3    H246858   6.349   1.893   1.919  0.5038 -0.3749 -1.2210
 7555TIP3   OH246859   0.148   6.620   1.076 -0.2060 -0.2619 -0.3772
 7555TIP3    H146860   0.220   6.562   1.050  0.4498  0.2336  0.2968
 7555TIP3    H246861   0.069   6.567   1.061  0.4110 -1.6768  1.0076
 7556TIP3   OH246862   2.419   0.378   1.058 -0.2312 -0.0782  0.1113
 7556TIP3    H146863   2.406   0.443   1.127 -0.4581 -1.0171  0.9748
 7556TIP3    H246864   2.461   0.304   1.102 -0.6581 -0.8201 -0.6968
 7557TIP3   OH246865   5.099   4.068   1.243  0.3828 -0.6518  0.6627
 7557TIP3    H146866   5.188   4.060   1.280  0.7594  2.3095  0.6942
 7557TIP3    H246867   5.041   4.059   1.319  0.7820 -0.6770  0.9719
 7558TIP3   OH246868   2.337   1.079   0.980  0.0264  0.1538  1.4812
 7558TIP3    H146869   2.327   1.152   1.042 -2.1395  1.5632 -0.3814
 7558TIP3    H246870   2.251   1.068   0.941  1.0550 -1.3339 -0.5808
 7559TIP3   OH246871   0.954   1.739   1.312 -0.0089  0.1898 -0.3881
 7559TIP3    H146872   0.906   1.720   1.231  0.2955 -1.2248 -0.2735
 7559TIP3    H246873   0.922   1.824   1.340 -1.5654 -0.1844 -0.9498
 7560TIP3   OH246874   6.984   6.785   2.865 -0.0532 -0.3618 -0.3332
 7560TIP3    H146875   6.898   6.781   2.905  1.3658  2.3258  3.5995
 7560TIP3    H246876   7.034   6.716   2.908  0.2369 -0.8200 -1.3676
 7561TIP3   OH246877   5.227   0.313   1.983 -0.3027 -0.6179 -0.8284
 7561TIP3    H146878   5.137   0.280   1.976 -0.5991  0.1878 -0.8385
 7561TIP3    H246879   5.220   0.391   2.038  0.7190 -1.8582  1.1966
 7562TIP3   OH246880   6.959   1.196   0.588 -0.0018  0.1408 -0.2316
 7562TIP3    H146881   6.909   1.272   0.618  0.3336 -0.7296  2.9521
 7562TIP3    H246882   6.895   1.124   0.587  0.1555  0.0098 -0.9958
 7563TIP3   OH246883   5.339   6.960   1.489 -0.5012  0.2725 -0.2654
 7563TIP3    H146884   5.272   6.979   1.422 -1.5871 -0.1718  0.6631
 7563TIP3    H246885   5.422   6.964   1.441 -1.0878  1.8582 -1.2511
 7564TIP3   OH246886   1.012   5.888   3.115 -0.1228 -0.1122 -0.3826
 7564TIP3    H146887   1.073   5.816   3.095  1.7811  1.0895  0.7678
 7564TIP3    H246888   0.955   5.852   3.184  0.4025 -0.7140 -0.2487
 7565TIP3   OH246889   1.066   5.387   1.462  0.7043  0.3456 -0.1548
 7565TIP3    H146890   1.155   5.390   1.427  0.0110 -1.0311 -2.2581
 7565TIP3    H246891   1.039   5.479   1.469  1.8361  0.7352 -0.7230
 7566TIP3   OH246892   2.096   7.424   1.059  0.4382  0.1180  0.2931
 7566TIP3    H146893   2.191   7.434   1.057  0.2897  1.7394 -1.6085
 7566TIP3    H246894   2.067   7.481   1.130  0.9535 -1.9741  2.3076
 7567TIP3   OH246895   3.143   4.068   2.052 -0.0596 -0.3879 -0.0263
 7567TIP3    H146896   3.219   4.026   2.093 -2.3655 -2.6313  2.3721
 7567TIP3    H246897   3.111   4.129   2.119 -1.9189 -1.5691  0.2351
 7568TIP3   OH246898   3.735   6.973   3.169  0.2272 -0.0726  0.5015
 7568TIP3    H146899   3.767   7.060   3.142 -1.1945  0.0263 -1.0722
 7568TIP3    H246900   3.802   6.913   3.139  0.4229  0.3648  0.0382
 7569TIP3   OH246901   6.311   6.052   0.938  0.3241 -0.0858 -0.2503
 7569TIP3    H146902   6.344   6.122   0.883  0.3834  1.0568  1.1724
 7569TIP3    H246903   6.390   6.010   0.973  0.3771  1.7601  2.0571
 7570TIP3   OH246904   1.591   2.757   1.775 -0.0943  0.3208  0.0649
 7570TIP3    H146905   1.528   2.706   1.824  0.7689 -0.5213  0.3259
 7570TIP3    H246906   1.545   2.781   1.694 -0.6070 -0.6286  0.0630
 7571TIP3   OH246907   4.034   1.033   2.174 -0.3533  0.0368  0.2266
 7571TIP3    H146908   3.976   1.097   2.214 -0.6780 -0.1151 -0.0039
 7571TIP3    H246909   4.003   1.024   2.084  0.1583  0.1129  0.0365
 7572TIP3   OH246910   0.226   0.771   3.109  0.3015  0.2848  0.5720
 7572TIP3    H146911   0.319   0.789   3.095  0.6126  0.4465  2.5675
 7572TIP3    H246912   0.224   0.695   3.167 -0.8693 -0.6566 -0.6205
 7573TIP3   OH246913   0.410   4.901   1.205 -0.0460 -0.1052 -0.5209
 7573TIP3    H146914   0.402   4.807   1.218  0.9853  0.0365  1.4617
 7573TIP3    H246915   0.478   4.910   1.137 -0.2494 -0.7852 -0.8164
 7574TIP3   OH246916   1.816   7.394   2.778 -0.2009  0.1362 -0.4664
 7574TIP3    H146917   1.835   7.442   2.697 -1.7073 -1.9756 -2.2071
 7574TIP3    H246918   1.721   7.385   2.779 -0.0961 -1.2308  0.7249
 7575TIP3   OH246919   0.822   4.762   2.703  0.0869 -0.1198 -0.0826
 7575TIP3    H146920   0.780   4.820   2.640 -1.9922 -0.8181  0.5958
 7575TIP3    H246921   0.872   4.820   2.760 -1.1026  0.9130 -0.0503
 7576TIP3   OH246922   2.563   6.638   2.829  0.2389 -0.6410  0.1907
 7576TIP3    H146923   2.528   6.664   2.914  0.4078  1.4076 -0.2944
 7576TIP3    H246924   2.521   6.554   2.810  0.0237 -1.0317  2.1643
 7577TIP3   OH246925   1.901   5.401   2.234  0.9022  0.3726 -0.5607
 7577TIP3    H146926   1.931   5.456   2.306  1.6868 -0.9389  0.1615
 7577TIP3    H246927   1.956   5.323   2.239  0.3367 -0.1568 -2.0097
 7578TIP3   OH246928   3.908   5.833   3.317  0.5717  0.2326 -0.7383
 7578TIP3    H146929   3.860   5.913   3.298  2.9431  2.4187  1.7062
 7578TIP3    H246930   3.970   5.825   3.244 -2.1666 -1.7566 -3.0828
 7579TIP3   OH246931   0.688   6.893   2.237  0.0219  0.1216 -0.0143
 7579TIP3    H146932   0.626   6.855   2.299 -0.3078 -1.3553 -1.1707
 7579TIP3    H246933   0.757   6.931   2.291 -0.1712 -1.2502  1.2582
 7580TIP3   OH246934   3.748   5.245   0.879  0.3390  0.4992 -0.3168
 7580TIP3    H146935   3.793   5.162   0.863  0.4931  0.4420  0.3826
 7580TIP3    H246936   3.793   5.308   0.822  1.3006  0.4391  0.3477
 7581TIP3   OH246937   1.526   5.283   2.794 -0.3026  0.4514  0.5434
 7581TIP3    H146938   1.483   5.347   2.736  0.6784 -0.2385 -1.0090
 7581TIP3    H246939   1.537   5.205   2.739  1.3895  0.0466  1.4033
 7582TIP3   OH246940   2.600   0.992   1.721 -0.3823 -0.2454 -0.0398
 7582TIP3    H146941   2.543   0.917   1.700 -0.3780 -0.9363  2.1384
 7582TIP3    H246942   2.617   0.983   1.815 -1.7738  3.4435  0.7429
 7583TIP3   OH246943   3.024   6.433   2.371  0.0897  0.0529 -0.0159
 7583TIP3    H146944   2.991   6.414   2.283 -1.5236  0.4122  0.4840
 7583TIP3    H246945   3.071   6.353   2.396  0.6000 -0.0401 -1.1992
 7584TIP3   OH246946   1.981   4.609   2.367  0.1422  0.2738  0.5083
 7584TIP3    H146947   1.886   4.603   2.377  0.1076  0.5403  0.3592
 7584TIP3    H246948   2.006   4.527   2.323 -0.1402  0.5896 -0.2712
 7585TIP3   OH246949   1.923   7.518   2.574 -0.7230 -0.0680  0.1824
 7585TIP3    H146950   2.018   7.523   2.579 -0.7903  0.1628  1.6079
 7585TIP3    H246951   1.906   7.452   2.506  0.4364 -0.1345 -0.0667
 7586TIP3   OH246952   4.862   6.850   1.743  0.7767  0.0245  0.4629
 7586TIP3    H146953   4.957   6.858   1.753  0.9910 -1.5273 -0.0272
 7586TIP3    H246954   4.844   6.886   1.656  1.0544 -0.5096  0.1795
 7587TIP3   OH246955   5.942   5.747   1.202 -0.1710 -0.2941  0.2610
 7587TIP3    H146956   6.033   5.753   1.230 -0.7200  0.0716  2.1007
 7587TIP3    H246957   5.938   5.801   1.122  0.9850  0.6242  0.7861
 7588TIP3   OH246958   3.808   2.136   2.115  0.1795 -0.2764 -0.3821
 7588TIP3    H146959   3.859   2.059   2.139 -0.1574 -1.3471 -2.8267
 7588TIP3    H246960   3.763   2.111   2.034 -2.3325  1.4537  0.3537
 7589TIP3   OH246961   7.649   2.067   2.339  0.0852 -0.3589 -0.2939
 7589TIP3    H146962   7.562   2.104   2.323 -0.2283 -1.7113 -2.0091
 7589TIP3    H246963   7.651   1.987   2.286  3.1155  0.7377 -2.0720
 7590TIP3   OH246964   0.243   0.534   3.272  0.4774  0.4647  0.4504
 7590TIP3    H146965   0.279   0.551   3.358 -0.2058  0.6727  0.7020
 7590TIP3    H246966   0.156   0.498   3.289  0.1296  1.0012 -0.1568
 7591TIP3   OH246967   1.459   6.015   3.637 -0.4643  0.0517 -0.3477
 7591TIP3    H146968   1.418   6.034   3.721 -0.8188  0.0033 -0.5069
 7591TIP3    H246969   1.493   6.099   3.607 -0.1439  0.0279 -0.0550
 7592TIP3   OH246970   2.127   2.717   1.834 -0.0946 -0.3813  0.3384
 7592TIP3    H146971   2.038   2.731   1.802  0.6401 -0.8479 -2.0956
 7592TIP3    H246972   2.125   2.749   1.925 -2.3548  0.9195 -0.0956
 7593TIP3   OH246973   7.613   1.344   1.473  0.2295  0.3247  0.3507
 7593TIP3    H146974   7.621   1.370   1.381  0.7627 -0.0704  0.2804
 7593TIP3    H246975   7.527   1.302   1.480  1.0082 -1.4724 -0.4287
 7594TIP3   OH246976   0.186   6.956   3.498  0.8921  0.0769  0.2346
 7594TIP3    H146977   0.252   6.903   3.453  0.1518  1.0259 -2.0973
 7594TIP3    H246978   0.214   7.046   3.483 -0.5728  0.4753 -0.2896
 7595TIP3   OH246979   6.112   7.244   1.409 -0.0541 -0.1623  0.3259
 7595TIP3    H146980   6.198   7.206   1.387 -0.5010 -0.4629 -0.9832
 7595TIP3    H246981   6.119   7.266   1.502  2.6505  2.9662 -0.4209
 7596TIP3   OH246982   2.931   5.203   1.788 -0.0654 -0.4058  0.1233
 7596TIP3    H146983   2.896   5.231   1.873  1.1654  2.6486 -0.2337
 7596TIP3    H246984   2.873   5.243   1.724 -0.8376 -2.4873 -0.5610
 7597TIP3   OH246985   6.091   0.837   2.065  0.1632  0.0519 -0.2023
 7597TIP3    H146986   6.065   0.925   2.092 -0.6585  0.5812 -2.4988
 7597TIP3    H246987   6.183   0.830   2.090  0.4025  1.7928 -0.5056
 7598TIP3   OH246988   3.782   3.863   2.259  0.3661 -0.1203  0.3750
 7598TIP3    H146989   3.709   3.804   2.274  0.4521  0.1586  2.0843
 7598TIP3    H246990   3.747   3.950   2.281  1.7034 -0.2071  3.3658
 7599TIP3   OH246991   7.085   2.617   2.446  0.6564 -0.4742 -0.0490
 7599TIP3    H146992   7.157   2.594   2.387  0.9612  0.9661 -0.2739
 7599TIP3    H246993   7.023   2.545   2.437  0.8775 -0.4923 -1.8485
 7600TIP3   OH246994   5.808   1.395   1.345  0.0109 -0.0457  0.6438
 7600TIP3    H146995   5.838   1.376   1.434 -3.1459 -0.4482  1.7418
 7600TIP3    H246996   5.839   1.484   1.327  2.0315 -0.5298  1.4608
 7601TIP3   OH246997   1.243   3.685   0.881 -0.2844  0.0677 -0.6212
 7601TIP3    H146998   1.280   3.648   0.961  0.0426  1.5431 -0.0487
 7601TIP3    H246999   1.169   3.739   0.911  0.0830  0.9502 -1.2566
 7602TIP3   OH247000   1.145   5.160   0.608 -0.0524 -0.2149  0.1372
 7602TIP3    H147001   1.065   5.199   0.573  0.4674  1.2684  0.5173
 7602TIP3    H247002   1.200   5.235   0.631  0.8692 -1.1825  1.2172
 7603TIP3   OH247003   1.881   4.703   1.228  0.2970 -0.3847  0.7063
 7603TIP3    H147004   1.910   4.715   1.319 -0.4945  1.2886  0.7814
 7603TIP3    H247005   1.869   4.792   1.195 -0.4045 -0.9804 -0.7269
 7604TIP3   OH247006   1.694   5.561   2.282 -0.0987  0.4423 -0.3985
 7604TIP3    H147007   1.771   5.507   2.265 -0.0687  1.2771 -3.5534
 7604TIP3    H247008   1.634   5.503   2.329  0.9766 -1.4713 -1.2490
 7605TIP3   OH247009   1.288   0.378   2.585 -0.1196  0.6769  0.0713
 7605TIP3    H147010   1.336   0.377   2.668  0.5838 -0.4702 -0.3161
 7605TIP3    H247011   1.324   0.304   2.536 -0.6889  1.1871 -1.1670
 7606TIP3   OH247012   6.779   7.425   2.909  0.3695  0.9526 -0.4265
 7606TIP3    H147013   6.716   7.355   2.929  1.2331  0.2460 -0.0742
 7606TIP3    H247014   6.819   7.445   2.993  2.8768 -0.8880 -1.0494
 7607TIP3   OH247015   0.662   0.059   1.794 -0.0772  0.3622 -0.4048
 7607TIP3    H147016   0.650   0.132   1.855 -0.1195  1.8403 -2.0985
 7607TIP3    H247017   0.576   0.017   1.790  0.1693 -0.4016  1.2646
 7608TIP3   OH247018   1.464   3.755   0.743 -0.4392 -0.4129 -0.3068
 7608TIP3    H147019   1.479   3.849   0.752  0.4575 -0.6241  0.6091
 7608TIP3    H247020   1.392   3.736   0.803 -0.9717 -0.2309 -0.8828
 7609TIP3   OH247021   0.469   1.470   0.665  0.3416  0.3596 -0.1338
 7609TIP3    H147022   0.532   1.406   0.698 -0.5585  0.3366  1.7108
 7609TIP3    H247023   0.384   1.429   0.679 -0.3010  2.1572  1.7574
 7610TIP3   OH247024   3.055   2.049   1.109  0.1633  0.0269 -0.7663
 7610TIP3    H147025   2.987   2.073   1.046  1.2884  2.9238 -1.0354
 7610TIP3    H247026   3.037   2.103   1.186  0.0772 -1.8697  0.6178
 7611TIP3   OH247027   4.468   3.866   0.702  0.3047  0.5326 -0.3005
 7611TIP3    H147028   4.400   3.918   0.660  0.7233  0.7182 -0.7495
 7611TIP3    H247029   4.444   3.866   0.795 -0.6295  0.1000 -0.5300
 7612TIP3   OH247030   4.554   6.112   3.267 -0.2085  0.0927  0.2303
 7612TIP3    H147031   4.593   6.184   3.216  0.7131 -0.8714 -0.4763
 7612TIP3    H247032   4.482   6.081   3.212 -0.3472  0.2149  0.3440
 7613TIP3   OH247033   0.491   4.727   2.102 -0.1191 -0.4977  0.2810
 7613TIP3    H147034   0.460   4.651   2.052 -1.8685 -1.5053  2.7464
 7613TIP3    H247035   0.546   4.689   2.171  1.4956  0.7889 -0.2385
 7614TIP3   OH247036   1.438   2.614   3.414 -0.2918  0.5532  0.4193
 7614TIP3    H147037   1.424   2.551   3.485  0.0625 -1.3441 -1.1152
 7614TIP3    H247038   1.369   2.678   3.425 -2.8099 -1.9184  0.1533
 7615TIP3   OH247039   3.492   1.151   1.536  0.2808  0.4067 -0.3250
 7615TIP3    H147040   3.555   1.091   1.496 -1.2089 -0.4122 -1.5278
 7615TIP3    H247041   3.430   1.093   1.582  0.9617  1.2451  1.7690
 7616TIP3   OH247042   7.579   7.311   2.099 -0.2600 -0.1605  0.4843
 7616TIP3    H147043   7.660   7.310   2.049 -1.3678 -1.2347 -1.4300
 7616TIP3    H247044   7.556   7.404   2.105  0.5248  0.0737  0.0132
 7617TIP3   OH247045   6.280   3.118   0.580  0.1459 -0.3767  0.0374
 7617TIP3    H147046   6.259   3.153   0.494 -1.4378  3.4762  1.7345
 7617TIP3    H247047   6.208   3.059   0.601  0.1170 -0.6917 -0.9065
 7618TIP3   OH247048   5.608   3.563   2.460 -0.1701  0.5369 -0.2802
 7618TIP3    H147049   5.630   3.470   2.463 -2.6921 -0.1111  1.1546
 7618TIP3    H247050   5.653   3.600   2.537  0.0931  0.3343 -0.3334
 7619TIP3   OH247051   6.521   1.543   0.486  0.3284  0.0284  0.4052
 7619TIP3    H147052   6.611   1.574   0.490  0.3201  0.2549 -0.7967
 7619TIP3    H247053   6.524   1.455   0.525  1.2218 -0.2846 -0.3467
 7620TIP3   OH247054   0.884   1.088   2.150  0.1328  0.1626 -0.5503
 7620TIP3    H147055   0.800   1.134   2.145  1.0655  1.9960 -0.0700
 7620TIP3    H247056   0.922   1.099   2.063 -0.2196 -0.9150 -0.8574
 7621TIP3   OH247057   4.226   3.551   0.945  0.6756  0.0293 -0.3682
 7621TIP3    H147058   4.286   3.602   0.999 -0.9664  2.8256 -0.9426
 7621TIP3    H247059   4.164   3.514   1.008  0.4420  0.8752 -0.0757
 7622TIP3   OH247060   1.638   6.836   1.612  0.2942  0.0678 -0.5885
 7622TIP3    H147061   1.689   6.789   1.677 -0.6897 -0.1143  0.0841
 7622TIP3    H247062   1.675   6.924   1.610 -0.2717  0.3762  0.9512
 7623TIP3   OH247063   1.553   2.373   3.292  0.1520  0.1846  0.3180
 7623TIP3    H147064   1.494   2.388   3.366 -0.5039 -1.6157  0.2209
 7623TIP3    H247065   1.598   2.456   3.280 -3.0992  2.0271 -0.2825
 7624TIP3   OH247066   6.819   2.590   0.397  0.0571 -0.0758  0.2170
 7624TIP3    H147067   6.803   2.496   0.400  2.9859 -0.7196 -0.7226
 7624TIP3    H247068   6.891   2.604   0.459 -0.1627  1.5102  0.1598
 7625TIP3   OH247069   7.521   1.675   0.511 -0.1810 -0.2576 -0.5232
 7625TIP3    H147070   7.573   1.755   0.523 -1.4279  0.4485  0.4402
 7625TIP3    H247071   7.510   1.668   0.416 -0.9367  1.3386 -0.5961
 7626TIP3   OH247072   3.453   3.715   1.739  0.3022  0.2068  0.0437
 7626TIP3    H147073   3.514   3.773   1.785  0.1440  0.0092  0.5045
 7626TIP3    H247074   3.445   3.754   1.652 -0.0974  1.1117  0.4684
 7627TIP3   OH247075   2.747   0.919   0.683 -0.1919  0.1808 -0.1489
 7627TIP3    H147076   2.683   0.972   0.732 -0.7854 -0.3058 -0.3812
 7627TIP3    H247077   2.793   0.983   0.628 -0.1747  0.5985  0.3400
 7628TIP3   OH247078   2.070   5.047   0.773 -0.1381  0.2590  0.0116
 7628TIP3    H147079   2.153   5.054   0.725 -1.1726 -1.3942 -2.1977
 7628TIP3    H247080   2.044   5.137   0.789  1.4179  0.8243 -0.4295
 7629TIP3   OH247081   3.819   1.744   1.113 -0.6203 -0.0726 -0.1386
 7629TIP3    H147082   3.789   1.803   1.182  0.1068  1.2565 -0.9231
 7629TIP3    H247083   3.772   1.773   1.035 -0.5995 -0.8554 -0.4572
 7630TIP3   OH247084   1.307   2.242   0.958 -0.1595  0.2125  0.1338
 7630TIP3    H147085   1.320   2.205   0.871 -0.1544 -0.8210  0.5512
 7630TIP3    H247086   1.385   2.295   0.974  0.3359 -0.4480 -0.0749
 7631TIP3   OH247087   2.405   7.543   2.742  0.1391 -0.4883 -0.2628
 7631TIP3    H147088   2.445   7.630   2.749 -1.2454  0.0642  1.2420
 7631TIP3    H247089   2.386   7.518   2.832 -1.1454 -1.5557 -0.8057
 7632TIP3   OH247090   2.691   1.876   2.854  0.2604  0.3284 -0.5813
 7632TIP3    H147091   2.631   1.940   2.893  0.8856  1.2326 -1.0757
 7632TIP3    H247092   2.652   1.791   2.876 -1.1429  0.8820 -0.7899
 7633TIP3   OH247093   5.030   5.274   2.843 -0.2553  0.3275 -0.3383
 7633TIP3    H147094   5.063   5.242   2.927 -1.0482  0.8805  0.2016
 7633TIP3    H247095   4.953   5.326   2.866 -0.9180 -0.1224 -1.4733
 7634TIP3   OH247096   2.804   0.891   1.221  0.0779  0.2209  0.3234
 7634TIP3    H147097   2.801   0.829   1.294 -0.9706  0.3438  0.3984
 7634TIP3    H247098   2.811   0.837   1.143 -1.9951 -0.0997  0.2932
 7635TIP3   OH247099   3.154   5.891   1.155 -0.6309  0.1537  0.3040
 7635TIP3    H147100   3.226   5.905   1.094 -0.2458 -0.6701  0.5585
 7635TIP3    H247101   3.195   5.887   1.241 -1.3258  3.0508  0.9011
 7636TIP3   OH247102   2.216   2.780   1.434  0.4891  0.9545 -0.2716
 7636TIP3    H147103   2.232   2.693   1.397  1.2936  0.9649  0.0413
 7636TIP3    H247104   2.272   2.784   1.512 -0.6225  1.2119  0.5376
 7637TIP3   OH247105   1.040   0.874   3.412 -0.4139 -1.1165 -0.1399
 7637TIP3    H147106   1.131   0.882   3.440 -0.6201 -0.5072  0.3744
 7637TIP3    H247107   1.007   0.964   3.415 -0.4171 -0.9776 -2.4213
 7638TIP3   OH247108   0.420   2.902   1.973 -0.0225 -0.0785  0.2824
 7638TIP3    H147109   0.424   2.806   1.970 -1.0927 -0.1577  0.8178
 7638TIP3    H247110   0.355   2.926   1.907 -0.7028  0.1788  1.0240
 7639TIP3   OH247111   4.522   6.719   3.025 -0.0065  1.5262 -0.1577
 7639TIP3    H147112   4.526   6.646   3.086  0.7272  0.3528 -1.5268
 7639TIP3    H247113   4.561   6.792   3.072  0.9997  0.5279  0.6148
 7640TIP3   OH247114   6.777   2.479   1.867 -0.2890 -0.0702 -0.0675
 7640TIP3    H147115   6.708   2.415   1.850  1.2796 -1.3138 -2.1713
 7640TIP3    H247116   6.847   2.429   1.909  0.5466  0.4755 -0.7676
 7641TIP3   OH247117   2.333   3.553   0.679 -0.4115  0.2017 -0.2489
 7641TIP3    H147118   2.276   3.489   0.722  1.8550 -0.5113  1.9454
 7641TIP3    H247119   2.297   3.638   0.705 -2.7519 -0.0852 -2.2141
 7642TIP3   OH247120   1.621   7.290   2.072  0.0188  0.3774  0.1168
 7642TIP3    H147121   1.634   7.200   2.042 -0.8001  0.4172 -0.3927
 7642TIP3    H247122   1.583   7.336   1.996  0.2688  1.1083  0.4209
 7643TIP3   OH247123   1.017   0.680   3.222  0.3502  0.2266  0.6261
 7643TIP3    H147124   0.946   0.617   3.212  1.5897 -0.9955 -1.0430
 7643TIP3    H247125   0.997   0.727   3.303 -0.7639 -2.1287  1.7891
 7644TIP3   OH247126   4.875   0.886   1.281 -0.5717  0.2860 -0.2307
 7644TIP3    H147127   4.948   0.894   1.218  0.8451 -1.4509  1.0845
 7644TIP3    H247128   4.834   0.973   1.280  2.0640  1.6517 -0.4063
 7645TIP3   OH247129   4.648   5.784   0.898 -0.0971 -0.8135 -0.1814
 7645TIP3    H147130   4.711   5.855   0.911  0.3567 -1.3391  0.5942
 7645TIP3    H247131   4.590   5.816   0.829 -1.1022  1.1396  1.4288
 7646TIP3   OH247132   0.125   7.091   2.687  0.1172  0.2386  0.4654
 7646TIP3    H147133   0.039   7.098   2.646 -0.1837 -1.1454  0.7889
 7646TIP3    H247134   0.167   7.175   2.670 -0.2048 -0.0327 -2.1752
 7647TIP3   OH247135   1.134   4.292   0.827  0.2084  0.0608  0.1308
 7647TIP3    H147136   1.089   4.376   0.832 -0.8489 -0.4035 -1.1485
 7647TIP3    H247137   1.118   4.261   0.737  1.3780 -1.0632  0.2782
 7648TIP3   OH247138   2.354   0.354   2.120  0.2868  0.5118  0.0439
 7648TIP3    H147139   2.378   0.282   2.061 -0.3046  1.1315 -0.9693
 7648TIP3    H247140   2.275   0.391   2.082 -1.6058 -0.6331  2.5656
 7649TIP3   OH247141   0.429   4.313   0.687  0.0566  0.0256 -0.0720
 7649TIP3    H147142   0.393   4.382   0.631  0.2469 -0.8574 -1.3215
 7649TIP3    H247143   0.463   4.248   0.626  0.7519 -0.7329  1.0848
 7650TIP3   OH247144   1.195   6.621   0.816  0.1650 -0.0480 -0.0541
 7650TIP3    H147145   1.268   6.596   0.760  0.1582 -0.4879  0.1285
 7650TIP3    H247146   1.118   6.583   0.773  0.0795  0.1770 -0.0986
 7651TIP3   OH247147   2.600   7.450   1.998  0.3633 -0.2357  0.0490
 7651TIP3    H147148   2.653   7.391   1.945  0.2274  0.1039 -0.4700
 7651TIP3    H247149   2.566   7.515   1.936 -0.6753 -0.4578  0.3517
 7652TIP3   OH247150   5.788   0.151   1.984 -1.0820  0.1449  0.2012
 7652TIP3    H147151   5.695   0.171   1.994 -0.8015  0.9026  1.6620
 7652TIP3    H247152   5.799   0.065   2.024 -0.7158  1.3134  2.8745
 7653TIP3   OH247153   5.138   0.851   1.892  0.4604 -0.0663 -0.5653
 7653TIP3    H147154   5.094   0.934   1.871 -0.0409 -0.3697 -0.7263
 7653TIP3    H247155   5.185   0.869   1.973 -2.4850 -0.5771  1.4233
 7654TIP3   OH247156   6.256   5.715   1.983 -0.4573 -0.0299 -0.6013
 7654TIP3    H147157   6.289   5.653   2.048  0.4535  1.7484  0.7297
 7654TIP3    H247158   6.330   5.774   1.966 -1.6349  1.4388 -0.8521
 7655TIP3   OH247159   6.602   3.097   1.110  0.1798  0.0049 -0.6096
 7655TIP3    H147160   6.644   3.117   1.194  0.3815 -0.7348 -0.5251
 7655TIP3    H247161   6.511   3.125   1.122  0.5724  1.4196 -0.7172
 7656TIP3   OH247162   3.573   3.348   0.350 -0.3356  0.6760  0.1364
 7656TIP3    H147163   3.634   3.345   0.423  2.1825  3.8994 -1.5984
 7656TIP3    H247164   3.606   3.283   0.287 -0.2998  0.5564  0.2779
 7657TIP3   OH247165   6.795   3.968   1.592 -0.2424 -0.0554 -0.9392
 7657TIP3    H147166   6.706   3.996   1.616  0.0969  0.5861 -0.3915
 7657TIP3    H247167   6.844   3.974   1.674  0.4230  0.0593 -1.3469
 7658TIP3   OH247168   5.440   2.015   1.643  0.3450 -0.0745 -0.1571
 7658TIP3    H147169   5.379   1.952   1.604  0.5716  0.5650 -1.6150
 7658TIP3    H247170   5.402   2.101   1.625  0.0077  0.2466  1.8659
 7659TIP3   OH247171   3.571   5.253   1.788 -0.5349 -0.1864 -0.0518
 7659TIP3    H147172   3.593   5.258   1.881 -2.8168 -0.6038  0.5759
 7659TIP3    H247173   3.539   5.341   1.767 -1.4804 -0.5044 -0.0031
 7660TIP3   OH247174   1.866   5.578   2.956 -0.2619 -0.2073  0.1811
 7660TIP3    H147175   1.894   5.503   2.904 -2.2991 -0.4447 -0.6655
 7660TIP3    H247176   1.947   5.625   2.976  0.8496 -1.5576 -0.9312
 7661TIP3   OH247177   1.967   5.900   1.821 -0.3570  0.0150 -0.0271
 7661TIP3    H147178   2.012   5.972   1.777  0.3155  0.2062  0.9461
 7661TIP3    H247179   1.874   5.913   1.800 -0.0838  0.2610 -1.1319
 7662TIP3   OH247180   0.635   1.148   1.053  0.1519  0.1804  0.0229
 7662TIP3    H147181   0.644   1.078   0.988 -2.4996 -0.9989  0.8087
 7662TIP3    H247182   0.644   1.103   1.138  0.3865  1.1448  0.5221
 7663TIP3   OH247183   1.456   4.683   2.648  0.0292  0.1605  0.1986
 7663TIP3    H147184   1.452   4.687   2.553  1.2177  2.5153  0.1596
 7663TIP3    H247185   1.364   4.688   2.676 -0.3304 -0.5712 -0.8143
 7664TIP3   OH247186   5.622   5.081   0.992  0.0125 -0.5354  0.3555
 7664TIP3    H147187   5.588   5.164   0.959 -0.8940 -1.3377 -0.7932
 7664TIP3    H247188   5.546   5.035   1.025  0.6686 -0.4793  2.0225
 7665TIP3   OH247189   0.160   0.726   1.546  0.0042 -0.3766 -0.2403
 7665TIP3    H147190   0.098   0.722   1.619  0.7513 -1.9949  0.3660
 7665TIP3    H247191   0.245   0.708   1.586  0.2956 -2.4442 -1.5979
 7666TIP3   OH247192   6.762   5.572   2.134 -0.3362  0.3953 -0.4886
 7666TIP3    H147193   6.676   5.607   2.110 -0.6134  0.6220  0.7790
 7666TIP3    H247194   6.824   5.639   2.107 -0.7670  1.3347  0.7965
 7667TIP3   OH247195   1.743   5.809   3.258  0.6210  0.2151  0.3074
 7667TIP3    H147196   1.708   5.859   3.332  1.2115  0.4593  0.4241
 7667TIP3    H247197   1.833   5.788   3.283  1.0664  0.9149 -0.6294
 7668TIP3   OH247198   6.266   7.361   1.851 -0.0488 -0.2708  0.5438
 7668TIP3    H147199   6.343   7.325   1.893  0.5845  1.6271  1.1003
 7668TIP3    H247200   6.249   7.443   1.897 -3.0980 -1.1323  1.1970
 7669TIP3   OH247201   2.874   3.305   2.448 -0.6370 -0.7028 -0.5884
 7669TIP3    H147202   2.788   3.270   2.423 -1.1081  0.1639 -0.2280
 7669TIP3    H247203   2.858   3.398   2.464  0.1101 -0.7635  0.6881
 7670TIP3   OH247204   4.251   5.140   2.462 -0.0245  0.2082 -0.6631
 7670TIP3    H147205   4.202   5.063   2.435  0.6232 -0.1789 -0.7557
 7670TIP3    H247206   4.214   5.164   2.547 -0.0179 -0.3957 -0.4861
 7671TIP3   OH247207   5.774   3.274   1.490  0.1428 -0.0598 -0.5907
 7671TIP3    H147208   5.864   3.304   1.496 -0.4615  1.6229  3.5020
 7671TIP3    H247209   5.776   3.184   1.523  0.2774  0.0469 -0.3111
 7672TIP3   OH247210   2.861   4.888   1.688 -0.1553 -0.1839 -0.0904
 7672TIP3    H147211   2.828   4.909   1.776 -1.0361  0.8199 -0.6326
 7672TIP3    H247212   2.930   4.953   1.673 -0.6262  0.2374 -0.4814
 7673TIP3   OH247213   7.103   5.255   0.573  0.0118 -0.4420 -0.4115
 7673TIP3    H147214   7.034   5.198   0.541 -0.8074 -0.7811  1.7900
 7673TIP3    H247215   7.184   5.204   0.564 -0.7908 -2.3937  2.2482
 7674TIP3   OH247216   3.683   6.797   1.946  0.1295  0.1563  0.0287
 7674TIP3    H147217   3.602   6.763   1.984 -0.1960  0.5080 -0.3458
 7674TIP3    H247218   3.748   6.785   2.015 -0.1648 -0.4318  0.2152
 7675TIP3   OH247219   2.900   3.522   2.270 -0.1623  0.4132  0.0002
 7675TIP3    H147220   2.887   3.479   2.186 -0.9031 -0.1482  0.3929
 7675TIP3    H247221   2.812   3.535   2.305  0.1077 -2.7645  2.3593
 7676TIP3   OH247222   4.074   2.493   1.427  0.0711 -0.2221 -0.3370
 7676TIP3    H147223   4.133   2.498   1.352 -0.8032  3.4082 -0.9881
 7676TIP3    H247224   3.992   2.459   1.392 -0.4063  1.6705 -1.1733
 7677TIP3   OH247225   5.796   0.914   1.488 -0.0401  0.3223 -0.4812
 7677TIP3    H147226   5.725   0.875   1.538  0.3978 -1.9568 -1.5127
 7677TIP3    H247227   5.800   0.863   1.407  2.4300  0.6910 -0.6849
 7678TIP3   OH247228   0.867   1.927   0.445 -0.2486  0.4006 -0.0046
 7678TIP3    H147229   0.911   2.012   0.447  2.3419 -0.7706 -1.2655
 7678TIP3    H247230   0.939   1.864   0.440 -2.1037 -1.8168 -0.3870
 7679TIP3   OH247231   2.819   6.851   2.145 -0.0092  1.0642 -0.0581
 7679TIP3    H147232   2.843   6.866   2.236  0.9908  1.7422 -0.4075
 7679TIP3    H247233   2.898   6.814   2.105 -1.2982 -2.0771 -0.0307
 7680TIP3   OH247234   1.599   3.108   0.915 -0.2629 -0.2062  0.6379
 7680TIP3    H147235   1.587   3.160   0.994  0.4829 -1.7926  1.8372
 7680TIP3    H247236   1.516   3.062   0.904 -0.5053  0.3102  0.2500
 7681TIP3   OH247237   3.839   4.977   0.831  1.0493  0.3418  0.2666
 7681TIP3    H147238   3.799   4.893   0.812  1.8467 -0.9370  3.4688
 7681TIP3    H247239   3.861   4.972   0.924  1.2855  4.0556  0.5581
 7682TIP3   OH247240   0.415   5.652   1.753  0.1472 -0.2073 -0.6582
 7682TIP3    H147241   0.395   5.629   1.662  1.2453 -2.1335 -0.4780
 7682TIP3    H247242   0.344   5.614   1.804  0.0206  0.0669 -0.6259
 7683TIP3   OH247243   5.869   7.084   1.673 -0.5149 -0.1546  0.1420
 7683TIP3    H147244   5.828   7.121   1.594  0.1687  1.7584  0.6419
 7683TIP3    H247245   5.918   7.156   1.710  0.3345 -1.4279  1.5709
 7684TIP3   OH247246   1.360   0.974   2.653 -0.2421 -0.0025  0.6167
 7684TIP3    H147247   1.331   1.002   2.739  0.9592 -0.8582  1.3247
 7684TIP3    H247248   1.304   0.899   2.632 -0.1837 -0.1236  0.8894
 7685TIP3   OH247249   4.055   7.418   0.780  0.7213 -0.2137  0.0124
 7685TIP3    H147250   4.004   7.462   0.849  0.5132 -1.9456  1.0221
 7685TIP3    H247251   3.997   7.420   0.704 -0.0382 -0.3313  0.5657
 7686TIP3   OH247252   3.033   5.089   1.519  0.7159  0.4149  0.6543
 7686TIP3    H147253   3.054   5.067   1.428  0.3996 -1.0586  0.8975
 7686TIP3    H247254   3.109   5.059   1.569  0.2678 -0.1572  1.0083
 7687TIP3   OH247255   4.359   6.337   2.044 -0.1714 -0.0081 -0.0937
 7687TIP3    H147256   4.451   6.329   2.068  0.1186 -1.1091 -1.3879
 7687TIP3    H247257   4.311   6.307   2.121  0.5770  0.1170  0.4280
 7688TIP3   OH247258   4.225   4.899   1.002  0.0673 -0.3796  0.1344
 7688TIP3    H147259   4.196   4.991   0.999 -0.7674 -0.6284  0.2389
 7688TIP3    H247260   4.294   4.898   1.068 -0.6893 -0.0132  0.9622
 7689TIP3   OH247261   3.980   2.626   0.606 -0.1741  0.3539  0.7055
 7689TIP3    H147262   4.072   2.602   0.616 -0.3058 -0.9482 -0.9253
 7689TIP3    H247263   3.982   2.719   0.583  0.7868  0.1691 -0.0046
 7690TIP3   OH247264   1.782   7.086   1.647 -0.1779 -0.1946 -0.3782
 7690TIP3    H147265   1.744   7.112   1.563 -0.1532  0.6671 -0.1386
 7690TIP3    H247266   1.877   7.094   1.634 -0.0838 -1.7318 -0.7827
 7691TIP3   OH247267   7.642   1.450   0.619 -0.0746  0.3156 -0.2536
 7691TIP3    H147268   7.608   1.536   0.593 -0.1214  0.4836  0.3399
 7691TIP3    H247269   7.597   1.388   0.561 -0.2374  0.6692 -0.5108
 7692TIP3   OH247270   4.035   2.294   2.039 -0.4280  0.0597  0.4373
 7692TIP3    H147271   3.949   2.256   2.056  0.1500 -0.8958  1.3505
 7692TIP3    H247272   4.043   2.364   2.103 -0.1147 -0.5400  1.0668
 7693TIP3   OH247273   7.288   0.626   8.782  0.7777 -0.9949 -0.0939
 7693TIP3    H147274   7.286   0.615   8.686 -0.9725  2.8895 -0.7053
 7693TIP3    H247275   7.249   0.545   8.815  1.3445 -2.4407 -2.6327
 7694TIP3   OH247276   6.426   4.576   2.740 -0.3117  0.4414 -0.0315
 7694TIP3    H147277   6.409   4.482   2.744 -1.0530  0.4481 -2.0416
 7694TIP3    H247278   6.521   4.584   2.756 -0.3755 -0.5424  0.9456
 7695TIP3   OH247279   6.049   3.176   1.331 -0.2882 -0.1616 -0.3483
 7695TIP3    H147280   6.094   3.093   1.342  0.2007 -0.1414 -1.9520
 7695TIP3    H247281   6.076   3.228   1.407  1.4019 -0.5987 -0.6138
 7696TIP3   OH247282   4.319   4.366   1.423 -0.2104  0.0714  0.3220
 7696TIP3    H147283   4.283   4.443   1.467  0.5560 -0.0124  1.1254
 7696TIP3    H247284   4.262   4.353   1.347 -0.7194  1.0545  0.5185
 7697TIP3   OH247285   1.204   0.750   2.575 -0.0746  0.1007 -0.2003
 7697TIP3    H147286   1.268   0.690   2.537  0.7038  1.2069 -0.7127
 7697TIP3    H247287   1.168   0.703   2.650 -0.1804 -1.3518 -1.1147
 7698TIP3   OH247288   1.603   1.977   1.267 -0.4921  0.0245 -0.2629
 7698TIP3    H147289   1.549   1.946   1.194 -0.7828 -0.0081 -0.0382
 7698TIP3    H247290   1.547   1.966   1.344 -0.3421  0.4502 -0.0877
 7699TIP3   OH247291   5.084   4.991   2.180 -0.4492  0.5434 -0.1020
 7699TIP3    H147292   5.167   4.952   2.153 -0.0604 -0.0654  1.7991
 7699TIP3    H247293   5.086   5.080   2.144  0.7718  0.3519 -0.5431
 7700TIP3   OH247294   0.261   6.951   2.030  0.0446 -0.0865 -0.2448
 7700TIP3    H147295   0.241   6.871   2.079 -0.8123 -0.7096 -1.5608
 7700TIP3    H247296   0.236   6.932   1.940  0.5925  1.3935 -0.7535
 7701TIP3   OH247297   7.658   6.327   3.171 -0.1533  0.4437 -0.1109
 7701TIP3    H147298   7.628   6.253   3.119 -0.8231  1.3407 -1.0408
 7701TIP3    H247299   7.639   6.404   3.117  0.7881  1.2800  0.6989
 7702TIP3   OH247300   4.472   3.359   0.602 -0.6484  0.4581  0.6757
 7702TIP3    H147301   4.429   3.320   0.678  2.6497 -0.6849  2.1629
 7702TIP3    H247302   4.521   3.433   0.637  1.7347 -0.6856  0.0009
 7703TIP3   OH247303   7.148   0.546   3.255  0.5443 -0.5304 -0.7010
 7703TIP3    H147304   7.150   0.640   3.234 -0.5350 -0.0264  1.2472
 7703TIP3    H247305   7.237   0.526   3.283  0.0983  0.7686  1.9934
 7704TIP3   OH247306   6.719   6.735   2.959  0.0447  0.6008 -0.1898
 7704TIP3    H147307   6.674   6.748   2.876 -0.6205 -1.0629 -0.1207
 7704TIP3    H247308   6.662   6.775   3.025  0.0800  1.0083 -0.4017
 7705TIP3   OH247309   7.129   1.941   2.664  0.3651 -0.5454 -0.4434
 7705TIP3    H147310   7.088   1.855   2.668  1.4065 -1.0131  1.0861
 7705TIP3    H247311   7.088   1.991   2.733  0.9387 -0.3734 -0.2179
 7706TIP3   OH247312   1.424   6.318   2.211 -0.0807  0.1956  0.4283
 7706TIP3    H147313   1.490   6.312   2.142  0.6625  0.6881  1.0894
 7706TIP3    H247314   1.386   6.405   2.200 -0.1300  0.1817  0.4933
 7707TIP3   OH247315   0.613   5.138   0.438  0.1970 -0.1470 -0.5145
 7707TIP3    H147316   0.611   5.069   0.372  0.0850 -0.1984 -0.4558
 7707TIP3    H247317   0.586   5.095   0.519  0.9641 -0.2387 -0.2942
 7708TIP3   OH247318   0.369   1.148   2.382 -0.3683  0.2755 -0.3570
 7708TIP3    H147319   0.353   1.129   2.474  2.0682  1.3314  0.3540
 7708TIP3    H247320   0.378   1.243   2.377  0.2817  0.1741 -1.5634
 7709TIP3   OH247321   4.360   5.786   2.567 -0.2859 -0.0820 -0.4272
 7709TIP3    H147322   4.450   5.816   2.578 -0.9335  1.7516  0.3839
 7709TIP3    H247323   4.326   5.781   2.657 -0.7413 -1.6801 -0.6571
 7710TIP3   OH247324   2.655   6.968   1.344  0.3626 -0.8104 -0.0305
 7710TIP3    H147325   2.623   7.016   1.420 -0.7199 -0.4112 -0.7140
 7710TIP3    H247326   2.748   6.992   1.338 -0.2750  1.8477 -0.7591
 7711TIP3   OH247327   0.365   3.427   3.103  0.6830  0.2061 -0.4923
 7711TIP3    H147328   0.271   3.430   3.121  0.6284 -0.5871 -0.5755
 7711TIP3    H247329   0.397   3.355   3.158  1.0351 -0.2962 -1.3362
 7712TIP3   OH247330   0.718   3.603   1.501 -0.1820  0.0538  0.2578
 7712TIP3    H147331   0.643   3.546   1.483  0.7679 -1.2118  0.1633
 7712TIP3    H247332   0.685   3.666   1.565 -1.5443  0.0425 -0.3889
 7713TIP3   OH247333   5.626   4.097   0.996  0.2988  0.4845  0.4056
 7713TIP3    H147334   5.544   4.147   0.997 -0.3675 -0.5949  0.8958
 7713TIP3    H247335   5.685   4.146   1.054 -0.5710  0.3581  1.4213
 7714TIP3   OH247336   1.034   0.469   2.214 -0.4074  0.2737  0.3452
 7714TIP3    H147337   1.108   0.408   2.213 -1.5355 -1.1551 -0.8557
 7714TIP3    H247338   1.073   0.554   2.194  0.8666 -0.5224 -0.7407
 7715TIP3   OH247339   7.467   3.221   1.620  0.5705 -0.0994 -0.3995
 7715TIP3    H147340   7.470   3.139   1.570  0.4093 -0.2492 -0.1644
 7715TIP3    H247341   7.449   3.193   1.710  1.4195  0.1211 -0.1486
 7716TIP3   OH247342   3.699   6.461   2.507  0.5293  0.4287 -0.1970
 7716TIP3    H147343   3.775   6.410   2.478 -0.4074 -1.0674 -0.1346
 7716TIP3    H247344   3.724   6.494   2.593  0.1478 -2.4603  1.1655
 7717TIP3   OH247345   0.082   5.055   1.543  0.1606  0.1637  0.2539
 7717TIP3    H147346   0.101   4.974   1.497 -1.1639 -0.9721  1.6086
 7717TIP3    H247347   0.155   5.067   1.604  0.3256 -0.0351  0.0944
 7718TIP3   OH247348   1.448   4.305   3.142 -0.3729 -0.3996 -0.3428
 7718TIP3    H147349   1.505   4.323   3.216  0.1229 -2.1975 -0.2172
 7718TIP3    H247350   1.401   4.386   3.126 -0.7321 -0.0507  2.1423
 7719TIP3   OH247351   7.482   6.064   2.536  0.2073 -0.5386 -0.1669
 7719TIP3    H147352   7.387   6.081   2.530  0.4641  1.4903  0.6257
 7719TIP3    H247353   7.519   6.106   2.459  0.6676  0.9059  0.7882
 7720TIP3   OH247354   2.474   7.333   1.471  0.4182 -0.9424  0.4001
 7720TIP3    H147355   2.561   7.293   1.470  0.1047 -1.7163 -1.9078
 7720TIP3    H247356   2.421   7.274   1.525  1.0700 -1.0418  0.9428
 7721TIP3   OH247357   2.666   2.335   2.958 -0.0490  0.0985  0.8253
 7721TIP3    H147358   2.756   2.348   2.930 -0.5282  1.7934 -0.0693
 7721TIP3    H247359   2.616   2.404   2.913 -1.5168  0.3250  2.6673
 7722TIP3   OH247360   4.614   4.833   0.523  0.4556  0.0021 -0.6505
 7722TIP3    H147361   4.540   4.890   0.503  0.6336  1.3250  2.0036
 7722TIP3    H247362   4.586   4.783   0.600  1.0388 -2.1805 -1.7728
 7723TIP3   OH247363   3.564   3.687   1.061  0.9508 -0.0670  0.0242
 7723TIP3    H147364   3.649   3.715   1.025  0.7724 -0.6981 -0.9190
 7723TIP3    H247365   3.502   3.699   0.990  0.4008 -0.4368  0.4307
 7724TIP3   OH247366   3.457   2.111   1.433 -0.0437 -0.3359  0.2756
 7724TIP3    H147367   3.484   2.091   1.523  3.2401 -1.2866 -0.7608
 7724TIP3    H247368   3.413   2.032   1.403  0.6406 -0.7883  0.4483
 7725TIP3   OH247369   1.105   3.642   2.313 -0.0840  0.3109  0.1626
 7725TIP3    H147370   1.105   3.624   2.407  1.8050 -0.1596  0.1225
 7725TIP3    H247371   1.170   3.712   2.302 -0.8460  0.9081 -0.7133
 7726TIP3   OH247372   1.951   3.508   2.840  0.0273  0.3189 -0.5094
 7726TIP3    H147373   2.009   3.456   2.785 -0.6356 -1.5713  0.4947
 7726TIP3    H247374   2.008   3.546   2.906  0.2297 -1.3066  0.3112
 7727TIP3   OH247375   1.100   7.073   2.536 -0.3715 -0.2745 -0.3961
 7727TIP3    H147376   1.167   7.005   2.550 -0.2145 -0.4029 -1.6310
 7727TIP3    H247377   1.067   7.093   2.623  0.2424 -1.2765  0.0823
 7728TIP3   OH247378   2.700   5.536   2.170 -0.1780 -0.5873 -0.2401
 7728TIP3    H147379   2.761   5.569   2.104 -0.2722 -0.5883 -0.3281
 7728TIP3    H247380   2.747   5.464   2.213 -0.4705 -1.2292 -0.9633
 7729TIP3   OH247381   1.896   6.620   1.614 -0.5377 -0.2704 -0.2312
 7729TIP3    H147382   1.929   6.531   1.605 -0.0904 -0.1375  0.0765
 7729TIP3    H247383   1.879   6.631   1.708 -0.4637  0.0145 -0.2485
 7730TIP3   OH247384   1.631   4.902   2.711 -0.4229  0.1961 -0.1233
 7730TIP3    H147385   1.572   4.826   2.715 -0.3417  0.1402  0.0228
 7730TIP3    H247386   1.637   4.923   2.618  0.6844 -0.8674 -0.3129
 7731TIP3   OH247387   3.564   6.447   1.804 -0.1247 -0.1100  0.4144
 7731TIP3    H147388   3.513   6.366   1.801 -0.0478 -0.1200 -2.0764
 7731TIP3    H247389   3.502   6.516   1.780  0.0661  0.4642  1.4991
 7732TIP3   OH247390   1.650   0.227   1.390  0.3511  0.1669  0.1329
 7732TIP3    H147391   1.672   0.311   1.351  0.4348 -0.2145 -0.6501
 7732TIP3    H247392   1.729   0.201   1.438  0.7042  0.0290 -0.5170
 7733TIP3   OH247393   2.321   6.726   2.646 -0.0760  0.0904  0.3269
 7733TIP3    H147394   2.395   6.668   2.658 -0.9045 -0.7836  1.4358
 7733TIP3    H247395   2.275   6.725   2.730 -0.9038  1.2430 -0.0737
 7734TIP3   OH247396   2.817   7.305   1.225 -0.0615 -0.6136 -0.8409
 7734TIP3    H147397   2.808   7.227   1.281 -1.2608 -1.1314 -1.7225
 7734TIP3    H247398   2.754   7.291   1.155 -1.0222  1.6411 -0.4853
 7735TIP3   OH247399   5.386   7.028   3.001  0.5483  0.8458  0.0705
 7735TIP3    H147400   5.385   6.951   2.945  1.8209 -0.5689  1.9036
 7735TIP3    H247401   5.294   7.053   3.010  0.0391 -0.9251  0.0468
 7736TIP3   OH247402   1.850   0.853   1.750  0.0026 -0.1636 -0.8327
 7736TIP3    H147403   1.776   0.801   1.720 -1.0369  0.7961 -0.0610
 7736TIP3    H247404   1.916   0.843   1.682 -1.9662  1.3759 -3.1380
 7737TIP3   OH247405   3.639   2.334   1.030  0.0553  0.1746  0.5632
 7737TIP3    H147406   3.722   2.379   1.047  0.3013 -0.5479  1.3840
 7737TIP3    H247407   3.604   2.375   0.951  0.5348  1.4128  0.9750
 7738TIP3   OH247408   5.561   7.157   2.022 -0.3187  0.2705  0.1725
 7738TIP3    H147409   5.528   7.231   2.073  1.4769  1.4390 -0.2322
 7738TIP3    H247410   5.536   7.178   1.932  1.6945  1.3942 -0.2039
 7739TIP3   OH247411   2.528   7.545   3.401  0.6091  0.0965 -0.7333
 7739TIP3    H147412   2.468   7.594   3.458 -0.1991 -1.6279 -0.0050
 7739TIP3    H247413   2.610   7.593   3.406  0.1669  0.7851  0.8035
 7740TIP3   OH247414   7.337   2.911   2.203  0.1782 -0.2847  0.2718
 7740TIP3    H147415   7.399   2.952   2.264 -0.3257  0.5536  0.2346
 7740TIP3    H247416   7.388   2.843   2.159  0.9568  0.1188  0.5353
 7741TIP3   OH247417   7.314   1.836   1.760 -0.2423 -0.0569 -0.5946
 7741TIP3    H147418   7.370   1.913   1.769  0.5945 -0.7859  0.7835
 7741TIP3    H247419   7.276   1.823   1.848 -2.0357 -0.0106 -1.3080
 7742TIP3   OH247420   0.455   2.250   3.119  0.3616  0.0112  0.0609
 7742TIP3    H147421   0.369   2.222   3.151 -0.0866 -0.2942 -1.3458
 7742TIP3    H247422   0.514   2.178   3.140 -0.0126 -0.3702 -0.1953
 7743TIP3   OH247423   0.369   1.168   2.962 -0.4666  0.3406  0.1712
 7743TIP3    H147424   0.416   1.091   2.995 -1.9371  0.2141  2.1679
 7743TIP3    H247425   0.309   1.133   2.896 -1.7692 -0.4237  1.7102
 7744TIP3   OH247426   1.580   5.014   1.284  0.2671  0.1769  0.1272
 7744TIP3    H147427   1.614   4.992   1.370 -1.1398 -0.0477  0.6517
 7744TIP3    H247428   1.654   4.999   1.224  1.1565  0.0107  1.2385
 7745TIP3   OH247429   2.315   4.735   0.622 -0.4708 -0.0949 -0.1351
 7745TIP3    H147430   2.295   4.690   0.705  0.2128 -0.5058 -0.1873
 7745TIP3    H247431   2.408   4.719   0.608 -0.4190  0.5911 -0.6184
 7746TIP3   OH247432   0.230   1.392   3.024 -0.1188 -0.4561  0.0741
 7746TIP3    H147433   0.270   1.428   3.104  2.5447 -0.4272 -1.1458
 7746TIP3    H247434   0.289   1.321   2.999 -0.5371 -0.0645 -2.1667
 7747TIP3   OH247435   0.433   4.747   0.710 -0.3295  0.8228  0.9216
 7747TIP3    H147436   0.476   4.663   0.727 -0.0475  0.8847  0.5280
 7747TIP3    H247437   0.343   4.724   0.690  0.0678  0.4905 -0.5639
 7748TIP3   OH247438   2.966   5.459   2.533 -0.1412 -0.2986 -0.4904
 7748TIP3    H147439   2.896   5.411   2.579  0.8639 -1.4485 -0.0987
 7748TIP3    H247440   2.949   5.551   2.552 -1.3369 -0.5793 -0.1033
 7749TIP3   OH247441   0.040   3.335   0.520  0.1491  0.0958 -0.0022
 7749TIP3    H147442  -0.007   3.415   0.500  0.1568  0.5935  1.7994
 7749TIP3    H247443  -0.024   3.280   0.565  0.6497 -0.1331  0.4478
 7750TIP3   OH247444   7.130   5.705   2.535  0.1649 -0.0327 -0.2131
 7750TIP3    H147445   7.054   5.708   2.593 -1.3477  4.7364 -1.9704
 7750TIP3    H247446   7.206   5.704   2.594 -1.1096 -2.8740  1.5852
 7751TIP3   OH247447   1.669   4.328   2.583  0.7214  0.0030  0.2885
 7751TIP3    H147448   1.574   4.338   2.579  0.6768 -0.6792 -0.5917
 7751TIP3    H247449   1.687   4.301   2.673 -0.0895 -1.5003  0.0247
 7752TIP3   OH247450   6.225   3.785   1.781  0.0762  0.8423  0.2650
 7752TIP3    H147451   6.175   3.748   1.708  0.9714 -3.0075  1.3565
 7752TIP3    H247452   6.159   3.815   1.843 -0.7498  0.8880 -0.6143
 7753TIP3   OH247453   2.971   2.206   3.003 -0.0287  0.2310  0.2166
 7753TIP3    H147454   2.963   2.126   3.055 -1.9861  0.8852  0.9845
 7753TIP3    H247455   2.933   2.275   3.057 -0.4736  1.2752 -1.3503
 7754TIP3   OH247456   1.982   4.356   1.761 -0.0457  0.4122 -0.3369
 7754TIP3    H147457   1.907   4.407   1.791  0.4675  0.8867  0.1534
 7754TIP3    H247458   1.949   4.267   1.754 -0.4971  0.5021  0.4881
 7755TIP3   OH247459   4.905   5.916   0.652  0.1871 -0.5679 -0.1350
 7755TIP3    H147460   4.869   5.934   0.739 -1.4768 -3.6940 -0.0111
 7755TIP3    H247461   4.844   5.958   0.592  0.9413  0.9895  0.1483
 7756TIP3   OH247462   6.805   2.862   2.221 -0.2497 -0.7270  0.0842
 7756TIP3    H147463   6.893   2.861   2.184 -0.3922  1.6634 -0.5043
 7756TIP3    H247464   6.754   2.803   2.166  0.8255 -1.6319  0.0384
 7757TIP3   OH247465   7.021   0.785   2.522  0.4759 -0.5289  0.1406
 7757TIP3    H147466   7.046   0.869   2.484 -1.2542 -0.2857 -0.5503
 7757TIP3    H247467   6.999   0.805   2.613  3.1764 -0.8563  0.9729
 7758TIP3   OH247468   3.279   0.544   0.811  0.7232 -0.4798 -0.3335
 7758TIP3    H147469   3.200   0.570   0.764  0.9216 -0.1586 -0.4957
 7758TIP3    H247470   3.305   0.461   0.771  0.5765 -0.4863 -0.4151
 7759TIP3   OH247471   1.158   7.562   2.106  0.4034 -0.0806  0.2430
 7759TIP3    H147472   1.232   7.599   2.059 -0.3426  0.0399 -0.8814
 7759TIP3    H247473   1.197   7.505   2.172  1.5016  0.6428  0.2350
 7760TIP3   OH247474   2.944   3.000   2.415 -0.3917  0.0487 -0.4080
 7760TIP3    H147475   2.987   2.918   2.388 -0.4336  0.2889 -1.2237
 7760TIP3    H247476   2.883   3.019   2.344 -1.3653  0.0797  0.4220
 7761TIP3   OH247477   4.279   1.339   1.750 -0.0737 -0.3017  0.0888
 7761TIP3    H147478   4.267   1.362   1.842 -2.5295  3.0495 -0.8691
 7761TIP3    H247479   4.226   1.260   1.738 -0.2769 -0.3875  1.4027
 7762TIP3   OH247480   3.597   4.033   1.354  0.2923 -0.4250 -0.1655
 7762TIP3    H147481   3.686   3.999   1.347 -0.7337 -2.9960 -1.9851
 7762TIP3    H247482   3.543   3.958   1.377 -1.4594  1.0827  1.0121
 7763TIP3   OH247483   7.459   6.417   2.964 -0.3566  0.2416 -0.0705
 7763TIP3    H147484   7.411   6.383   3.039 -0.4740  1.5434  0.4818
 7763TIP3    H247485   7.438   6.511   2.962  0.5262  0.4504 -1.0560
 7764TIP3   OH247486   0.855   6.334   3.034 -0.0314 -0.3726 -0.9491
 7764TIP3    H147487   0.776   6.387   3.021 -1.1259 -1.5567  0.4965
 7764TIP3    H247488   0.919   6.395   3.072 -1.6275 -0.2518  1.7793
 7765TIP3   OH247489   3.195   5.229   1.811  0.3729  0.2008  0.7929
 7765TIP3    H147490   3.239   5.162   1.759  1.7359  2.5777 -1.3069
 7765TIP3    H247491   3.102   5.208   1.804  0.7798 -1.6732  0.5671
 7766TIP3   OH247492   0.358   5.114   2.405  0.0326  0.5832  0.4784
 7766TIP3    H147493   0.330   5.186   2.349 -1.9806 -0.0320  0.6030
 7766TIP3    H247494   0.365   5.039   2.346  1.2487  0.6696  0.4983
 7767TIP3   OH247495   7.454   1.181   2.426  0.1918 -0.4262  0.1260
 7767TIP3    H147496   7.412   1.265   2.441 -1.2667 -1.1049 -0.0267
 7767TIP3    H247497   7.510   1.195   2.349 -1.0191  0.0717 -0.6885
 7768TIP3   OH247498   0.988   2.643   2.996  0.5140 -0.2796 -0.2763
 7768TIP3    H147499   0.968   2.713   3.058  1.2418  1.8917 -2.3404
 7768TIP3    H247500   1.036   2.578   3.048 -0.0178  0.8137  1.6831
 7769TIP3   OH247501   1.818   3.370   3.093  0.0571 -0.0034  0.3476
 7769TIP3    H147502   1.909   3.401   3.086 -0.1010  0.5255  0.5986
 7769TIP3    H247503   1.826   3.274   3.098  0.5205 -0.0609 -1.0338
 7770TIP3   OH247504   3.041   6.373   1.064 -0.5833 -0.3171 -0.6148
 7770TIP3    H147505   3.122   6.423   1.055  1.3295 -2.5509  2.0822
 7770TIP3    H247506   2.994   6.415   1.136  0.6611 -1.7776  1.1405
 7771TIP3   OH247507   4.008   4.079   3.568 -0.1127 -0.1920  0.5688
 7771TIP3    H147508   3.970   4.096   3.482 -0.1284 -1.6856  0.2579
 7771TIP3    H247509   4.082   4.021   3.551 -1.1979 -2.0049  1.6928
 7772TIP3   OH247510   6.489   1.331   1.530  0.0837 -0.0965 -0.9465
 7772TIP3    H147511   6.536   1.393   1.475  0.4466  1.5810  1.1336
 7772TIP3    H247512   6.401   1.327   1.492 -0.3934  2.8145 -0.3961
 7773TIP3   OH247513   6.027   6.023   2.491 -0.4460 -0.4451  0.3650
 7773TIP3    H147514   5.976   5.942   2.489  1.6198 -1.8564  0.7668
 7773TIP3    H247515   6.025   6.050   2.582  0.8029 -1.4389  0.7238
 7774TIP3   OH247516   6.986   3.859   1.187  0.0486 -0.1829  0.4979
 7774TIP3    H147517   6.923   3.788   1.173 -0.9231  0.2803  2.2190
 7774TIP3    H247518   7.050   3.849   1.117 -2.2461 -0.3431 -1.7229
 7775TIP3   OH247519   3.410   6.055   1.044 -0.3752  0.2082 -0.4183
 7775TIP3    H147520   3.467   6.127   1.071  1.4561 -0.0464 -3.1915
 7775TIP3    H247521   3.457   5.976   1.069 -0.7859 -0.0145 -0.3376
 7776TIP3   OH247522   3.213   2.512   2.196 -0.6999 -0.0988  0.0881
 7776TIP3    H147523   3.149   2.461   2.245 -0.6544 -0.7238 -0.4985
 7776TIP3    H247524   3.198   2.488   2.105  0.8074 -0.7634 -0.0071
 7777TIP3   OH247525   3.133   2.399   1.958  0.3254  0.4033 -0.1767
 7777TIP3    H147526   3.195   2.379   1.887 -0.4908  0.7123 -0.9901
 7777TIP3    H247527   3.067   2.454   1.917  1.5364  3.3842  1.5509
 7778TIP3   OH247528   7.427   2.215   1.979 -0.5957 -0.2805 -0.3980
 7778TIP3    H147529   7.432   2.156   1.904  0.4054 -2.1027  1.0179
 7778TIP3    H247530   7.391   2.162   2.050  2.6210 -0.1016  1.6170
 7779TIP3   OH247531   3.314   7.313   2.841 -0.4078 -0.5530  0.1110
 7779TIP3    H147532   3.341   7.295   2.931  2.6506 -1.0744 -0.7932
 7779TIP3    H247533   3.369   7.387   2.814 -1.8234  0.0960 -1.1147
 7780TIP3   OH247534   2.087   6.080   1.660  0.8478 -0.1378 -0.0196
 7780TIP3    H147535   2.145   6.153   1.640  0.3507  0.6436  1.2766
 7780TIP3    H247536   2.038   6.066   1.579  0.4982  1.3962 -0.1047
 7781TIP3   OH247537   1.600   6.360   2.988 -0.2900 -0.1075 -0.1209
 7781TIP3    H147538   1.596   6.279   2.936  1.3578 -0.7340  0.6684
 7781TIP3    H247539   1.518   6.405   2.968 -1.3325 -2.0430 -0.4600
 7782TIP3   OH247540   6.204   5.177   2.236 -0.3968 -0.1491 -0.3131
 7782TIP3    H147541   6.182   5.266   2.209  0.6297  0.2251  0.0417
 7782TIP3    H247542   6.187   5.176   2.331  2.6880  0.7064  0.3447
 7783TIP3   OH247543   3.117   1.288   2.633 -0.7817  0.1564 -0.0211
 7783TIP3    H147544   3.059   1.364   2.630 -3.3921 -1.7411  0.1039
 7783TIP3    H247545   3.069   1.218   2.590  1.7258 -1.3736 -0.5560
 7784TIP3   OH247546   6.994   4.140   1.721  0.1320  0.7913 -0.9931
 7784TIP3    H147547   6.999   4.233   1.742 -1.1422  0.8417 -0.8021
 7784TIP3    H247548   6.995   4.137   1.625 -0.6885  1.0819 -1.0216
 7785TIP3   OH247549   3.917   4.271   1.381  0.4245  0.1468 -0.1240
 7785TIP3    H147550   3.881   4.183   1.388 -1.3672  0.8244 -0.2505
 7785TIP3    H247551   3.903   4.310   1.467 -0.0179  0.7261 -0.4458
 7786TIP3   OH247552   7.585   0.707   1.271  0.1918 -0.1500  0.1161
 7786TIP3    H147553   7.621   0.621   1.290 -0.8605 -0.8444 -0.9235
 7786TIP3    H247554   7.493   0.701   1.296  0.0099  0.5401 -0.3484
 7787TIP3   OH247555   3.402   7.121   1.149  0.9179  0.0768 -0.1573
 7787TIP3    H147556   3.389   7.035   1.189 -0.3966 -0.6788 -2.0853
 7787TIP3    H247557   3.460   7.104   1.075 -0.5176  0.5465 -1.4318
 7788TIP3   OH247558   1.828   7.672   0.842 -0.0555  0.1582 -0.1941
 7788TIP3    H147559   1.783   7.736   0.896 -1.0901  1.0778 -2.0695
 7788TIP3    H247560   1.794   7.685   0.754  1.7972 -1.0574 -1.1743
 7789TIP3   OH247561   0.570   5.017   3.296 -0.5308 -0.1132 -0.1306
 7789TIP3    H147562   0.640   5.045   3.238  0.4275  0.7721  1.3853
 7789TIP3    H247563   0.599   4.931   3.328  0.0881  0.4157  0.7839
 7790TIP3   OH247564   2.604   7.237   0.604 -0.8801 -0.1362  0.1459
 7790TIP3    H147565   2.537   7.187   0.651 -1.1888  0.8130  0.7565
 7790TIP3    H247566   2.671   7.173   0.581 -1.7671 -1.0171 -0.0368
 7791TIP3   OH247567   5.554   5.342   0.884 -0.0409  0.6782  0.2410
 7791TIP3    H147568   5.497   5.304   0.817  1.2153 -0.8858 -0.0115
 7791TIP3    H247569   5.510   5.423   0.910 -2.1969 -0.2934 -0.1471
 7792TIP3   OH247570   0.704   7.444   2.462 -0.4061  0.5969 -0.0369
 7792TIP3    H147571   0.633   7.398   2.417  0.8950 -1.4608 -0.1223
 7792TIP3    H247572   0.773   7.452   2.395  0.3669  0.3446  0.7126
 7793TIP3   OH247573   3.798   3.409   1.630  0.3794  0.5016  0.0977
 7793TIP3    H147574   3.750   3.376   1.706  0.8334  2.1348  1.1518
 7793TIP3    H247575   3.853   3.336   1.602  1.0033  0.1711  2.0340
 7794TIP3   OH247576   1.794   2.481   2.729  0.0119  0.4294 -0.0218
 7794TIP3    H147577   1.729   2.537   2.687 -1.0816  0.9822  2.2521
 7794TIP3    H247578   1.783   2.396   2.686  0.5324  1.4486 -2.3466
 7795TIP3   OH247579   1.468   0.398   1.961 -0.0591 -0.0747 -0.2918
 7795TIP3    H147580   1.527   0.325   1.977  0.6017  0.6782  0.8587
 7795TIP3    H247581   1.391   0.358   1.921 -0.0568 -1.5288  1.0366
 7796TIP3   OH247582   6.377   6.011   2.861  0.3244 -0.0078  0.1738
 7796TIP3    H147583   6.307   5.965   2.815 -0.6334  3.2506 -2.0264
 7796TIP3    H247584   6.452   6.006   2.802  1.3080 -1.5456  1.4842
 7797TIP3   OH247585   0.356   2.597   2.253 -0.2266  0.3583 -0.4937
 7797TIP3    H147586   0.378   2.513   2.293 -0.5451  0.4143 -0.1910
 7797TIP3    H247587   0.349   2.578   2.159 -0.3355  0.0377 -0.4218
 7798TIP3   OH247588   3.579   7.569   0.842  0.5009  0.5388  0.3824
 7798TIP3    H147589   3.490   7.551   0.813  0.2146  0.8399  1.0557
 7798TIP3    H247590   3.579   7.545   0.935  0.9210  1.2333  0.5660
 7799TIP3   OH247591   5.259   6.775   1.041  0.5073 -0.2658 -0.0866
 7799TIP3    H147592   5.221   6.840   1.100  0.4100 -0.4982  0.1077
 7799TIP3    H247593   5.193   6.760   0.974 -0.9190 -2.6720  1.7161
 7800TIP3   OH247594   2.337   2.548   1.793  0.2546  0.0226 -0.4493
 7800TIP3    H147595   2.258   2.591   1.824  0.7333  1.2537 -0.8952
 7800TIP3    H247596   2.305   2.469   1.749 -0.6837  0.2531 -0.2094
 7801TIP3   OH247597   1.594   0.365   2.238  0.2267 -0.3536  0.1746
 7801TIP3    H147598   1.517   0.417   2.215  0.8264 -0.5557 -2.6636
 7801TIP3    H247599   1.666   0.429   2.239  0.5213 -0.6498 -0.6051
 7802TIP3   OH247600   5.255   4.436   1.037  0.1313 -0.3867  0.6946
 7802TIP3    H147601   5.244   4.495   0.963  1.1088 -0.3827  0.5410
 7802TIP3    H247602   5.170   4.393   1.046 -0.2088  0.1255  0.0167
 7803TIP3   OH247603   4.596   3.026   0.474 -0.6584 -0.0866  0.2300
 7803TIP3    H147604   4.504   3.046   0.460 -0.8373 -1.7533 -1.3371
 7803TIP3    H247605   4.633   3.107   0.509 -2.4846  0.9624 -0.1406
 7804TIP3   OH247606   3.719   7.592   2.606  0.2179 -0.1289  0.1977
 7804TIP3    H147607   3.677   7.670   2.643  0.8223  1.4230 -2.1117
 7804TIP3    H247608   3.813   7.612   2.610  0.5939 -2.0572  2.2022
 7805TIP3   OH247609   7.089   1.233   2.078  0.3456  0.5069 -0.0964
 7805TIP3    H147610   7.184   1.223   2.083  0.2526 -0.5542 -0.3167
 7805TIP3    H247611   7.054   1.145   2.087 -0.7482  1.0814  2.0636
 7806TIP3   OH247612   1.021   2.343   3.115 -0.1777 -0.1410 -0.1599
 7806TIP3    H147613   0.960   2.332   3.043  0.5921  0.5079 -0.9445
 7806TIP3    H247614   1.046   2.255   3.140  0.2092 -0.3703 -1.2894
 7807TIP3   OH247615   4.429   2.958   2.766 -0.4527  0.2915 -0.4512
 7807TIP3    H147616   4.346   2.998   2.740 -1.9259 -0.5142  2.4551
 7807TIP3    H247617   4.495   2.997   2.709 -2.6182  2.1809 -1.8093
 7808TIP3   OH247618   1.409   3.922   1.869 -0.0432 -0.1548  0.0153
 7808TIP3    H147619   1.340   3.989   1.877  0.2073  0.2158 -0.7835
 7808TIP3    H247620   1.399   3.889   1.779  0.5703 -0.3736  0.0245
 7809TIP3   OH247621   6.448   4.857   0.890 -0.3113  0.5631 -0.6441
 7809TIP3    H147622   6.378   4.792   0.891  0.0696  0.1504 -0.7158
 7809TIP3    H247623   6.402   4.941   0.902 -0.6292  0.1502  1.3800
 7810TIP3   OH247624   6.133   5.349   2.780 -0.0860 -0.1436 -0.5132
 7810TIP3    H147625   6.099   5.260   2.782 -0.9557  0.1773 -0.5381
 7810TIP3    H247626   6.057   5.403   2.760  0.0602  0.7840  1.2757
 7811TIP3   OH247627   4.487   6.724   2.318  0.1629 -0.5989 -0.0980
 7811TIP3    H147628   4.413   6.665   2.304 -0.5177 -0.0397  1.0374
 7811TIP3    H247629   4.506   6.717   2.411  1.3699 -0.5158 -0.3258
 7812TIP3   OH247630   7.190   6.601   2.336 -0.6367  0.4841 -0.2544
 7812TIP3    H147631   7.099   6.631   2.340 -0.2617  1.9096 -1.5067
 7812TIP3    H247632   7.233   6.643   2.410 -0.7271  0.8005 -0.3810
 7813TIP3   OH247633   2.364   2.326   1.639  0.4821  0.1351 -0.6200
 7813TIP3    H147634   2.323   2.296   1.558 -0.1039 -0.0612 -0.2604
 7813TIP3    H247635   2.389   2.246   1.685 -0.9264  0.1522  0.2600
 7814TIP3   OH247636   6.059   7.098   0.738  0.2484 -0.0635  0.5512
 7814TIP3    H147637   6.008   7.134   0.666  0.2183 -2.0329 -0.4785
 7814TIP3    H247638   6.140   7.148   0.737  0.6391 -0.6370 -1.5096
 7815TIP3   OH247639   6.356   2.515   1.075  0.1583 -0.3265 -0.0530
 7815TIP3    H147640   6.275   2.558   1.050  1.1010  0.3035 -2.2606
 7815TIP3    H247641   6.330   2.426   1.101 -1.1951 -0.2354 -1.0321
 7816TIP3   OH247642   7.088   5.488   1.957  0.5114 -0.2856 -0.4635
 7816TIP3    H147643   7.136   5.568   1.978  0.0731 -0.0427 -0.3682
 7816TIP3    H247644   7.104   5.430   2.032  1.4477 -0.5841 -0.8749
 7817TIP3   OH247645   1.522   1.696   2.547  0.0330  0.0607 -0.3367
 7817TIP3    H147646   1.452   1.725   2.606 -1.9449 -1.1449 -1.9671
 7817TIP3    H247647   1.538   1.605   2.572  1.1256  0.3544  0.0802
 7818TIP3   OH247648   5.087   5.877   1.098  0.1270  0.9476 -0.0035
 7818TIP3    H147649   5.160   5.938   1.108  0.6137  0.3095  0.4188
 7818TIP3    H247650   5.088   5.854   1.005  1.8509 -0.6944  0.3353
 7819TIP3   OH247651   6.001   3.400   1.561  0.1506  0.2700  0.3034
 7819TIP3    H147652   5.992   3.410   1.656  0.3907  0.9025  0.2645
 7819TIP3    H247653   6.009   3.489   1.528 -0.7388  0.1056 -0.4045
 7820TIP3   OH247654   0.638   0.349   1.863 -0.1819 -0.2196 -0.0214
 7820TIP3    H147655   0.695   0.351   1.940 -0.3393  2.8956  0.1648
 7820TIP3    H247656   0.550   0.338   1.899 -0.0832 -0.7343  0.0656
 7821TIP3   OH247657   4.324   0.382   1.035  0.2319  0.0738 -0.2474
 7821TIP3    H147658   4.269   0.370   1.112  0.0386  1.4956 -0.1318
 7821TIP3    H247659   4.262   0.390   0.962  0.3345  0.4306 -0.2983
 7822TIP3   OH247660   3.666   0.165   3.070  0.5531  0.5469  0.6717
 7822TIP3    H147661   3.738   0.117   3.111  0.3641  0.6440  1.1254
 7822TIP3    H247662   3.666   0.250   3.113 -0.5783  0.1306  1.5296
 7823TIP3   OH247663   6.756   0.173   2.269 -0.2869  0.4581 -0.3576
 7823TIP3    H147664   6.757   0.252   2.215  0.7668 -0.6280 -1.9789
 7823TIP3    H247665   6.696   0.195   2.341  2.5546  4.0305  1.2732
 7824TIP3   OH247666   6.625   0.528   1.844  0.7486  0.5853 -0.1164
 7824TIP3    H147667   6.640   0.436   1.866  2.1117  0.7322 -0.3363
 7824TIP3    H247668   6.626   0.572   1.929 -1.3193  0.2548  0.1299
 7825TIP3   OH247669   2.548   6.024   2.477  0.2354  0.0409 -0.4660
 7825TIP3    H147670   2.455   6.048   2.477 -0.0275 -0.9447  0.5279
 7825TIP3    H247671   2.585   6.072   2.551 -0.1957 -2.0997  1.2363
 7826TIP3   OH247672   7.461   4.920   1.961 -0.0906  0.0138  0.0085
 7826TIP3    H147673   7.499   4.898   1.876 -0.9539  0.4332 -0.4936
 7826TIP3    H247674   7.527   4.974   2.003  0.0435  0.4093 -0.6955
 7827TIP3   OH247675   6.032   0.694   1.843  0.7523  0.7815  0.1199
 7827TIP3    H147676   6.046   0.749   1.920  0.7984  1.0404 -0.0698
 7827TIP3    H247677   6.019   0.756   1.771 -0.2372  0.5507  0.0842
 7828TIP3   OH247678   1.622   0.174   1.701 -0.0792  0.0775 -0.3866
 7828TIP3    H147679   1.580   0.207   1.780  0.1636  1.6208 -0.8527
 7828TIP3    H247680   1.571   0.098   1.676  0.6898 -1.3533  2.0278
 7829TIP3   OH247681   3.715   4.913   2.148 -0.1343 -0.5540 -0.0106
 7829TIP3    H147682   3.777   4.982   2.127  1.3189 -0.8862  2.7929
 7829TIP3    H247683   3.643   4.957   2.192  0.5516 -0.7027  1.3111
 7830TIP3   OH247684   3.437   1.375   1.395 -0.2627  0.3859 -0.0208
 7830TIP3    H147685   3.357   1.404   1.439  0.0455 -0.7038  1.3258
 7830TIP3    H247686   3.468   1.302   1.447  1.0676  0.1215 -1.1190
 7831TIP3   OH247687   2.313   6.574   2.062  0.1408 -0.2175  0.2303
 7831TIP3    H147688   2.333   6.515   2.135  0.1000 -1.7150 -0.9228
 7831TIP3    H247689   2.223   6.552   2.038  0.7174 -0.9824 -1.3607
 7832TIP3   OH247690   1.022   0.775   2.877 -0.2680  0.3245  0.4376
 7832TIP3    H147691   1.044   0.693   2.833  0.7860  0.7400  0.1544
 7832TIP3    H247692   1.104   0.803   2.918 -0.7238  1.0162  0.9047
 7833TIP3   OH247693   4.421   4.984   2.702  0.2262 -0.4089  0.3876
 7833TIP3    H147694   4.418   4.896   2.741  1.0408 -0.3117  0.6831
 7833TIP3    H247695   4.505   5.019   2.729  0.5855 -0.1207 -1.0091
 7834TIP3   OH247696   1.218   1.907   3.400 -0.3580 -0.5612 -0.1626
 7834TIP3    H147697   1.190   1.816   3.412  2.2509 -1.5330 -0.7411
 7834TIP3    H247698   1.298   1.901   3.349  2.0236  1.7728  2.9061
 7835TIP3   OH247699   0.520   6.849   1.619  0.2769  0.1592 -0.5181
 7835TIP3    H147700   0.460   6.803   1.677  1.8015  0.6313  1.5371
 7835TIP3    H247701   0.567   6.779   1.573  0.4697 -0.2744  0.3306
 7836TIP3   OH247702   4.032   2.175   0.810  0.2524  0.4934 -0.4642
 7836TIP3    H147703   3.954   2.225   0.785 -0.6523 -0.8303 -0.3464
 7836TIP3    H247704   4.091   2.185   0.735 -0.4378  0.6748 -0.9968
 7837TIP3   OH247705   2.318   4.105   1.386 -0.1636  0.1880  0.4436
 7837TIP3    H147706   2.252   4.165   1.420  0.9805  1.9422 -0.2875
 7837TIP3    H247707   2.275   4.060   1.313 -1.3699 -0.7306  1.6624
 7838TIP3   OH247708   6.119   7.166   3.005  0.0305  0.1716 -0.0674
 7838TIP3    H147709   6.093   7.221   3.079 -0.7762  1.1704 -1.0619
 7838TIP3    H247710   6.042   7.114   2.985  0.5699 -0.8379  0.4126
 7839TIP3   OH247711   5.508   7.126   1.758 -0.0067 -0.2242  0.2535
 7839TIP3    H147712   5.535   7.161   1.672 -0.4580 -0.7831 -0.1236
 7839TIP3    H247713   5.545   7.038   1.761 -0.5198 -0.4375  0.3680
 7840TIP3   OH247714   2.590   6.075   0.720 -0.1770  0.2339  0.2362
 7840TIP3    H147715   2.621   6.142   0.658  1.2657  0.9680  1.6620
 7840TIP3    H247716   2.498   6.098   0.735  0.7014  3.1664  2.0884
 7841TIP3   OH247717   2.823   5.574   2.771 -0.0546 -0.3274  0.6164
 7841TIP3    H147718   2.869   5.538   2.847 -0.4247  1.3346  1.6856
 7841TIP3    H247719   2.784   5.497   2.728  0.3628 -1.3365  1.9660
 7842TIP3   OH247720   6.152   4.954   1.748  0.3599 -0.3325 -0.0202
 7842TIP3    H147721   6.060   4.931   1.731  0.0049  0.3358  0.8898
 7842TIP3    H247722   6.165   4.933   1.841  1.0967 -0.2924 -0.1082
 7843TIP3   OH247723   2.293   3.920   2.591 -0.5108  0.6587 -0.3354
 7843TIP3    H147724   2.299   3.922   2.496 -0.6212 -2.5561 -0.5029
 7843TIP3    H247725   2.384   3.919   2.621 -0.4730  0.7276 -0.4475
 7844TIP3   OH247726   4.479   1.283   2.019  0.0608 -0.0988 -0.4418
 7844TIP3    H147727   4.565   1.281   2.060 -0.7282 -0.4468  1.2942
 7844TIP3    H247728   4.486   1.221   1.946  1.4246  0.3174 -0.6999
 7845TIP3   OH247729   3.182   5.933   3.019  0.0423  0.0141  0.1146
 7845TIP3    H147730   3.236   5.995   2.969 -0.7669  0.8969  0.3040
 7845TIP3    H247731   3.134   5.988   3.081 -1.5536 -0.6541 -0.4736
 7846TIP3   OH247732   3.926   5.138   2.379  0.2466  0.2587 -0.4095
 7846TIP3    H147733   3.993   5.072   2.362  1.0099  0.7531  0.5301
 7846TIP3    H247734   3.940   5.205   2.312 -0.0381 -0.1647 -0.8958
 7847TIP3   OH247735   3.354   3.905   2.597  0.2777  0.3653 -0.1170
 7847TIP3    H147736   3.294   3.958   2.649 -0.1286 -0.0404 -0.1595
 7847TIP3    H247737   3.395   3.846   2.660  0.0785  0.1394 -0.1990
 7848TIP3   OH247738   0.152   0.381   1.569 -0.2117 -0.3046 -0.9306
 7848TIP3    H147739   0.148   0.443   1.497 -1.2569  0.5954 -0.1358
 7848TIP3    H247740   0.245   0.364   1.581 -0.0299 -0.6659 -2.6182
 7849TIP3   OH247741   4.690   5.354   0.891 -0.2370  0.0174  0.5912
 7849TIP3    H147742   4.683   5.448   0.908 -1.1473 -0.0561  0.7038
 7849TIP3    H247743   4.784   5.336   0.888 -0.0390  1.1033 -0.3726
 7850TIP3   OH247744   0.860   4.149   2.556  0.2506 -0.1940 -0.3815
 7850TIP3    H147745   0.867   4.132   2.462  1.9363  2.2588 -0.8037
 7850TIP3    H247746   0.767   4.159   2.572  0.0235  1.1619 -2.2026
 7851TIP3   OH247747   7.082   2.699   1.865  0.2802 -0.1518  0.4336
 7851TIP3    H147748   7.026   2.701   1.943  0.9705 -0.6698  0.9492
 7851TIP3    H247749   7.125   2.614   1.869  1.1186  0.2435  0.0501
 7852TIP3   OH247750   6.425   7.650   2.495 -0.1262 -0.4489 -0.2430
 7852TIP3    H147751   6.509   7.608   2.478  0.4288 -0.0173  1.3180
 7852TIP3    H247752   6.360   7.581   2.480  0.5138 -0.8904 -1.0708
 7853TIP3   OH247753   1.060   5.418   3.358 -0.4147 -0.3121  0.6762
 7853TIP3    H147754   1.069   5.508   3.328 -1.0574 -0.5668 -0.2979
 7853TIP3    H247755   1.148   5.395   3.390  0.4776 -0.2129 -1.5499
 7854TIP3   OH247756   1.439   4.745   0.953  0.2749 -0.5059  0.2224
 7854TIP3    H147757   1.437   4.782   0.865  1.2290  1.3369  0.8960
 7854TIP3    H247758   1.385   4.666   0.948 -0.8115  0.2838 -1.6704
 7855TIP3   OH247759   3.295   0.580   1.067  0.4129 -0.4719  0.2335
 7855TIP3    H147760   3.252   0.662   1.091 -0.8761 -1.2515  0.6989
 7855TIP3    H247761   3.279   0.570   0.974  1.3845  0.2571 -0.0216
 7856TIP3   OH247762   1.225   4.112   1.876 -0.4226 -0.1186 -0.3210
 7856TIP3    H147763   1.132   4.108   1.897 -0.1808  1.0509  1.0904
 7856TIP3    H247764   1.230   4.168   1.799 -0.7818  1.1263  0.5311
 7857TIP3   OH247765   6.658   5.882   1.681 -0.8044 -0.1471 -0.3542
 7857TIP3    H147766   6.651   5.816   1.750  2.1206  0.4524  0.6872
 7857TIP3    H247767   6.639   5.965   1.724 -2.5436 -0.0567 -1.2021
 7858TIP3   OH247768   4.614   0.099   1.935  0.2737  0.0861  0.0621
 7858TIP3    H147769   4.689   0.148   1.902  0.1115 -0.3457 -0.9875
 7858TIP3    H247770   4.554   0.166   1.968 -0.6264  0.8015 -2.7490
 7859TIP3   OH247771   1.491   0.210   2.498  0.2625 -0.3585 -0.2165
 7859TIP3    H147772   1.498   0.194   2.404 -2.0862 -1.6699 -0.2508
 7859TIP3    H247773   1.552   0.147   2.538 -0.3146 -1.3099 -0.8062
 7860TIP3   OH247774   3.134   4.728   2.951  0.3521  0.3007  0.5444
 7860TIP3    H147775   3.215   4.685   2.925  0.3028  1.0137 -0.8878
 7860TIP3    H247776   3.114   4.789   2.879 -2.0639 -0.6821  0.2765
 7861TIP3   OH247777   6.386   5.105   0.938 -0.5681  0.1731  0.1908
 7861TIP3    H147778   6.386   5.194   0.903  1.0605  1.2842  2.7616
 7861TIP3    H247779   6.307   5.100   0.992 -0.8718 -0.1002 -0.2711
 7862TIP3   OH247780   4.922   4.717   1.393  0.5228 -0.0239  0.4246
 7862TIP3    H147781   4.930   4.728   1.488 -0.0435 -0.3256  0.5099
 7862TIP3    H247782   5.013   4.715   1.362  0.7272 -0.3697  1.0151
 7863TIP3   OH247783   5.142   2.284   2.482  0.0358 -0.5216 -0.9090
 7863TIP3    H147784   5.201   2.319   2.549 -1.8040  1.3037 -0.1378
 7863TIP3    H247785   5.119   2.197   2.514 -0.0428 -0.0557  0.3602
 7864TIP3   OH247786   2.760   3.956   1.740 -0.2224 -0.5531  0.4538
 7864TIP3    H147787   2.768   3.918   1.652 -0.0171  0.0868  0.1911
 7864TIP3    H247788   2.837   4.012   1.749 -0.9393  0.4468  0.5123
 7865TIP3   OH247789   4.250   6.294   2.353  0.0199  0.4099  0.2326
 7865TIP3    H147790   4.255   6.310   2.447 -2.0611 -0.7265  0.5842
 7865TIP3    H247791   4.295   6.210   2.341  1.0796  0.9847  0.0449
 7866TIP3   OH247792   2.563   2.724   3.181  0.5120  0.3017 -0.2390
 7866TIP3    H147793   2.470   2.715   3.160  0.6686 -0.3130 -0.7070
 7866TIP3    H247794   2.591   2.635   3.203  1.4383  0.1154 -2.0060
 7867TIP3   OH247795   0.056   2.376   2.356  0.1719 -0.0415  0.3287
 7867TIP3    H147796   0.025   2.447   2.300  0.7181 -0.6044 -0.7258
 7867TIP3    H247797  -0.011   2.308   2.347  0.9667 -0.7060 -0.8367
 7868TIP3   OH247798   4.460   4.734   0.704  0.0132 -0.4226  0.4008
 7868TIP3    H147799   4.506   4.743   0.787  1.3769 -0.4023 -0.3376
 7868TIP3    H247800   4.369   4.755   0.726  0.3420 -0.3774  1.8730
 7869TIP3   OH247801   3.735   7.290   1.106 -0.0334  0.1226  0.1544
 7869TIP3    H147802   3.819   7.292   1.152  1.0931 -0.4516 -1.7556
 7869TIP3    H247803   3.737   7.208   1.057 -0.7087  1.1555 -1.6859
 7870TIP3   OH247804   7.668   2.332   2.012  0.4724  0.5982 -0.0530
 7870TIP3    H147805   7.578   2.299   2.013  0.6597  0.0475 -0.4173
 7870TIP3    H247806   7.669   2.405   2.073 -0.0232  0.0661  0.5944
 7871TIP3   OH247807   5.144   7.261   2.431  0.2324  0.1651  0.8633
 7871TIP3    H147808   5.159   7.236   2.522  0.1802 -0.6966  0.6407
 7871TIP3    H247809   5.061   7.220   2.407 -0.4593  1.5199  0.8308
 7872TIP3   OH247810   1.697   2.824   2.188  0.3235 -0.4140  0.4679
 7872TIP3    H147811   1.684   2.823   2.283  0.9456 -1.4602  0.5557
 7872TIP3    H247812   1.736   2.910   2.170 -0.8872  0.2594  0.9886
 7873TIP3   OH247813   2.196   3.071   1.147  0.1396 -0.5842 -0.0098
 7873TIP3    H147814   2.193   3.158   1.186 -2.7751 -0.6879  0.2346
 7873TIP3    H247815   2.283   3.065   1.107  2.2625  0.5992  3.9061
 7874TIP3   OH247816   5.680   1.030   1.239  0.0980  0.3458 -0.4953
 7874TIP3    H147817   5.761   0.980   1.226  0.6853  1.1121  0.0588
 7874TIP3    H247818   5.664   1.025   1.333  0.0514  1.0109 -0.4622
 7875TIP3   OH247819   2.165   1.174   2.092  0.3596 -0.3017  0.0163
 7875TIP3    H147820   2.131   1.246   2.039 -1.2325  0.7826  2.3345
 7875TIP3    H247821   2.257   1.167   2.066  0.9012  3.3110  0.3802
 7876TIP3   OH247822   1.476   7.202   3.104 -0.3635 -0.3322  0.2872
 7876TIP3    H147823   1.568   7.218   3.082 -0.4599 -0.1939 -0.0127
 7876TIP3    H247824   1.470   7.225   3.197 -0.3418  0.7174  0.0443
 7877TIP3   OH247825   3.247   6.186   1.544  0.6630 -0.4227 -0.6053
 7877TIP3    H147826   3.320   6.153   1.596  1.0580 -1.5117 -1.7839
 7877TIP3    H247827   3.281   6.188   1.454 -0.5687 -0.3629 -1.0901
 7878TIP3   OH247828   4.000   7.191   1.219 -0.3521  0.0678 -0.0133
 7878TIP3    H147829   4.086   7.202   1.258 -0.0624 -0.2072 -0.5719
 7878TIP3    H247830   4.015   7.138   1.141 -1.1471 -0.7155  0.3486
 7879TIP3   OH247831   4.518   1.290   1.641 -0.3268  0.4489  0.0980
 7879TIP3    H147832   4.437   1.311   1.687 -0.2218  2.0855 -0.3948
 7879TIP3    H247833   4.549   1.209   1.681 -1.5538  0.4722  1.1404
 7880TIP3   OH247834   1.160   0.539   1.882  0.1112  0.0269  0.3972
 7880TIP3    H147835   1.110   0.616   1.908  1.4206  0.8498  0.5737
 7880TIP3    H247836   1.236   0.574   1.835  1.0905 -1.1012  1.0737
 7881TIP3   OH247837   5.372   4.573   0.636 -0.6650  0.3437  0.2055
 7881TIP3    H147838   5.307   4.524   0.685  0.1836  0.5318  1.5750
 7881TIP3    H247839   5.430   4.507   0.599 -0.5028  0.2445  0.6330
 7882TIP3   OH247840   1.300   4.993   0.837  0.3994 -0.2386 -0.6205
 7882TIP3    H147841   1.226   4.993   0.897  1.3296  0.8678  0.5803
 7882TIP3    H247842   1.268   5.042   0.760 -0.2455 -0.1476 -0.3029
 7883TIP3   OH247843   2.503   3.096   3.047 -0.3761 -0.1462  0.2646
 7883TIP3    H147844   2.561   3.169   3.024 -1.7123  0.5771 -0.9365
 7883TIP3    H247845   2.513   3.034   2.975 -1.1933  0.0508 -0.0270
 7884TIP3   OH247846   3.895   3.997   1.464  0.3460  0.4767 -0.4315
 7884TIP3    H147847   3.902   3.971   1.556 -1.6469  1.3924  0.0375
 7884TIP3    H247848   3.930   3.922   1.416  0.0703 -0.6500  1.0277
 7885TIP3   OH247849   4.726   3.228   0.646  0.0242 -0.2949 -0.6417
 7885TIP3    H147850   4.665   3.302   0.635  0.3535  0.3045  1.3126
 7885TIP3    H247851   4.810   3.269   0.664  0.2828 -1.1366  0.1041
 7886TIP3   OH247852   0.909   1.403   1.595 -0.9590  0.3303 -0.0719
 7886TIP3    H147853   0.898   1.309   1.608 -0.5824  0.2621 -0.2266
 7886TIP3    H247854   0.992   1.424   1.639 -1.5550  0.7814  0.8491
 7887TIP3   OH247855   1.062   5.956   1.327  0.2734 -0.2137 -0.4544
 7887TIP3    H147856   1.157   5.961   1.329  0.3434 -1.5181  0.7298
 7887TIP3    H247857   1.033   6.047   1.337  1.3945  0.0856  0.2778
 7888TIP3   OH247858   6.748   3.091   2.917  0.3600 -0.6177  0.6546
 7888TIP3    H147859   6.819   3.151   2.893 -0.0424  0.0021  0.9891
 7888TIP3    H247860   6.793   3.016   2.957  0.8712 -0.5602  0.1940
 7889TIP3   OH247861   0.164   2.609   1.343 -0.3287  0.2562 -0.1388
 7889TIP3    H147862   0.127   2.695   1.323  1.5841  1.5801  1.6244
 7889TIP3    H247863   0.204   2.580   1.260 -3.1292 -0.1910 -1.4448
 7890TIP3   OH247864   0.362   1.748   0.864  0.0121 -0.1117 -0.2605
 7890TIP3    H147865   0.272   1.732   0.893 -0.4742  2.1026 -0.4023
 7890TIP3    H247866   0.370   1.699   0.782  0.2018 -3.3813  1.5551
 7891TIP3   OH247867   0.812   3.201   1.970 -0.0335 -0.6332  0.1853
 7891TIP3    H147868   0.875   3.145   1.926 -1.3902 -1.5681 -0.6456
 7891TIP3    H247869   0.755   3.141   2.019 -1.4198 -0.0163 -0.6007
 7892TIP3   OH247870   6.582   3.748   0.769  0.0518 -0.0326  0.0729
 7892TIP3    H147871   6.552   3.721   0.682  1.4968  2.1362 -1.2189
 7892TIP3    H247872   6.550   3.838   0.778 -1.2447 -0.6629  2.4433
 7893TIP3   OH247873   5.231   6.503   0.927  0.4816  0.4275  0.0232
 7893TIP3    H147874   5.320   6.535   0.911 -0.2871  2.1586 -1.0741
 7893TIP3    H247875   5.228   6.486   1.021  2.0619 -0.0305  0.0282
 7894TIP3   OH247876   3.714   2.794   1.123  0.0483 -0.1600 -0.2137
 7894TIP3    H147877   3.760   2.816   1.204  0.1767  0.4936 -0.4633
 7894TIP3    H247878   3.626   2.769   1.152  0.6097 -1.6664  0.2918
 7895TIP3   OH247879   3.496   6.915   1.788 -0.2004  0.9640  0.3791
 7895TIP3    H147880   3.569   6.865   1.823  0.5141  1.4717 -0.3523
 7895TIP3    H247881   3.424   6.901   1.850  0.4723  0.3442  1.0220
 7896TIP3   OH247882   7.554   5.436   0.972  0.2681 -0.4039 -0.3503
 7896TIP3    H147883   7.555   5.528   0.947 -3.2373 -0.6821 -2.1568
 7896TIP3    H247884   7.603   5.391   0.904 -0.3344 -0.1271 -0.9696
 7897TIP3   OH247885   2.929   6.565   3.119  0.0424 -0.3634 -0.5113
 7897TIP3    H147886   2.955   6.536   3.206 -2.4182 -0.2724  0.3154
 7897TIP3    H247887   2.991   6.635   3.097  0.9981 -0.7220  0.9338
 7898TIP3   OH247888   6.313   3.583   1.121 -0.3115 -0.0003 -0.2726
 7898TIP3    H147889   6.315   3.674   1.093  0.5940  0.4821  1.2662
 7898TIP3    H247890   6.347   3.534   1.046 -1.6560  0.7899 -1.4619
 7899TIP3   OH247891   1.040   4.330   1.289  0.1748  0.4241 -0.1431
 7899TIP3    H147892   1.025   4.272   1.214 -0.0957 -1.7215  1.4894
 7899TIP3    H247893   0.958   4.377   1.301  0.7367  2.1144 -2.1570
 7900TIP3   OH247894   2.132   4.585   2.802  0.5995  1.0762  0.2649
 7900TIP3    H147895   2.063   4.630   2.753  0.9851  1.8444  0.3985
 7900TIP3    H247896   2.163   4.517   2.743  0.1533  1.1235 -0.0342
 7901TIP3   OH247897   5.682   7.588   2.300 -0.1520 -0.3951  0.1001
 7901TIP3    H147898   5.762   7.622   2.340 -0.1522  0.0982 -0.3047
 7901TIP3    H247899   5.635   7.547   2.372  0.7773 -1.2912  0.2182
 7902TIP3   OH247900   3.937   6.653   2.114 -0.2586 -0.1416  0.5107
 7902TIP3    H147901   3.871   6.585   2.122 -1.5088  0.9085 -0.5012
 7902TIP3    H247902   3.943   6.691   2.202  2.2678 -3.0607  1.7886
 7903TIP3   OH247903   0.017   7.303   0.708 -0.3156  0.3301 -0.7253
 7903TIP3    H147904   0.059   7.272   0.628  0.2946  0.0425 -0.3006
 7903TIP3    H247905   0.068   7.263   0.778 -1.3096 -0.0321 -0.1937
 7904TIP3   OH247906   3.531   0.487   1.029  0.3355  0.3574 -0.5355
 7904TIP3    H147907   3.501   0.397   1.013 -0.1248  0.2568  0.7437
 7904TIP3    H247908   3.452   0.533   1.059  0.6804  1.0605 -0.7021
 7905TIP3   OH247909   4.538   0.337   3.351 -0.1713 -0.3238 -0.6133
 7905TIP3    H147910   4.538   0.432   3.347  2.4691 -0.3088 -2.7493
 7905TIP3    H247911   4.451   0.315   3.384 -0.9974  2.7795 -0.4055
 7906TIP3   OH247912   7.527   3.567   0.831 -0.5093  0.0870 -0.0773
 7906TIP3    H147913   7.590   3.639   0.821 -1.9429  1.4990  0.6080
 7906TIP3    H247914   7.577   3.488   0.810  1.7520  1.0483  1.3168
 7907TIP3   OH247915   4.520   2.828   8.488 -0.1923  0.1822  0.0877
 7907TIP3    H147916   4.552   2.805   8.401  0.7074 -2.4789  1.0215
 7907TIP3    H247917   4.502   2.744   8.530 -0.3889  1.3716  2.5530
 7908TIP3   OH247918   6.169   7.084   1.860  0.1933  0.6984  0.3097
 7908TIP3    H147919   6.131   7.169   1.839 -0.1509  1.0280  2.0826
 7908TIP3    H247920   6.096   7.033   1.894  0.2319 -0.6135 -1.4624
 7909TIP3   OH247921   0.364   4.544   2.410 -0.0115  0.0253  0.2215
 7909TIP3    H147922   0.347   4.472   2.471 -2.5808  1.1998  1.0506
 7909TIP3    H247923   0.287   4.546   2.353  0.6277  1.2951 -0.6635
 7910TIP3   OH247924   0.400   5.055   2.662 -0.1440  0.4291 -0.0444
 7910TIP3    H147925   0.411   4.962   2.645  0.3458  0.6085 -0.7355
 7910TIP3    H247926   0.384   5.094   2.576  0.4755  1.0967  0.1366
 7911TIP3   OH247927   2.976   2.284   1.278  0.0333 -0.3810  1.1602
 7911TIP3    H147928   2.990   2.353   1.214 -0.0194 -2.5882 -1.3893
 7911TIP3    H247929   2.881   2.277   1.286 -0.1702 -2.6910 -1.7241
 7912TIP3   OH247930   5.399   4.430   1.840  0.5591 -0.3952  1.0899
 7912TIP3    H147931   5.416   4.406   1.931  1.3370 -0.9536  0.8167
 7912TIP3    H247932   5.484   4.417   1.796  1.2142  3.3339  0.9665
 7913TIP3   OH247933   7.216   3.588   2.589 -0.0748  0.0159  0.0756
 7913TIP3    H147934   7.170   3.508   2.616 -1.0396  0.7450  0.6633
 7913TIP3    H247935   7.282   3.558   2.527 -1.1508 -1.1053 -0.5664
 7914TIP3   OH247936   0.475   6.478   0.996 -0.0024 -0.0769  0.3952
 7914TIP3    H147937   0.498   6.522   1.078 -1.8102 -0.4637  1.1742
 7914TIP3    H247938   0.519   6.528   0.928  2.7045 -0.5564  1.6677
 7915TIP3   OH247939   1.848   7.610   1.897  0.3962 -0.2907  0.4398
 7915TIP3    H147940   1.888   7.622   1.983  0.3145  0.6507  0.3508
 7915TIP3    H247941   1.842   7.698   1.861 -1.8795 -0.3592  0.5111
 7916TIP3   OH247942   2.056   0.018   2.358  0.0346 -0.2961  0.2394
 7916TIP3    H147943   2.060   0.045   2.450  2.3486 -0.1669  0.1690
 7916TIP3    H247944   2.136  -0.034   2.346 -0.5602 -0.8492 -1.5472
 7917TIP3   OH247945   3.635   4.092   1.042  0.2192  0.7473  0.3104
 7917TIP3    H147946   3.565   4.036   1.007 -1.2777  2.2384  0.7569
 7917TIP3    H247947   3.588   4.159   1.092  1.9945  1.8554  0.5466
 7918TIP3   OH247948   6.671   7.668   0.648  0.2514 -0.4515 -0.0554
 7918TIP3    H147949   6.594   7.642   0.699 -0.4512  2.4002  0.5174
 7918TIP3    H247950   6.636   7.726   0.580  1.7274 -0.5724 -0.9621
 7919TIP3   OH247951   5.861   2.850   0.805 -0.3254  0.1515  0.3018
 7919TIP3    H147952   5.809   2.928   0.786  1.6315  1.9254  1.8228
 7919TIP3    H247953   5.872   2.807   0.720 -1.3449  1.5847 -0.5986
 7920TIP3   OH247954   6.663   0.842   1.561  0.6549  0.0783  0.0425
 7920TIP3    H147955   6.708   0.796   1.489 -1.5451 -1.6723 -0.3352
 7920TIP3    H247956   6.629   0.922   1.521  0.5895 -0.2255 -0.5230
 7921TIP3   OH247957   4.066   6.203   2.176 -0.7434  0.2260 -0.1479
 7921TIP3    H147958   4.111   6.242   2.252 -0.7552 -0.3049  0.1392
 7921TIP3    H247959   4.033   6.120   2.209 -2.2068  0.7310 -0.2738
 7922TIP3   OH247960   7.258   6.894   2.113  0.2126  0.0334  0.5350
 7922TIP3    H147961   7.179   6.947   2.126  0.8823  1.3251 -0.4010
 7922TIP3    H247962   7.312   6.911   2.191  1.0639  1.9911 -0.3865
 7923TIP3   OH247963   2.151   5.089   1.686  0.2192  0.2875 -0.2549
 7923TIP3    H147964   2.124   5.079   1.777  1.1261 -1.1190 -0.1032
 7923TIP3    H247965   2.241   5.056   1.684  0.5919  1.3136 -1.4577
 7924TIP3   OH247966   0.426   6.939   1.366  0.3395  0.0724 -0.3436
 7924TIP3    H147967   0.342   6.894   1.368  0.2607  0.1738 -1.0942
 7924TIP3    H247968   0.459   6.933   1.456 -0.9188  0.8870  0.1925
 7925TIP3   OH247969   6.717   4.938   3.234  0.2036  0.1567 -0.5606
 7925TIP3    H147970   6.675   4.864   3.189 -0.8417  0.9443 -0.9127
 7925TIP3    H247971   6.797   4.901   3.272 -0.9259 -1.4550  0.3549
 7926TIP3   OH247972   7.591   6.462   1.868 -0.7996  0.0611  0.2012
 7926TIP3    H147973   7.571   6.369   1.878  1.1214 -0.4218 -0.0769
 7926TIP3    H247974   7.517   6.497   1.819 -2.3889 -0.9339  1.7576
 7927TIP3   OH247975   4.750   0.150   3.351  0.2573 -0.4565 -0.0556
 7927TIP3    H147976   4.665   0.171   3.390 -0.1442 -2.4538  0.2619
 7927TIP3    H247977   4.760   0.056   3.365  2.1542 -0.4104 -0.8376
 7928TIP3   OH247978   2.648   5.000   1.536  0.0202  0.2996  0.4092
 7928TIP3    H147979   2.696   4.988   1.618  2.2256  1.0634 -0.7044
 7928TIP3    H247980   2.688   4.938   1.475 -3.5222 -2.4464  0.5080
 7929TIP3   OH247981   1.755   3.179   2.850  0.4734 -0.6340 -0.5081
 7929TIP3    H147982   1.754   3.136   2.765 -3.9142 -1.4596 -0.2812
 7929TIP3    H247983   1.725   3.112   2.911 -2.7269  1.5020  0.5263
 7930TIP3   OH247984   6.984   4.464   0.706  0.2046 -0.0839  0.2191
 7930TIP3    H147985   7.034   4.473   0.625  0.0659 -0.7123  0.0639
 7930TIP3    H247986   7.045   4.492   0.775  0.3028  0.5031 -0.1008
 7931TIP3   OH247987   7.674   7.395   1.128 -0.2806 -0.6647 -0.6498
 7931TIP3    H147988   7.695   7.329   1.194 -1.0208 -1.4870 -1.2126
 7931TIP3    H247989   7.756   7.409   1.081 -0.3298 -1.9538 -1.1770
 7932TIP3   OH247990   7.324   5.444   2.545 -0.4568  0.4915  0.1795
 7932TIP3    H147991   7.273   5.369   2.515 -1.3445  1.2689 -0.2947
 7932TIP3    H247992   7.366   5.478   2.466  0.0848  0.3999  0.4201
 7933TIP3   OH247993   3.138   5.918   2.433  0.4449  0.0678 -0.7853
 7933TIP3    H147994   3.157   5.995   2.487 -1.7732  0.7032 -0.8146
 7933TIP3    H247995   3.192   5.848   2.471 -0.5620  0.6249  1.9167
 7934TIP3   OH247996   3.746   4.161   2.285 -0.0733 -0.3853  0.3141
 7934TIP3    H147997   3.663   4.172   2.332  1.1304  2.2010  2.0823
 7934TIP3    H247998   3.731   4.204   2.200 -0.3042  0.8683  0.9741
 7935TIP3   OH247999   2.683   3.165   0.612 -0.4618 -0.2371  0.0784
 7935TIP3    H148000   2.595   3.197   0.593  0.1158  1.7556  0.4638
 7935TIP3    H248001   2.671   3.077   0.647 -2.1814 -0.5155 -1.1280
 7936TIP3   OH248002   1.099   6.176   2.080 -0.3847 -0.2104  0.6665
 7936TIP3    H148003   1.171   6.137   2.130 -0.2796  0.2505  0.8734
 7936TIP3    H248004   1.031   6.109   2.080  0.8353 -1.5989 -1.4018
 7937TIP3   OH248005   1.577   4.148   1.953  0.7394 -0.3751 -0.3984
 7937TIP3    H148006   1.640   4.169   1.884 -1.8367  1.4050 -2.4061
 7937TIP3    H248007   1.529   4.073   1.919  2.1867 -2.2997  1.5182
 7938TIP3   OH248008   2.041   0.182   2.874 -0.0060 -0.5774 -0.6112
 7938TIP3    H148009   2.099   0.142   2.938 -2.3618 -1.8305  0.8684
 7938TIP3    H248010   2.069   0.145   2.790  1.5336 -0.8494 -0.0110
 7939TIP3   OH248011   1.253   4.454   0.597 -0.1871 -0.7963  0.6451
 7939TIP3    H148012   1.338   4.466   0.640  1.2408  0.4504 -2.2306
 7939TIP3    H248013   1.205   4.535   0.617  1.1957  0.6541 -1.3928
 7940TIP3   OH248014   4.311   7.080   1.480  0.5560  0.1421 -0.1000
 7940TIP3    H148015   4.376   7.115   1.541  1.0289 -0.2977 -0.3360
 7940TIP3    H248016   4.319   7.135   1.402  1.0164 -0.2140 -0.3187
 7941TIP3   OH248017   6.277   2.884   0.954  0.3211  0.2882  0.1717
 7941TIP3    H148018   6.205   2.844   1.003 -1.1178  0.5567 -1.6200
 7941TIP3    H248019   6.346   2.818   0.955 -0.6722 -0.7823  0.2854
 7942TIP3   OH248020   2.030   1.674   0.916  0.0644 -0.0552 -0.4192
 7942TIP3    H148021   1.938   1.693   0.899 -0.0727 -1.9944 -2.3068
 7942TIP3    H248022   2.074   1.758   0.902 -1.4832  1.1869  1.7091
 7943TIP3   OH248023   4.830   3.652   0.914  0.6680  0.2033 -0.0272
 7943TIP3    H148024   4.924   3.639   0.899  0.6513 -1.6573  1.0878
 7943TIP3    H248025   4.821   3.654   1.009 -0.6506 -2.1696 -0.0308
 7944TIP3   OH248026   2.392   1.941   0.543  0.1210  0.1557  0.4635
 7944TIP3    H148027   2.441   2.007   0.593 -1.1004  2.5013 -1.2198
 7944TIP3    H248028   2.458   1.881   0.510  1.7882  2.3925 -0.5517
 7945TIP3   OH248029   3.055   7.473   0.440 -0.1548 -0.0080  0.2717
 7945TIP3    H148030   3.053   7.451   0.533  0.0327 -1.0402  0.0483
 7945TIP3    H248031   3.039   7.567   0.437  1.0909  0.2749  1.4278
 7946TIP3   OH248032   1.451   2.104   3.008 -0.0903  0.5767  0.4659
 7946TIP3    H148033   1.492   2.176   3.057 -0.9551  1.4819 -0.0900
 7946TIP3    H248034   1.425   2.041   3.075 -2.2367  2.2711  1.3802
 7947TIP3   OH248035   3.615   5.553   0.936 -0.0708 -0.7798 -0.3238
 7947TIP3    H148036   3.702   5.524   0.965  0.3471  1.8226  1.3393
 7947TIP3    H248037   3.557   5.530   1.009  0.1725  1.8023  0.7773
 7948TIP3   OH248038   3.011   4.088   1.806 -0.1953  0.3632  0.1932
 7948TIP3    H148039   3.054   4.011   1.770 -0.3963  0.3397  0.0019
 7948TIP3    H248040   3.044   4.094   1.896 -0.4988 -0.1916  0.3510
 7949TIP3   OH248041   2.730   6.187   1.248 -0.1025 -0.3005  0.2631
 7949TIP3    H148042   2.694   6.188   1.160  0.0808 -2.0706  0.1283
 7949TIP3    H248043   2.817   6.148   1.238  1.0408  1.8836  0.8942
 7950TIP3   OH248044   0.411   0.906   1.045  0.1521  0.1415  0.1283
 7950TIP3    H148045   0.495   0.903   1.000 -0.1234  1.5635 -0.5465
 7950TIP3    H248046   0.375   0.992   1.023 -1.0090 -0.0180  1.2626
 7951TIP3   OH248047   3.000   7.484   2.737 -0.3408 -0.2783 -0.1691
 7951TIP3    H148048   2.959   7.533   2.808  1.1868  0.1478  0.4433
 7951TIP3    H248049   3.066   7.543   2.701  0.7178 -1.4457 -0.2049
 7952TIP3   OH248050   1.425   2.757   0.710  0.1744  0.3747 -0.2239
 7952TIP3    H148051   1.395   2.839   0.672 -0.7384 -0.3690 -1.1896
 7952TIP3    H248052   1.519   2.768   0.724  0.0044  1.6755 -0.0382
 7953TIP3   OH248053   3.152   4.396   0.708  0.3346  1.1164  0.5244
 7953TIP3    H148054   3.115   4.373   0.622 -0.4468 -0.2175  1.1862
 7953TIP3    H248055   3.107   4.477   0.732 -1.0124  0.3787  0.5849
 7954TIP3   OH248056   4.889   2.554   1.446 -0.0922 -0.2167 -0.3833
 7954TIP3    H148057   4.962   2.566   1.507  0.7233  0.4951 -1.4572
 7954TIP3    H248058   4.930   2.555   1.359 -1.4382  0.7585 -1.0383
 7955TIP3   OH248059   6.463   7.649   2.776  0.5916  0.5602 -0.1587
 7955TIP3    H148060   6.451   7.557   2.797 -1.3693  1.1711  1.6943
 7955TIP3    H248061   6.443   7.654   2.682  1.5456 -0.9853 -0.4866
 7956TIP3   OH248062   7.003   5.856   0.885  0.2249  0.0914  0.1304
 7956TIP3    H148063   7.012   5.816   0.799  1.0193 -0.5642  0.5018
 7956TIP3    H248064   7.068   5.927   0.886 -0.4154  0.6935 -0.1273
 7957TIP3   OH248065   5.182   0.512   2.185 -0.0384  0.1592  0.5620
 7957TIP3    H148066   5.246   0.565   2.233  0.5495 -1.4997  1.6994
 7957TIP3    H248067   5.150   0.449   2.250 -0.4757 -1.0732 -0.8103
 7958TIP3   OH248068   4.011   2.330   1.748 -0.2613  0.1141 -0.0153
 7958TIP3    H148069   3.932   2.285   1.717 -0.9618  0.9873  0.4850
 7958TIP3    H248070   4.022   2.298   1.838  0.8124 -1.1335 -0.5658
 7959TIP3   OH248071   6.910   7.214   1.355 -0.5437  0.7054 -0.4299
 7959TIP3    H148072   6.918   7.238   1.262 -0.4886  1.2231 -0.2921
 7959TIP3    H248073   6.997   7.231   1.392 -0.5145  0.3279 -0.3195
 7960TIP3   OH248074   2.596   5.749   2.825 -0.2274 -0.4978 -0.1096
 7960TIP3    H148075   2.676   5.697   2.816  0.6049  0.7658 -0.1568
 7960TIP3    H248076   2.534   5.708   2.764  1.0971 -0.1294 -1.7454
 7961TIP3   OH248077   0.233   2.070   1.525  0.2120  0.1003 -0.7324
 7961TIP3    H148078   0.311   2.036   1.568  0.6905 -0.5749 -2.0754
 7961TIP3    H248079   0.266   2.138   1.465 -0.2377 -0.0611 -1.1741
 7962TIP3   OH248080   6.358   3.421   0.845  0.0019 -0.2164  0.8881
 7962TIP3    H148081   6.282   3.473   0.815 -1.1537 -1.8273  0.9014
 7962TIP3    H248082   6.322   3.334   0.863  1.6226 -0.6557  2.2239
 7963TIP3   OH248083   2.451   3.260   1.308 -0.2499 -0.0602  0.7162
 7963TIP3    H148084   2.370   3.310   1.304 -0.9012 -1.0362 -3.8685
 7963TIP3    H248085   2.424   3.172   1.334 -0.3387  0.0320  0.9406
 7964TIP3   OH248086   0.907   4.959   1.283 -0.3312 -0.0180 -0.1579
 7964TIP3    H148087   0.830   5.013   1.267  0.3468  0.8579 -0.5811
 7964TIP3    H248088   0.944   4.993   1.364  0.2318  0.3301 -0.5510
 7965TIP3   OH248089   0.490   3.308   1.967 -0.0695 -0.1075 -0.0903
 7965TIP3    H148090   0.498   3.324   1.873 -0.7633 -1.5388 -0.4145
 7965TIP3    H248091   0.464   3.393   2.003  0.8763  0.6350 -1.0730
 7966TIP3   OH248092   2.420   3.000   1.367  0.8252 -0.0103  0.1159
 7966TIP3    H148093   2.341   2.947   1.375  0.9464 -0.3792 -0.9714
 7966TIP3    H248094   2.461   2.971   1.286  1.9025  0.4156  0.4773
 7967TIP3   OH248095   2.029   0.400   3.097  0.0167  0.0826 -0.3561
 7967TIP3    H148096   2.019   0.436   3.185  1.1993  2.2199 -1.0208
 7967TIP3    H248097   1.952   0.432   3.049  0.6544  1.0832 -0.7351
 7968TIP3   OH248098   3.462   7.530   1.891 -0.3308  0.2863 -0.2884
 7968TIP3    H148099   3.424   7.616   1.908  1.7888  1.2035  0.1087
 7968TIP3    H248100   3.529   7.545   1.825 -1.5047 -1.5254 -2.0126
 7969TIP3   OH248101   0.201   6.738   2.173  0.1409  0.1209  0.2924
 7969TIP3    H148102   0.168   6.653   2.142  0.9845  0.5267 -1.9898
 7969TIP3    H248103   0.294   6.722   2.189  0.7825  0.9885 -2.1222
 7970TIP3   OH248104   3.796   6.269   1.456 -0.3685 -0.2302 -1.0511
 7970TIP3    H148105   3.884   6.237   1.436 -0.7074 -0.4056 -2.3839
 7970TIP3    H248106   3.787   6.259   1.551  0.4517 -1.7494 -1.1049
 7971TIP3   OH248107   3.820   2.540   1.067  0.3436  0.1031  0.2262
 7971TIP3    H148108   3.806   2.633   1.088  0.1523  0.1549 -0.1229
 7971TIP3    H248109   3.844   2.540   0.975  1.8707 -0.0580  0.5977
 7972TIP3   OH248110   7.228   1.335   0.552  0.4623 -0.1551 -0.5563
 7972TIP3    H148111   7.155   1.274   0.546  0.9493 -0.8184  0.0209
 7972TIP3    H248112   7.274   1.326   0.469  1.3099 -1.6167  0.0314
 7973TIP3   OH248113   2.204   7.638   1.881  0.2031 -0.0570 -0.4502
 7973TIP3    H148114   2.202   7.699   1.807  3.6489  1.8626  0.8229
 7973TIP3    H248115   2.156   7.681   1.951  0.9271  0.3173 -0.1722
 7974TIP3   OH248116   4.788   5.097   1.652 -0.3580 -0.3506  0.6172
 7974TIP3    H148117   4.808   5.067   1.740 -1.6304  0.5797  1.2492
 7974TIP3    H248118   4.694   5.083   1.642 -0.1415 -1.0523 -0.8493
 7975TIP3   OH248119   1.018   5.257   3.125 -0.1703 -0.1118 -0.4045
 7975TIP3    H148120   1.027   5.174   3.172 -1.5214  0.8593  1.7160
 7975TIP3    H248121   1.045   5.323   3.188 -0.6728  1.1734 -1.4911
 7976TIP3   OH248122   3.594   1.275   2.354 -0.3277  0.2567 -0.2863
 7976TIP3    H148123   3.559   1.364   2.349  0.5394  0.9525  3.2201
 7976TIP3    H248124   3.518   1.220   2.374 -0.5864  0.5277 -0.5272
 7977TIP3   OH248125   3.281   2.287   1.738 -0.3030  0.4429 -0.0037
 7977TIP3    H148126   3.216   2.335   1.687 -0.1857  1.8771  1.1038
 7977TIP3    H248127   3.255   2.195   1.731 -0.7910  0.6896 -1.8637
 7978TIP3   OH248128   3.568   1.592   1.313  0.0923 -0.1694  0.1837
 7978TIP3    H148129   3.556   1.581   1.218 -0.9418  0.3332  0.2433
 7978TIP3    H248130   3.532   1.512   1.351 -1.3054  0.4738  0.2501
 7979TIP3   OH248131   4.197   4.355   3.343  0.7581  0.0796  0.1454
 7979TIP3    H148132   4.182   4.267   3.308  1.2769  0.1028 -0.1439
 7979TIP3    H248133   4.281   4.348   3.388  0.3787  0.2050  0.8802
 7980TIP3   OH248134   5.699   1.574   2.714  0.1711 -0.2742 -0.0153
 7980TIP3    H148135   5.690   1.560   2.619 -1.8200 -1.6686  0.3123
 7980TIP3    H248136   5.740   1.493   2.746  1.0202  0.2730  0.3098
 7981TIP3   OH248137   1.059   2.674   2.481 -0.4525 -0.2588  0.0985
 7981TIP3    H148138   1.065   2.650   2.574  1.0652  2.1437  0.7033
 7981TIP3    H248139   1.149   2.697   2.457 -1.1365  0.8764 -1.4774
 7982TIP3   OH248140   2.162   6.754   2.436 -0.1863 -0.0623 -0.0402
 7982TIP3    H148141   2.223   6.815   2.396 -0.1167 -0.7824 -1.0658
 7982TIP3    H248142   2.209   6.719   2.512  0.7832 -0.7768 -0.9449
 7983TIP3   OH248143   3.868   7.332   3.212 -0.1914 -0.0065 -0.1007
 7983TIP3    H148144   3.937   7.398   3.225 -0.2533  0.2988 -1.2683
 7983TIP3    H248145   3.909   7.264   3.160 -0.4579 -0.3574  0.1475
 7984TIP3   OH248146   5.984   7.587   2.381  0.3013 -0.3800  0.4062
 7984TIP3    H148147   5.945   7.512   2.426  2.0408 -1.1122  0.7367
 7984TIP3    H248148   6.012   7.645   2.451  0.2209 -0.0721  0.1842
 7985TIP3   OH248149   7.488   2.013   1.083 -0.4045  0.1923  0.8739
 7985TIP3    H148150   7.547   2.054   1.146  1.4787 -0.8091 -0.1443
 7985TIP3    H248151   7.546   1.975   1.017 -2.1778 -1.3601  0.1107
 7986TIP3   OH248152   2.462   1.030   2.396 -0.2775 -0.2412 -0.0966
 7986TIP3    H148153   2.508   0.951   2.368 -0.2653 -0.1707 -0.2748
 7986TIP3    H248154   2.390   1.040   2.333  1.9606  2.0742 -2.5273
 7987TIP3   OH248155   2.573   1.295   2.970 -0.3963 -0.3707  0.6252
 7987TIP3    H148156   2.649   1.272   3.024  0.0530  0.2406  0.2639
 7987TIP3    H248157   2.525   1.212   2.959  0.8074 -1.0052 -0.0700
 7988TIP3   OH248158   4.102   7.336   1.560 -0.3800  0.4955 -0.3765
 7988TIP3    H148159   4.162   7.291   1.620 -0.2962 -1.4984 -1.8553
 7988TIP3    H248160   4.155   7.407   1.523  0.6978 -0.4371 -0.6958
 7989TIP3   OH248161   3.156   0.696   2.359  0.5042  0.2158 -0.6230
 7989TIP3    H148162   3.112   0.619   2.395  0.0405  0.2340 -1.1309
 7989TIP3    H248163   3.176   0.672   2.268 -1.5670  1.4269 -1.4769
 7990TIP3   OH248164   0.686   7.415   1.055  0.0463  0.0999  0.3669
 7990TIP3    H148165   0.672   7.428   0.961 -1.5590  0.6095  0.6575
 7990TIP3    H248166   0.747   7.485   1.079  0.5786 -0.1145 -0.3050
 7991TIP3   OH248167   0.271   1.181   1.952 -0.4688  0.0031  0.3882
 7991TIP3    H148168   0.192   1.230   1.926  0.6293  2.2983  1.1609
 7991TIP3    H248169   0.247   1.139   2.035 -0.9486  0.4989  0.5050
 7992TIP3   OH248170   0.191   7.640   2.633  0.4772 -0.3428 -0.7062
 7992TIP3    H148171   0.286   7.653   2.639  0.4923 -0.3635 -0.9097
 7992TIP3    H248172   0.169   7.594   2.714  0.5209  0.3517 -0.2916
 7993TIP3   OH248173   4.104   5.829   3.129 -0.3113 -0.1993 -0.2205
 7993TIP3    H148174   4.061   5.785   3.056 -0.5948 -0.1828 -0.0640
 7993TIP3    H248175   4.174   5.880   3.089 -1.3840  0.9806 -0.6312
 7994TIP3   OH248176   5.042   1.853   1.950 -0.3445 -0.2492  0.0465
 7994TIP3    H148177   5.091   1.856   2.032 -1.4981  1.7005  0.7451
 7994TIP3    H248178   5.085   1.917   1.894 -1.0239  0.2115  0.0427
 7995TIP3   OH248179   3.495   2.710   2.676  0.0656 -0.6938 -0.2807
 7995TIP3    H148180   3.461   2.730   2.588  1.0575  1.6927 -0.1850
 7995TIP3    H248181   3.466   2.620   2.692 -1.3742 -0.7066 -2.4536
 7996TIP3   OH248182   7.216   1.637   2.604 -0.5384  0.1385  0.2307
 7996TIP3    H148183   7.123   1.637   2.626 -0.2814  0.7363  1.4328
 7996TIP3    H248184   7.260   1.618   2.687  0.4799  2.0048  0.1669
 7997TIP3   OH248185   7.269   1.453   1.639 -0.1182 -0.1847 -0.4133
 7997TIP3    H148186   7.277   1.527   1.580  0.1008  0.7170  0.7071
 7997TIP3    H248187   7.266   1.376   1.582  1.1532  0.5656 -1.5391
 7998TIP3   OH248188   0.493   0.175   2.015 -0.7114 -0.1707 -0.5934
 7998TIP3    H148189   0.465   0.084   2.020  0.6370 -0.6460 -1.2840
 7998TIP3    H248190   0.540   0.191   2.097  1.0378 -0.8240 -1.4238
 7999TIP3   OH248191   6.279   2.912   1.793 -0.1176 -0.1161 -0.2246
 7999TIP3    H148192   6.301   2.892   1.884 -0.9609 -0.3260 -0.0633
 7999TIP3    H248193   6.185   2.928   1.793  0.1514  1.7065 -0.7369
 8000TIP3   OH248194   5.644   1.216   1.548  0.7875 -0.2164  0.3622
 8000TIP3    H148195   5.671   1.169   1.627  2.1877 -2.6884 -1.4070
 8000TIP3    H248196   5.718   1.273   1.527  1.6173 -1.5690 -0.5470
 8001TIP3   OH248197   3.925   1.453   2.615  0.5729  0.5721 -0.6506
 8001TIP3    H148198   3.957   1.468   2.526 -2.1608 -0.3478 -1.8927
 8001TIP3    H248199   3.830   1.462   2.608  0.0850 -1.6689  1.7377
 8002TIP3   OH248200   0.567   4.472   1.940 -0.1964  0.1160 -0.2105
 8002TIP3    H148201   0.635   4.414   1.976  0.3450 -0.4126 -1.9661
 8002TIP3    H248202   0.614   4.552   1.917 -0.4273  0.2673 -0.1461
 8003TIP3   OH248203   4.500   3.466   1.063 -0.2619 -0.4331 -0.1144
 8003TIP3    H148204   4.564   3.413   1.016  0.0409 -0.7555  0.6384
 8003TIP3    H248205   4.524   3.457   1.155  0.3674  1.7418 -0.0092
 8004TIP3   OH248206   0.744   5.228   1.159 -0.3139  0.6176 -0.6905
 8004TIP3    H148207   0.695   5.310   1.157 -0.2250  0.9919  3.6330
 8004TIP3    H248208   0.702   5.177   1.229  2.3610 -1.1197 -0.2148
 8005TIP3   OH248209   6.237   4.738   2.341 -0.2974  0.1848 -0.6869
 8005TIP3    H148210   6.145   4.729   2.366 -0.4998 -1.2512 -1.8364
 8005TIP3    H248211   6.272   4.649   2.342  1.5135  0.8196  1.1351
 8006TIP3   OH248212   4.967   1.881   2.392 -0.1128 -0.1648  0.3215
 8006TIP3    H148213   5.044   1.875   2.336  0.4805 -1.0198  1.2016
 8006TIP3    H248214   4.943   1.790   2.409 -1.8853  0.0643 -0.6719
 8007TIP3   OH248215   6.108   5.121   0.750  0.6791  0.5405  0.1481
 8007TIP3    H148216   6.073   5.121   0.661  2.3093 -0.3508 -0.5420
 8007TIP3    H248217   6.108   5.213   0.777 -1.9732  0.6033  0.1620
 8008TIP3   OH248218   0.973   2.771   3.424 -0.0342 -0.7257 -0.2434
 8008TIP3    H148219   1.021   2.759   3.342  1.3743 -2.9803  0.8257
 8008TIP3    H248220   1.040   2.796   3.488 -1.1903  1.5413  0.1927
 8009TIP3   OH248221   5.630   6.726   0.973  0.2255 -0.2353  0.0545
 8009TIP3    H148222   5.574   6.649   0.974  2.4860 -1.9704  1.4085
 8009TIP3    H248223   5.700   6.704   0.911  0.8501  0.7609  0.3794
 8010TIP3   OH248224   4.933   0.244   1.043 -0.4953 -0.1834 -0.3057
 8010TIP3    H148225   4.850   0.215   1.006 -0.9591 -0.4810  0.9111
 8010TIP3    H248226   4.910   0.274   1.131  1.0546 -2.6478  1.0393
 8011TIP3   OH248227   2.170   6.716   2.888 -0.1140  0.4596 -0.4234
 8011TIP3    H148228   2.109   6.790   2.885 -0.1467  0.4626  0.2196
 8011TIP3    H248229   2.118   6.641   2.856 -0.9218  0.1525  1.4992
 8012TIP3   OH248230   5.978   0.539   3.150  0.2897  0.2646  0.8770
 8012TIP3    H148231   5.887   0.556   3.174  0.0020 -0.3935  0.3004
 8012TIP3    H248232   6.022   0.623   3.159 -0.1768  0.4150  1.9940
 8013TIP3   OH248233   1.809   3.805   0.524 -0.6112 -0.4162 -0.1878
 8013TIP3    H148234   1.727   3.835   0.484 -0.8396 -2.1783 -1.1441
 8013TIP3    H248235   1.787   3.722   0.565  0.0393  0.4969  2.2394
 8014TIP3   OH248236   4.977   0.195   2.004  0.1881 -0.4482  0.2995
 8014TIP3    H148237   4.913   0.247   2.053 -0.2088 -2.6683  2.3505
 8014TIP3    H248238   4.950   0.105   2.018  0.5627 -1.3035 -3.5183
 8015TIP3   OH248239   4.522   0.449   2.708  0.4343 -0.1732  0.1491
 8015TIP3    H148240   4.454   0.427   2.644  0.2914  0.3412  0.1246
 8015TIP3    H248241   4.581   0.373   2.707  1.1806  0.3680 -1.5843
 8016TIP3   OH248242   2.646   2.337   1.566 -0.2136 -0.7188 -0.2191
 8016TIP3    H148243   2.688   2.295   1.641 -1.6627  1.2990  1.8526
 8016TIP3    H248244   2.565   2.373   1.601 -0.8757  0.4634 -2.7453
 8017TIP3   OH248245   0.639   2.180   1.278 -0.0222 -0.6355 -0.1671
 8017TIP3    H148246   0.573   2.217   1.219  0.3652  0.8315  0.3060
 8017TIP3    H248247   0.672   2.103   1.231 -0.9506 -0.4875 -1.0946
 8018TIP3   OH248248   7.099   6.312   1.100 -0.1570  0.5001 -0.3012
 8018TIP3    H148249   7.010   6.339   1.121 -0.0053 -0.6857  2.2934
 8018TIP3    H248250   7.155   6.370   1.151  0.2730 -2.1054  2.4511
 8019TIP3   OH248251   4.378   0.291   1.540  0.1565  0.0681 -0.3065
 8019TIP3    H148252   4.412   0.369   1.583 -0.4442  1.2113 -1.8207
 8019TIP3    H248253   4.428   0.285   1.459 -1.2772  0.1360 -1.2174
 8020TIP3   OH248254   3.883   0.649   2.577 -0.0694  0.1287 -0.0211
 8020TIP3    H148255   3.864   0.582   2.642  0.6772 -0.5423 -0.4686
 8020TIP3    H248256   3.960   0.616   2.531  1.1596  1.9608  0.6568
 8021TIP3   OH248257   1.267   4.547   3.129 -0.2550 -0.1484 -0.0423
 8021TIP3    H148258   1.251   4.641   3.140  0.0869 -0.2413  1.5680
 8021TIP3    H248259   1.181   4.507   3.136 -0.3496  0.0181 -0.2603
 8022TIP3   OH248260   0.663   2.581   2.869  0.2962  0.1362  0.3015
 8022TIP3    H148261   0.727   2.524   2.912  2.2318  2.2162  0.3756
 8022TIP3    H248262   0.578   2.551   2.902  1.3497 -1.4471  1.7646
 8023TIP3   OH248263   1.057   7.519   0.848 -0.5939 -0.3290 -0.0725
 8023TIP3    H148264   1.144   7.481   0.861 -1.4129 -2.5271 -0.6109
 8023TIP3    H248265   1.015   7.510   0.934 -0.2876  0.8504  0.2228
 8024TIP3   OH248266   1.202   2.188   3.456 -0.0890 -0.4699  0.1117
 8024TIP3    H148267   1.117   2.180   3.501 -2.4378  0.7073 -3.6512
 8024TIP3    H248268   1.234   2.098   3.451 -1.9266 -1.1898  0.2381
 8025TIP3   OH248269   3.358   6.896   1.309 -0.2068  0.0970  0.2481
 8025TIP3    H148270   3.423   6.898   1.379 -0.2972  0.8479  0.3183
 8025TIP3    H248271   3.353   6.804   1.284  2.3871  0.2350 -1.1733
 8026TIP3   OH248272   7.234   4.555   1.711 -0.8600  0.1302  0.1416
 8026TIP3    H148273   7.268   4.478   1.665  0.5484 -0.2108  1.6605
 8026TIP3    H248274   7.140   4.555   1.693 -0.5057 -0.4778 -1.9769
 8027TIP3   OH248275   5.216   2.027   1.267 -0.1400 -0.5951 -0.0057
 8027TIP3    H148276   5.200   2.041   1.174  1.7349  1.8005 -0.0558
 8027TIP3    H248277   5.135   2.054   1.310  0.0947  1.5403 -0.7912
 8028TIP3   OH248278   4.496   3.644   2.409  0.3644 -0.1770 -0.1399
 8028TIP3    H148279   4.402   3.652   2.425  0.5513  1.2949  0.3765
 8028TIP3    H248280   4.520   3.726   2.365  0.9881 -1.5616 -2.6007
 8029TIP3   OH248281   2.863   5.832   2.166 -0.7822  0.0914 -0.2580
 8029TIP3    H148282   2.897   5.919   2.186 -0.9409  0.0508  0.1929
 8029TIP3    H248283   2.886   5.818   2.074  1.1617 -0.2769  0.2361
 8030TIP3   OH248284   3.711   2.071   1.861 -0.3094 -0.6297  0.5155
 8030TIP3    H148285   3.646   2.022   1.810 -0.6568 -3.6632  3.5408
 8030TIP3    H248286   3.794   2.031   1.838  0.0300  0.5273 -0.3533
 8031TIP3   OH248287   2.069   0.819   1.515  0.1295 -0.0329  0.1765
 8031TIP3    H148288   1.990   0.772   1.489 -0.0396 -0.4596  1.3976
 8031TIP3    H248289   2.134   0.794   1.450 -0.7285  0.3533 -0.8720
 8032TIP3   OH248290   2.928   2.736   1.624  0.6812 -0.2607 -0.1337
 8032TIP3    H148291   2.995   2.748   1.691 -0.1550 -1.3130  0.9310
 8032TIP3    H248292   2.972   2.758   1.542  1.8876  0.5135  0.6863
 8033TIP3   OH248293   6.878   5.266   2.451  0.0389 -0.3927  0.2271
 8033TIP3    H148294   6.950   5.298   2.506  0.5859 -0.6377 -0.3280
 8033TIP3    H248295   6.805   5.252   2.511  1.0716 -2.1013  1.1442
 8034TIP3   OH248296   1.512   3.255   2.343 -0.4349 -0.3027 -0.1061
 8034TIP3    H148297   1.493   3.252   2.249  0.1019  0.6186 -0.2639
 8034TIP3    H248298   1.445   3.200   2.383  0.1173 -1.8028 -1.1337
 8035TIP3   OH248299   3.378   5.459   1.721 -0.2413  0.1479  0.4997
 8035TIP3    H148300   3.312   5.412   1.772 -1.5305  0.0140 -1.2021
 8035TIP3    H248301   3.355   5.441   1.629  3.1423 -1.3144 -0.2419
 8036TIP3   OH248302   0.923   2.334   2.679  0.0780  0.4558 -0.2875
 8036TIP3    H148303   1.000   2.289   2.714 -1.0472 -0.7894  0.6835
 8036TIP3    H248304   0.941   2.427   2.692  1.0691  0.1483  0.6703
 8037TIP3   OH248305   0.532   7.020   2.036  0.1883  0.1420  0.0721
 8037TIP3    H148306   0.446   6.980   2.024  0.2454 -0.0739  0.3756
 8037TIP3    H248307   0.565   6.982   2.117  1.2036 -0.9054 -0.7829
 8038TIP3   OH248308   4.142   0.610   1.619 -0.5169 -0.0126 -0.2910
 8038TIP3    H148309   4.057   0.574   1.641 -1.0069  0.9092 -0.6208
 8038TIP3    H248310   4.139   0.621   1.524  0.6143 -1.5524 -0.5534
 8039TIP3   OH248311   1.038   0.915   3.105 -0.5318 -0.1488 -0.1725
 8039TIP3    H148312   1.039   0.837   3.160  0.1315  0.5773  0.8740
 8039TIP3    H248313   0.960   0.963   3.134 -0.7812 -0.2825 -0.6179
 8040TIP3   OH248314   0.926   6.541   1.953  0.1765 -0.5711  0.3818
 8040TIP3    H148315   0.988   6.600   1.911 -0.3424  1.0262  1.7281
 8040TIP3    H248316   0.893   6.486   1.883  2.2825 -0.7194 -0.5490
 8041TIP3   OH248317   7.400   0.095   0.628 -0.0578 -0.2563  0.6943
 8041TIP3    H148318   7.474   0.035   0.631 -0.0173 -0.2984 -0.5710
 8041TIP3    H248319   7.324   0.040   0.646  0.0638 -0.5286  0.3946
 8042TIP3   OH248320   7.476   2.649   0.629  0.2269  0.4913  0.3218
 8042TIP3    H148321   7.501   2.630   0.719 -0.4597 -1.1292  0.2179
 8042TIP3    H248322   7.402   2.591   0.612 -0.2876  1.4707 -0.9843
 8043TIP3   OH248323   3.914   6.710   3.166  0.3615  0.0295  0.0048
 8043TIP3    H148324   3.998   6.687   3.126  0.0785 -0.3491 -0.3774
 8043TIP3    H248325   3.938   6.766   3.240  0.8673  1.0790 -0.9314
 8044TIP3   OH248326   6.324   1.702   2.335  0.1127 -0.1283  0.1774
 8044TIP3    H148327   6.406   1.751   2.328  0.1061 -0.1573 -0.0987
 8044TIP3    H248328   6.292   1.694   2.245 -0.4903  0.3789  0.3386
 8045TIP3   OH248329   3.068   1.183   1.561  0.2285 -0.0294 -0.1433
 8045TIP3    H148330   2.996   1.183   1.625 -0.4151 -2.5249 -0.7470
 8045TIP3    H248331   3.031   1.141   1.484  1.4330  1.5857 -1.6840
 8046TIP3   OH248332   0.921   2.241   1.809  0.5141 -0.0308 -0.1270
 8046TIP3    H148333   0.881   2.263   1.725  0.4164  2.0628  0.4178
 8046TIP3    H248334   0.880   2.158   1.834 -1.4200  0.6225 -0.9109
 8047TIP3   OH248335   3.222   0.035   1.928  0.3273 -0.1784  0.5921
 8047TIP3    H148336   3.183   0.021   1.842  0.8182  0.7449  0.2030
 8047TIP3    H248337   3.189  -0.037   1.982 -1.0453 -0.0211 -0.0031
 8048TIP3   OH248338   6.668   4.550   2.937  0.1128 -0.1839 -0.0320
 8048TIP3    H148339   6.732   4.609   2.896 -1.1480  1.0975 -0.2356
 8048TIP3    H248340   6.646   4.487   2.868 -0.5711  0.7984 -0.7337
 8049TIP3   OH248341   7.564   0.199   2.046 -0.0158  0.0695  0.2024
 8049TIP3    H148342   7.659   0.213   2.047  0.1284 -0.8445  0.7814
 8049TIP3    H248343   7.535   0.236   1.963  1.0908 -1.1341 -0.7451
 8050TIP3   OH248344   3.817   1.408   1.508  0.2962 -0.0944 -0.2840
 8050TIP3    H148345   3.829   1.369   1.595  0.4692 -1.1996 -0.7801
 8050TIP3    H248346   3.723   1.423   1.501  0.2861  0.0309  0.1149
 8051TIP3   OH248347   2.543   3.117   2.029 -0.5071  0.2969 -0.0501
 8051TIP3    H148348   2.467   3.136   2.085 -0.2219  1.3052  0.0094
 8051TIP3    H248349   2.540   3.184   1.961  0.9457  1.0592  0.5866
 8052TIP3   OH248350   0.076   2.200   1.218  0.3277 -0.0039  0.4118
 8052TIP3    H148351   0.100   2.118   1.175 -0.8627  0.9190 -2.2194
 8052TIP3    H248352   0.159   2.243   1.235  0.8826 -0.8639 -0.0519
 8053TIP3   OH248353   3.811   1.008   3.556 -0.2482 -0.3313  0.6840
 8053TIP3    H148354   3.885   1.054   3.516 -0.6462 -0.1815  0.1078
 8053TIP3    H248355   3.825   0.916   3.532 -0.5245 -0.2334  0.1145
 8054TIP3   OH248356   2.252   1.124   3.180  0.7173 -0.5441  0.0357
 8054TIP3    H148357   2.297   1.178   3.246 -0.0098  1.2560 -0.8580
 8054TIP3    H248358   2.195   1.067   3.230  0.3939  0.5908  1.0124
 8055TIP3   OH248359   3.538   5.823   1.149 -0.2182  0.0611 -0.2893
 8055TIP3    H148360   3.482   5.814   1.226  2.2584 -0.7954  1.5340
 8055TIP3    H248361   3.584   5.739   1.142  1.5833  1.0547 -1.0715
 8056TIP3   OH248362   2.349   1.212   3.414 -0.4852 -0.7456  0.3636
 8056TIP3    H148363   2.354   1.197   3.508  1.3856 -1.0270  0.2595
 8056TIP3    H248364   2.340   1.307   3.405  0.1544 -0.6382  0.8199
 8057TIP3   OH248365   1.322   3.796   2.128 -0.0406 -0.2730  0.2978
 8057TIP3    H148366   1.334   3.886   2.158 -0.1221 -0.3280  0.4974
 8057TIP3    H248367   1.289   3.805   2.038  0.9718 -0.1176 -0.0711
 8058TIP3   OH248368   3.079   1.931   2.638  0.0179  0.2022  0.4437
 8058TIP3    H148369   3.068   1.844   2.676  1.3088 -0.3887 -0.4510
 8058TIP3    H248370   3.174   1.940   2.627 -0.1373  1.5344  0.0970
 8059TIP3   OH248371   4.804   1.952   0.592  0.1873 -0.1227 -0.0382
 8059TIP3    H148372   4.887   1.978   0.551  0.0602  0.7441  0.2447
 8059TIP3    H248373   4.759   2.034   0.611 -0.7635 -0.5872 -0.2148
 8060TIP3   OH248374   6.193   1.556   1.114  0.3161  0.0712  0.1962
 8060TIP3    H148375   6.281   1.536   1.083  0.1644  0.0533 -0.2399
 8060TIP3    H248376   6.136   1.500   1.061 -0.0257  0.7886 -0.2222
 8061TIP3   OH248377   4.419   1.437   2.334 -0.0757 -0.0347  0.0656
 8061TIP3    H148378   4.326   1.430   2.313 -0.1914 -0.0734  0.5735
 8061TIP3    H248379   4.447   1.347   2.353  0.5068 -0.3039 -1.8422
 8062TIP3   OH248380   4.430   7.405   1.467 -0.6764  0.0343  0.2213
 8062TIP3    H148381   4.457   7.422   1.557  1.7651 -0.4438 -0.3572
 8062TIP3    H248382   4.443   7.488   1.421  0.3964 -0.3220 -0.1638
 8063TIP3   OH248383   7.376   5.007   1.558 -0.2312  0.5692 -0.7043
 8063TIP3    H148384   7.370   4.915   1.583 -0.5933  0.7858  0.0366
 8063TIP3    H248385   7.433   5.007   1.482  1.8289 -0.0135  0.7450
 8064TIP3   OH248386   0.997   2.971   2.351 -0.0478 -0.3835  0.0797
 8064TIP3    H148387   0.943   2.976   2.430  0.3294 -0.2995  0.3363
 8064TIP3    H248388   1.045   2.889   2.360  0.0705 -0.3249 -0.0118
 8065TIP3   OH248389   5.220   2.037   2.111  0.2796  0.1372 -0.0372
 8065TIP3    H148390   5.192   2.126   2.132 -1.3103 -0.3370  0.0092
 8065TIP3    H248391   5.292   2.048   2.049 -2.1698  1.4868 -2.9071
 8066TIP3   OH248392   3.577   5.552   3.163 -0.2096  0.3720 -0.4035
 8066TIP3    H148393   3.553   5.546   3.255 -1.4793 -0.6242 -0.7788
 8066TIP3    H248394   3.658   5.501   3.155 -0.8955 -0.7955 -0.0960
 8067TIP3   OH248395   0.515   3.149   0.409  0.1216  0.0265 -0.5970
 8067TIP3    H148396   0.420   3.163   0.408 -0.2347 -1.3843  2.4947
 8067TIP3    H248397   0.552   3.236   0.396 -1.5248  0.5016 -2.6661
 8068TIP3   OH248398   3.940   6.865   2.596  0.5898 -0.0068  0.6065
 8068TIP3    H148399   3.936   6.915   2.677 -1.1097  1.8340 -0.5283
 8068TIP3    H248400   4.027   6.885   2.560  0.5203  0.9370  0.9287
 8069TIP3   OH248401   2.694   2.215   2.665 -0.5993 -0.0030 -0.3486
 8069TIP3    H148402   2.672   2.271   2.740 -2.3167  0.7998 -1.3838
 8069TIP3    H248403   2.775   2.252   2.631  0.3588 -0.5436  1.2374
 8070TIP3   OH248404   3.241   7.447   2.273  0.0859 -0.2532  0.0049
 8070TIP3    H148405   3.161   7.395   2.266 -0.2400  0.2183  0.1985
 8070TIP3    H248406   3.309   7.390   2.236 -0.7857  0.4143 -2.9348
 8071TIP3   OH248407   7.519   7.261   2.519  0.1367  0.0998  1.3133
 8071TIP3    H148408   7.484   7.300   2.599  1.1384 -0.1765  1.9111
 8071TIP3    H248409   7.513   7.166   2.534 -0.7859  0.0195  0.5448
 8072TIP3   OH248410   0.417   5.294   1.315 -0.0996  0.0655  0.3366
 8072TIP3    H148411   0.416   5.377   1.268  4.2302  0.4032  0.4343
 8072TIP3    H248412   0.379   5.314   1.400 -2.5489  0.9100 -0.8662
 8073TIP3   OH248413   6.433   4.105   1.601 -0.2802 -0.3612 -0.2012
 8073TIP3    H148414   6.493   4.177   1.615 -0.6873 -0.2625  1.1441
 8073TIP3    H248415   6.409   4.111   1.508  0.6365  0.4707 -0.3929
 8074TIP3   OH248416   5.740   4.566   1.374  0.3691 -0.2474  0.4909
 8074TIP3    H148417   5.814   4.540   1.429  0.9858 -2.3402 -1.1922
 8074TIP3    H248418   5.777   4.629   1.312  0.3517 -0.0767  0.6527
 8075TIP3   OH248419   6.116   2.090   1.556 -0.1283 -0.5469  0.2735
 8075TIP3    H148420   6.188   2.135   1.512  0.2957 -2.0130 -0.6269
 8075TIP3    H248421   6.039   2.143   1.537  0.2971 -0.3590 -0.9955
 8076TIP3   OH248422   1.828   1.058   1.367 -0.7334  0.2112  0.3306
 8076TIP3    H148423   1.775   1.076   1.289 -0.8748 -1.0704  0.1090
 8076TIP3    H248424   1.915   1.039   1.332 -0.9661 -1.0980  0.3869
 8077TIP3   OH248425   0.394   7.636   1.053  0.0586  0.4638 -0.7409
 8077TIP3    H148426   0.442   7.659   0.974  2.1262 -1.2790 -0.0879
 8077TIP3    H248427   0.372   7.543   1.041 -1.0273  0.5987  0.0557
 8078TIP3   OH248428   2.529   1.621   1.139 -0.4927  0.1624  0.3276
 8078TIP3    H148429   2.586   1.563   1.088  1.0868  0.3501  1.7577
 8078TIP3    H248430   2.529   1.582   1.227 -1.7987  0.7249  0.5904
 8079TIP3   OH248431   2.265   3.017   3.150 -0.0950 -0.7805 -0.1824
 8079TIP3    H148432   2.290   2.997   3.240  0.4345 -2.0721 -0.5814
 8079TIP3    H248433   2.341   3.062   3.113  0.1410 -1.2674 -0.2989
 8080TIP3   OH248434   7.023   2.310   1.380  0.0018  0.2168  0.1279
 8080TIP3    H148435   6.957   2.246   1.351 -0.1701 -0.4621  1.9230
 8080TIP3    H248436   7.106   2.275   1.346 -0.0544 -1.1353  1.2678
 8081TIP3   OH248437   4.409   0.839   2.055 -0.3110 -0.3595 -0.3795
 8081TIP3    H148438   4.337   0.850   1.993 -0.8513 -2.7154 -0.2517
 8081TIP3    H248439   4.367   0.809   2.136  0.6747 -0.2174  0.2032
 8082TIP3   OH248440   3.687   2.010   1.205  0.2772  0.3208  0.5693
 8082TIP3    H148441   3.719   1.949   1.271  0.8194  0.3134  0.3074
 8082TIP3    H248442   3.598   2.031   1.233 -0.5968 -1.9436 -0.2625
 8083TIP3   OH248443   1.294   5.262   2.178  0.0499 -0.4102 -0.4226
 8083TIP3    H148444   1.281   5.167   2.167  1.6739 -0.7792  0.4646
 8083TIP3    H248445   1.206   5.298   2.179 -0.6029 -1.8756 -1.0700
 8084TIP3   OH248446   6.732   1.451   0.934  0.6549  0.0234 -0.1298
 8084TIP3    H148447   6.736   1.386   1.005  1.2354  1.3211  1.0617
 8084TIP3    H248448   6.708   1.532   0.978  1.8888  1.0519 -1.2902
 8085TIP3   OH248449   2.448   0.524   2.782 -0.2460 -0.4857 -0.0520
 8085TIP3    H148450   2.456   0.479   2.866 -1.1726  2.4683  1.7608
 8085TIP3    H248451   2.538   0.540   2.755  0.0596 -0.9008  0.6931
 8086TIP3   OH248452   4.524   2.780   1.250  0.4440 -0.6195  0.8923
 8086TIP3    H148453   4.606   2.734   1.233 -0.4371 -1.5790 -1.0872
 8086TIP3    H248454   4.461   2.740   1.190 -0.6242  2.4801 -0.2235
 8087TIP3   OH248455   7.481   6.852   0.773 -0.1821 -0.1434  0.3395
 8087TIP3    H148456   7.565   6.860   0.819  0.0332  1.2502 -0.2425
 8087TIP3    H248457   7.445   6.940   0.775 -1.2626 -0.5651 -0.1371
 8088TIP3   OH248458   3.668   0.203   1.899 -0.2794 -0.2756 -0.0659
 8088TIP3    H148459   3.588   0.197   1.950 -0.9791 -1.5257 -1.2495
 8088TIP3    H248460   3.649   0.267   1.830 -0.0432 -0.1144  0.0162
 8089TIP3   OH248461   1.679   2.614   3.287  0.1223 -0.5139 -0.2095
 8089TIP3    H148462   1.600   2.637   3.335  0.4901  1.3706 -0.4249
 8089TIP3    H248463   1.700   2.693   3.236  1.2167 -1.5418 -1.4246
 8090TIP3   OH248464   0.619   1.756   2.761 -0.7568  0.2068 -0.5731
 8090TIP3    H148465   0.606   1.667   2.729 -0.4535 -0.5672  1.3418
 8090TIP3    H248466   0.709   1.757   2.794 -1.6984  0.2185  2.2899
 8091TIP3   OH248467   5.664   1.111   2.686 -0.5057  0.2871  0.6652
 8091TIP3    H148468   5.601   1.164   2.637 -0.0721  0.3619  0.1786
 8091TIP3    H248469   5.681   1.036   2.629  0.1074  0.4459  0.6366
 8092TIP3   OH248470   7.527   2.754   1.740 -0.4242  0.3634 -0.1622
 8092TIP3    H148471   7.510   2.680   1.682  1.8360 -0.3474 -0.0283
 8092TIP3    H248472   7.580   2.814   1.687 -0.6801  1.0043  0.3023
 8093TIP3   OH248473   4.714   1.209   2.114 -0.5923 -0.1713  0.0103
 8093TIP3    H148474   4.729   1.119   2.141 -1.7859 -1.4573 -3.0976
 8093TIP3    H248475   4.801   1.247   2.105  0.0166 -1.5983 -0.3262
 8094TIP3   OH248476   7.072   3.942   2.989  0.3068  0.1873  0.1106
 8094TIP3    H148477   7.057   3.848   2.979  3.7584 -0.6322  1.2743
 8094TIP3    H248478   7.103   3.971   2.903 -0.3940  0.1882 -0.1442
 8095TIP3   OH248479   0.188   5.463   3.195 -0.1870  0.4828 -0.6894
 8095TIP3    H148480   0.265   5.409   3.207 -0.4974  0.1040 -0.3615
 8095TIP3    H248481   0.175   5.467   3.101  2.3161  3.5225 -1.0541
 8096TIP3   OH248482   4.480   7.302   2.561 -0.3364 -0.3972  0.5605
 8096TIP3    H148483   4.462   7.387   2.599  0.6505 -0.6751  1.7442
 8096TIP3    H248484   4.394   7.264   2.543 -0.8454  0.0120  1.9735
 8097TIP3   OH248485   2.400   2.063   0.973  0.7020  0.0748  0.8050
 8097TIP3    H148486   2.459   2.096   0.905 -0.2263  0.4112  0.1439
 8097TIP3    H248487   2.436   1.977   0.996  1.6013  0.3861  0.6193
 8098TIP3   OH248488   1.225   1.538   1.958 -0.1472 -0.2432  0.2049
 8098TIP3    H148489   1.310   1.562   1.996 -0.8601  3.0438  0.0583
 8098TIP3    H248490   1.171   1.516   2.034 -0.4065  2.3082  0.8771
 8099TIP3   OH248491   3.227   1.579   1.893 -0.0328  0.4774  0.0609
 8099TIP3    H148492   3.210   1.497   1.939  2.0781 -0.3287 -0.4966
 8099TIP3    H248493   3.166   1.642   1.933 -1.2299 -1.1788  0.9474
 8100TIP3   OH248494   5.040   1.616   1.137  0.2477  0.0730 -0.6220
 8100TIP3    H148495   5.020   1.523   1.143  1.9093 -0.3435 -1.1074
 8100TIP3    H248496   4.969   1.659   1.185 -0.5319 -1.4261 -0.3749
 8101TIP3   OH248497   4.406   3.301   1.827 -0.0726  0.7186  0.5548
 8101TIP3    H148498   4.344   3.372   1.812 -1.0743  0.1102  1.6376
 8101TIP3    H248499   4.380   3.265   1.912 -1.0009 -2.3377 -0.9003
 8102TIP3   OH248500   1.510   6.598   1.819 -0.4460  0.2695 -0.1725
 8102TIP3    H148501   1.528   6.532   1.886 -1.6573  0.5234  0.4363
 8102TIP3    H248502   1.579   6.663   1.830 -0.8951  0.5613  1.1919
 8103TIP3   OH248503   7.334   0.918   2.397  0.0903 -0.3235  0.1028
 8103TIP3    H148504   7.401   0.850   2.401  0.4644 -0.0486 -1.0878
 8103TIP3    H248505   7.381   0.999   2.416  0.1660 -0.0898 -1.0604
 8104TIP3   OH248506   1.340   4.321   1.012 -0.2926  0.1694 -0.6145
 8104TIP3    H148507   1.320   4.234   1.048  0.0955  0.6436  0.8241
 8104TIP3    H248508   1.267   4.340   0.953 -0.3716 -1.1363 -0.9733
 8105TIP3   OH248509   4.473   5.421   2.635  0.1203  0.5071 -0.4208
 8105TIP3    H148510   4.478   5.366   2.714  0.3940  0.5816 -0.3844
 8105TIP3    H248511   4.455   5.508   2.669 -2.5710  0.1026 -0.5935
 8106TIP3   OH248512   3.399   1.834   1.958  0.7308 -0.0540  0.1198
 8106TIP3    H148513   3.345   1.804   2.031 -1.9862 -0.8740 -2.0367
 8106TIP3    H248514   3.442   1.913   1.990 -1.6846  0.5928  2.0758
 8107TIP3   OH248515   3.333   0.708   0.431  0.3487 -0.2719  0.3015
 8107TIP3    H148516   3.252   0.759   0.425  1.1754  0.9123 -1.5516
 8107TIP3    H248517   3.397   0.770   0.466  1.0610 -0.3895 -0.7664
 8108TIP3   OH248518   1.922   0.895   3.703  0.9106 -0.5226 -0.4148
 8108TIP3    H148519   2.005   0.880   3.657  2.2601 -0.5549  1.8878
 8108TIP3    H248520   1.909   0.816   3.756  0.9890  0.7040  1.5003
 8109TIP3   OH248521   7.017   6.566   1.503 -0.0987  0.2263  0.1323
 8109TIP3    H148522   7.087   6.502   1.488  0.1500 -0.1163  2.3450
 8109TIP3    H248523   7.059   6.636   1.552 -0.6561  1.5334 -1.2098
 8110TIP3   OH248524   3.569   0.161   0.751  0.3258 -0.4325  0.7159
 8110TIP3    H148525   3.577   0.066   0.755  1.8793 -0.3048  1.3557
 8110TIP3    H248526   3.531   0.186   0.835 -1.8144 -0.5962 -0.1510
 8111TIP3   OH248527   3.631   5.202   2.794  0.0373  0.2274 -0.2893
 8111TIP3    H148528   3.656   5.251   2.873 -1.2153 -0.0881  0.3210
 8111TIP3    H248529   3.686   5.239   2.725  0.1359  1.5000  0.4384
 8112TIP3   OH248530   2.771   6.993   3.043  0.3914  0.4075 -0.2778
 8112TIP3    H148531   2.736   7.077   3.012  0.4349  1.0836  1.4165
 8112TIP3    H248532   2.698   6.932   3.034  0.0569  0.8480 -0.6080
 8113TIP3   OH248533   1.596   0.359   0.692 -0.1402 -0.0286 -0.5918
 8113TIP3    H148534   1.538   0.355   0.768  0.6948 -1.0745  0.0130
 8113TIP3    H248535   1.623   0.450   0.687  0.8178 -0.1795  1.1742
 8114TIP3   OH248536   7.378   0.619   2.167  0.2381  0.5664  0.6350
 8114TIP3    H148537   7.432   0.602   2.090 -1.1178 -2.9961  0.2996
 8114TIP3    H248538   7.297   0.656   2.132  0.0408 -0.0426  0.4327
 8115TIP3   OH248539   0.043   3.124   1.789  0.5594 -0.4053 -0.3745
 8115TIP3    H148540   0.074   3.147   1.701  1.2195 -1.5427 -0.4655
 8115TIP3    H248541   0.115   3.073   1.827 -0.6874 -2.0586 -0.1136
 8116TIP3   OH248542   0.832   1.363   2.789 -0.1865  1.1114  0.2182
 8116TIP3    H148543   0.866   1.313   2.715 -2.3844  1.4333 -1.1001
 8116TIP3    H248544   0.798   1.296   2.849 -1.6801  0.9054 -0.7996
 8117TIP3   OH248545   7.337   2.796   2.548 -0.2061  0.6029 -0.0581
 8117TIP3    H148546   7.383   2.712   2.549 -0.3301  0.5361  0.1015
 8117TIP3    H248547   7.291   2.798   2.464 -0.8847  0.1386  0.2958
 8118TIP3   OH248548   3.077   7.650   1.440  0.2211 -0.5599  0.1251
 8118TIP3    H148549   3.136   7.621   1.370  0.3474 -1.1433  0.4591
 8118TIP3    H248550   3.129   7.639   1.520  0.1266  0.2380  0.2989
 8119TIP3   OH248551   2.924   2.084   0.703 -0.3824 -0.1048  0.2781
 8119TIP3    H148552   2.934   2.078   0.798 -0.4291 -0.4758  0.2623
 8119TIP3    H248553   2.836   2.120   0.691  0.0675  1.0964  0.3842
 8120TIP3   OH248554   0.698   3.804   1.118  0.1617 -0.5759  0.5683
 8120TIP3    H148555   0.707   3.896   1.093  0.5078 -0.6588  0.3875
 8120TIP3    H248556   0.629   3.804   1.185 -2.0969 -0.5531 -1.6008
 8121TIP3   OH248557   3.105   0.145   2.608 -0.2381  0.3579  0.1690
 8121TIP3    H148558   3.170   0.080   2.582 -0.8896 -0.9637  1.6392
 8121TIP3    H248559   3.150   0.199   2.674 -0.3657 -0.0405  0.5887
 8122TIP3   OH248560   6.303   4.371   8.803 -0.0236  0.2432  0.5222
 8122TIP3    H148561   6.292   4.463   8.778 -1.0927  0.3728  1.4187
 8122TIP3    H248562   6.222   4.347   8.847  0.4497 -0.9837  0.7875
 8123TIP3   OH248563   1.144   2.060   0.581  0.2641 -0.2965  0.2675
 8123TIP3    H148564   1.148   1.976   0.536  1.1836 -0.3852  0.4830
 8123TIP3    H248565   1.101   2.041   0.664 -2.3372  0.0479 -0.8986
 8124TIP3   OH248566   6.361   1.764   0.907  0.2698 -0.2541 -0.0741
 8124TIP3    H148567   6.403   1.731   0.827 -0.8661 -1.1091 -0.3336
 8124TIP3    H248568   6.273   1.727   0.905  0.4166 -0.8264  1.8928
 8125TIP3   OH248569   4.607   7.592   1.175 -0.1298  0.0344 -0.4959
 8125TIP3    H148570   4.531   7.622   1.226 -0.0160  0.3936 -0.5361
 8125TIP3    H248571   4.601   7.497   1.179 -0.6315  0.0570 -0.5639
 8126TIP3   OH248572   3.167   3.054   1.745 -0.2787  0.4346 -0.0723
 8126TIP3    H148573   3.230   3.126   1.742  0.1727  0.0837 -3.7218
 8126TIP3    H248574   3.086   3.094   1.777  0.3366  2.2303 -0.6520
 8127TIP3   OH248575   7.110   4.132   2.231  0.2579 -0.3714  0.4727
 8127TIP3    H148576   7.059   4.087   2.164 -2.8113 -0.9163  2.9378
 8127TIP3    H248577   7.196   4.090   2.227 -0.2126 -1.2839 -2.1652
 8128TIP3   OH248578   6.376   4.026   1.889  0.0628 -0.2592 -0.2592
 8128TIP3    H148579   6.419   4.073   1.818  0.6759 -0.2405  0.1117
 8128TIP3    H248580   6.322   3.960   1.846 -0.5560  0.5639 -0.7798
 8129TIP3   OH248581   4.214   0.451   3.216  0.4028  0.5907 -0.0317
 8129TIP3    H148582   4.252   0.383   3.272 -0.5739  0.5807  0.6437
 8129TIP3    H248583   4.169   0.509   3.277  2.2079  2.5587 -0.4336
 8130TIP3   OH248584   2.603   5.547   1.500  0.1041 -0.0226 -0.4502
 8130TIP3    H148585   2.624   5.628   1.453  1.4869 -1.4325 -2.3948
 8130TIP3    H248586   2.511   5.531   1.480 -0.8900  2.1377  1.7853
 8131TIP3   OH248587   2.927   0.009   0.523  0.1192 -0.0671 -0.4031
 8131TIP3    H148588   2.856  -0.050   0.497  1.1481 -2.4910  1.7907
 8131TIP3    H248589   2.889   0.062   0.593  0.4367 -1.4693  0.8773
 8132TIP3   OH248590   1.931   3.531   2.493 -0.3387  0.0810  0.0753
 8132TIP3    H148591   1.852   3.565   2.534 -0.1899  1.4303 -0.6805
 8132TIP3    H248592   1.901   3.496   2.409 -0.2446 -0.0493  0.0966
 8133TIP3   OH248593   1.508   1.877   1.008 -0.7909 -0.5863  0.1813
 8133TIP3    H148594   1.488   1.879   0.914  0.0646 -0.8324 -0.0191
 8133TIP3    H248595   1.440   1.822   1.046 -2.6636  1.5314  0.1125
 8134TIP3   OH248596   3.832   1.972   9.046 -0.3002  0.3693  0.2987
 8134TIP3    H148597   3.852   2.038   8.980 -1.6569 -1.2083 -1.8235
 8134TIP3    H248598   3.736   1.971   9.051 -0.2421  0.3982  2.3174
 8135TIP3   OH248599   2.778   4.985   1.945  0.5349  0.0862 -0.2494
 8135TIP3    H148600   2.810   5.068   1.981  1.1940 -0.1343 -0.3173
 8135TIP3    H248601   2.685   5.001   1.928  0.1402  0.1234  1.7454
 8136TIP3   OH248602   7.349   3.063   2.589  0.5271 -0.0595 -0.2364
 8136TIP3    H148603   7.368   2.976   2.555 -1.4768 -0.8072  0.3921
 8136TIP3    H248604   7.253   3.069   2.589  0.6073  2.3822 -0.8110
 8137TIP3   OH248605   0.857   0.533   1.214 -0.2094  0.0822 -0.2287
 8137TIP3    H148606   0.916   0.459   1.200 -0.8099 -0.2490 -1.0615
 8137TIP3    H248607   0.851   0.540   1.309 -0.8907 -1.5597 -0.1192
 8138TIP3   OH248608   7.583   0.965   2.069  0.2911 -0.4218  0.2791
 8138TIP3    H148609   7.610   0.873   2.070 -0.6464 -0.7014  0.5744
 8138TIP3    H248610   7.656   1.011   2.111 -0.0968 -1.2899  2.0113
 8139TIP3   OH248611   6.656   4.268   2.176 -0.2065  0.3878 -0.0736
 8139TIP3    H148612   6.659   4.309   2.263  3.3291  0.7076 -0.1975
 8139TIP3    H248613   6.640   4.175   2.194 -0.4190  0.5999  0.8642
 8140TIP3   OH248614   5.201   3.664   2.117  0.4192  0.4066  0.4074
 8140TIP3    H148615   5.268   3.599   2.099 -0.9271 -1.3728  1.5177
 8140TIP3    H248616   5.228   3.741   2.067  2.9099 -0.4471  0.3332
 8141TIP3   OH248617   2.515   7.429   0.791 -0.3407 -0.3492  0.2310
 8141TIP3    H148618   2.551   7.403   0.706 -1.5442  0.7455 -0.6669
 8141TIP3    H248619   2.429   7.466   0.770 -0.1781  1.0391  1.7930
 8142TIP3   OH248620   1.618   7.604   2.118  0.3107  0.1453 -0.3014
 8142TIP3    H148621   1.698   7.564   2.152  0.1573  0.7329  0.8087
 8142TIP3    H248622   1.574   7.534   2.070  0.1419 -0.9790  1.4194
 8143TIP3   OH248623   1.489   2.960   1.355  0.2071 -0.1165  0.0397
 8143TIP3    H148624   1.456   2.895   1.418  0.7627 -1.1744 -0.7271
 8143TIP3    H248625   1.462   3.044   1.392 -1.7312 -0.8220  0.3906
 8144TIP3   OH248626   6.032   6.193   0.840 -0.5148 -0.1114 -0.2959
 8144TIP3    H148627   6.123   6.192   0.811 -0.0435 -0.6633  1.1260
 8144TIP3    H248628   6.022   6.277   0.886  0.1593 -1.2566  2.0869
 8145TIP3   OH248629   6.824   4.788   0.779 -0.4041  0.6612  0.0238
 8145TIP3    H148630   6.826   4.719   0.713  2.1569  0.8478 -0.1725
 8145TIP3    H248631   6.788   4.745   0.857  0.5661 -0.7499 -0.2695
 8146TIP3   OH248632   0.118   0.739   2.502  0.2007  0.4322  0.0808
 8146TIP3    H148633   0.061   0.724   2.577  1.0277 -3.1309  0.1917
 8146TIP3    H248634   0.059   0.750   2.428 -0.6245  0.9377  0.8071
 8147TIP3   OH248635   0.230   0.749   3.587 -0.1065  0.1379 -0.1244
 8147TIP3    H148636   0.298   0.816   3.586 -0.1264  0.2194 -2.6556
 8147TIP3    H248637   0.272   0.672   3.549 -1.0894 -0.1757 -0.6074
 8148TIP3   OH248638   5.649   3.592   1.525 -0.2706 -0.0612  1.2312
 8148TIP3    H148639   5.698   3.573   1.605  0.3410 -0.5451  0.7391
 8148TIP3    H248640   5.715   3.596   1.456 -0.7301  0.9064  0.8301
 8149TIP3   OH248641   3.179   5.938   2.182  0.1580  0.5736  0.2914
 8149TIP3    H148642   3.111   6.004   2.193  0.6448  0.9755  0.9792
 8149TIP3    H248643   3.214   5.925   2.270 -0.3659 -1.0863  0.3062
 8150TIP3   OH248644   2.167   6.100   1.108 -0.2077  0.0337 -0.1768
 8150TIP3    H148645   2.243   6.047   1.132  0.3858  1.0657  0.2353
 8150TIP3    H248646   2.094   6.037   1.106  0.4310 -0.7471  0.5837
 8151TIP3   OH248647   1.537   4.189   1.580 -0.4742 -0.1705  0.7894
 8151TIP3    H148648   1.449   4.212   1.609 -0.4116 -0.4657  1.2190
 8151TIP3    H248649   1.524   4.144   1.497 -0.8155 -1.2406  1.4085
 8152TIP3   OH248650   2.354   7.591   1.500  0.0836 -0.2674 -0.1275
 8152TIP3    H148651   2.402   7.509   1.509  0.4073  0.0540  1.3895
 8152TIP3    H248652   2.271   7.575   1.543  0.0007  0.0825 -0.1516
 8153TIP3   OH248653   1.613   0.804   2.516 -0.4925 -0.5291  0.2513
 8153TIP3    H148654   1.610   0.759   2.600 -0.6862  0.6444  0.8915
 8153TIP3    H248655   1.532   0.854   2.512  0.0263  0.3094 -0.1145
 8154TIP3   OH248656   5.128   0.796   0.444  0.4989 -0.3329  0.3133
 8154TIP3    H148657   5.040   0.758   0.439  0.3174  0.2263 -1.6580
 8154TIP3    H248658   5.182   0.726   0.483 -0.7241 -0.7923  1.2789
 8155TIP3   OH248659   3.888   4.460   2.230 -0.4849  0.1707  0.7632
 8155TIP3    H148660   3.811   4.415   2.196  0.2797 -0.8076  0.2692
 8155TIP3    H248661   3.921   4.402   2.298  0.3731  0.0937  0.2927
 8156TIP3   OH248662   5.494   6.619   2.204  0.0329  0.8311 -0.1275
 8156TIP3    H148663   5.443   6.689   2.164 -0.9686  0.2150  0.0459
 8156TIP3    H248664   5.451   6.601   2.287  0.1302 -0.1599 -0.2817
 8157TIP3   OH248665   7.634   5.634   2.049  0.2145  0.0372  0.3435
 8157TIP3    H148666   7.565   5.573   2.022 -1.6214  0.9406  2.6201
 8157TIP3    H248667   7.641   5.696   1.976 -2.8866  1.0815  0.7915
 8158TIP3   OH248668   2.432   4.633   2.419  0.1340  0.0747 -0.4348
 8158TIP3    H148669   2.448   4.701   2.354 -1.7115  0.1156 -0.8896
 8158TIP3    H248670   2.346   4.654   2.456  1.2769  0.3127  2.3646
 8159TIP3   OH248671   3.515   5.224   2.348 -0.3756 -0.2037 -0.0146
 8159TIP3    H148672   3.546   5.315   2.338 -0.4011 -0.3119 -1.2441
 8159TIP3    H248673   3.422   5.228   2.329 -0.7919 -0.2016  1.8135
 8160TIP3   OH248674   1.124   2.306   1.311  0.0342  0.0842 -0.7306
 8160TIP3    H148675   1.092   2.395   1.328 -1.8257 -1.0970  3.0583
 8160TIP3    H248676   1.071   2.276   1.237 -2.2237  0.8844  0.4433
 8161TIP3   OH248677   7.262   0.119   1.907 -0.1149 -1.0768 -0.2321
 8161TIP3    H148678   7.355   0.143   1.905  0.1922 -1.9685  1.4295
 8161TIP3    H248679   7.239   0.103   1.815  0.3146  2.7967 -1.1680
 8162TIP3   OH248680   7.317   4.503   1.972  0.2579  0.3292  0.5632
 8162TIP3    H148681   7.289   4.500   1.881  2.5401  1.9984 -0.2849
 8162TIP3    H248682   7.375   4.428   1.982  2.4578  1.8001 -0.3557
 8163TIP3   OH248683   7.530   4.675   2.128  0.2711  0.1161 -0.2128
 8163TIP3    H148684   7.459   4.631   2.177  0.7093  0.5546  0.8478
 8163TIP3    H248685   7.485   4.738   2.072 -0.2067  0.1440  0.1949
 8164TIP3   OH248686   6.467   7.274   2.304 -0.0799 -0.3542  0.3482
 8164TIP3    H148687   6.453   7.188   2.345  0.6534 -0.9085 -0.5451
 8164TIP3    H248688   6.404   7.331   2.348 -2.2490 -1.8420 -0.6106
 8165TIP3   OH248689   2.229   6.495   2.346 -0.2272  0.5447  0.0084
 8165TIP3    H148690   2.192   6.573   2.388 -0.7615 -1.1565  2.9853
 8165TIP3    H248691   2.296   6.464   2.407  0.3573 -1.0433 -1.3618
 8166TIP3   OH248692   2.591   2.916   1.706  0.0196  0.3603 -0.1156
 8166TIP3    H148693   2.527   2.851   1.678  1.0073  0.4719 -2.8790
 8166TIP3    H248694   2.538   2.991   1.732 -1.0229  0.0167 -1.1483
 8167TIP3   OH248695   5.849   4.860   1.990 -0.6023 -0.7977  0.1725
 8167TIP3    H148696   5.809   4.946   1.973  0.7147 -0.3479 -0.8433
 8167TIP3    H248697   5.835   4.811   1.909  1.6475 -0.2887 -0.6062
 8168TIP3   OH248698   0.928   7.445   2.645 -0.4881  0.6333  0.2745
 8168TIP3    H148699   0.866   7.426   2.575  0.1557  0.9941 -0.4110
 8168TIP3    H248700   0.924   7.368   2.702 -1.2914  0.5004  0.0456
 8169TIP3   OH248701   0.900   0.309   0.696  0.2376  0.2759 -0.0625
 8169TIP3    H148702   0.994   0.296   0.694  0.2533 -0.6490  2.5546
 8169TIP3    H248703   0.863   0.221   0.683 -0.2425  0.5025 -0.2719
 8170TIP3   OH248704   3.634   2.891   0.848 -0.2107 -0.3385  0.0356
 8170TIP3    H148705   3.691   2.839   0.904  0.9573  0.6218 -0.2155
 8170TIP3    H248706   3.553   2.841   0.843  0.7353 -1.9275  0.0879
 8171TIP3   OH248707   4.145   0.610   1.357  0.6303  0.1448  0.3583
 8171TIP3    H148708   4.159   0.516   1.346  0.6000 -0.1298  2.3006
 8171TIP3    H248709   4.062   0.627   1.314  0.5831 -0.7430  0.0723
 8172TIP3   OH248710   1.702   7.168   0.665 -0.4053 -0.2752  0.1999
 8172TIP3    H148711   1.707   7.263   0.673  1.2178 -0.4710  3.0052
 8172TIP3    H248712   1.773   7.145   0.604 -0.6490  0.3028 -0.2991
 8173TIP3   OH248713   5.470   1.302   1.162 -0.2778 -0.3059 -0.5160
 8173TIP3    H148714   5.432   1.295   1.250  1.1306 -1.3955  0.0582
 8173TIP3    H248715   5.485   1.212   1.136  1.0397  0.0587 -1.0833
 8174TIP3   OH248716   2.941   3.204   2.706  0.2890 -0.1878 -0.1771
 8174TIP3    H148717   2.899   3.287   2.680  0.2642 -0.7320 -1.9745
 8174TIP3    H248718   3.000   3.229   2.777  1.0142  1.5633 -1.3303
 8175TIP3   OH248719   2.024   5.934   2.925 -0.5634 -0.0530  0.8040
 8175TIP3    H148720   1.939   5.939   2.968 -1.0340 -0.4164 -0.0496
 8175TIP3    H248721   2.016   5.994   2.850  0.5450  1.2643  1.7116
 8176TIP3   OH248722   5.489   7.438   2.476 -0.0802  0.6852 -0.1035
 8176TIP3    H148723   5.469   7.356   2.521  1.1327  0.2090 -0.3788
 8176TIP3    H248724   5.524   7.495   2.545 -0.7529  0.9114  0.0539
 8177TIP3   OH248725   6.067   3.045   1.655  0.4041  0.2078 -0.2540
 8177TIP3    H148726   6.103   3.126   1.619  2.1727  1.4100  3.7252
 8177TIP3    H248727   6.137   2.980   1.645  1.1302  0.6973  1.2844
 8178TIP3   OH248728   3.587   3.701   3.429  0.3609  0.2828  0.4705
 8178TIP3    H148729   3.595   3.784   3.381  0.5568 -0.0928 -0.1582
 8178TIP3    H248730   3.676   3.682   3.459  0.4925 -0.1449 -0.1595
 8179TIP3   OH248731   6.030   1.893   0.656  0.0128 -0.0367  0.2582
 8179TIP3    H148732   6.009   1.897   0.562 -0.9186 -0.0811  0.4515
 8179TIP3    H248733   5.953   1.931   0.699  0.6335  0.4185  0.9868
 8180TIP3   OH248734   3.998   4.195   0.669 -0.2555 -0.1406 -0.1111
 8180TIP3    H148735   3.978   4.105   0.696  0.7464 -0.3660 -0.1039
 8180TIP3    H248736   3.975   4.248   0.745  1.3626 -0.6472  0.7789
 8181TIP3   OH248737   4.302   0.625   3.026  0.0831 -0.3412 -0.8257
 8181TIP3    H148738   4.294   0.553   3.088  0.6630 -0.8721 -1.3500
 8181TIP3    H248739   4.245   0.694   3.061 -2.6618 -1.9956 -1.6440
 8182TIP3   OH248740   3.001   7.331   2.122 -0.6819  0.0052  0.2366
 8182TIP3    H148741   3.057   7.339   2.045 -0.6837  0.4142  0.2730
 8182TIP3    H248742   2.940   7.260   2.101 -0.6653  0.0962 -0.1261
 8183TIP3   OH248743   4.835   5.649   0.707  0.5507 -0.0277  0.2608
 8183TIP3    H148744   4.744   5.670   0.727  0.8278  0.8718  0.5980
 8183TIP3    H248745   4.872   5.731   0.676  1.7379  0.1022  1.9039
 8184TIP3   OH248746   7.235   6.525   1.224 -0.4235  0.0224 -0.0028
 8184TIP3    H148747   7.301   6.594   1.227  0.0131 -0.2252 -2.1146
 8184TIP3    H248748   7.240   6.483   1.310  0.7087  1.3234  0.6032
 8185TIP3   OH248749   0.102   4.784   0.334 -0.3209  0.1081 -0.3771
 8185TIP3    H148750   0.190   4.762   0.304 -1.2491 -0.6381 -2.7249
 8185TIP3    H248751   0.095   4.741   0.419  1.0168 -1.1702 -0.8638
 8186TIP3   OH248752   1.350   7.145   0.450  0.2402 -0.1529 -0.5891
 8186TIP3    H148753   1.379   7.062   0.488  1.1101  1.3085  2.2593
 8186TIP3    H248754   1.262   7.127   0.417  0.6141 -2.3288 -0.5099
 8187TIP3   OH248755   3.730   6.603   1.687  0.2098 -0.1597  0.2200
 8187TIP3    H148756   3.680   6.528   1.720 -0.8346 -0.3312 -1.6074
 8187TIP3    H248757   3.754   6.652   1.766  0.2242 -1.9710  1.3978
 8188TIP3   OH248758   0.204   2.343   0.669  0.1911  0.3621  0.3536
 8188TIP3    H148759   0.188   2.386   0.753  1.4196  0.6162  0.4759
 8188TIP3    H248760   0.118   2.341   0.626 -0.3490  0.6889  1.3956
 8189TIP3   OH248761   3.505   0.751   2.157  0.2784  0.0910 -0.2144
 8189TIP3    H148762   3.456   0.680   2.116  0.7966 -1.4378  1.6624
 8189TIP3    H248763   3.572   0.707   2.210  1.1495  2.0042  0.3709
 8190TIP3   OH248764   5.688   3.306   2.494  0.2151  0.1924 -0.4593
 8190TIP3    H148765   5.629   3.243   2.452 -0.0383  0.4931 -0.5511
 8190TIP3    H248766   5.772   3.259   2.501 -0.0539 -0.2641 -0.2555
 8191TIP3   OH248767   3.121   3.326   2.874 -0.3168 -0.4657  0.2051
 8191TIP3    H148768   3.186   3.259   2.896 -0.2792 -0.5466 -0.1506
 8191TIP3    H248769   3.161   3.408   2.902 -0.2893 -0.5723  0.4823
 8192TIP3   OH248770   4.555   6.311   1.646  0.6552 -0.2093  0.2381
 8192TIP3    H148771   4.581   6.248   1.579 -0.1333 -1.4704  1.0790
 8192TIP3    H248772   4.489   6.266   1.698  2.0312  0.2882  2.5830
 8193TIP3   OH248773   3.670   3.307   2.499 -0.4762 -0.3125 -0.3671
 8193TIP3    H148774   3.732   3.334   2.431  0.5422 -1.0923  0.2143
 8193TIP3    H248775   3.715   3.326   2.582 -1.6866  0.6027  0.1063
 8194TIP3   OH248776   4.861   0.349   1.285 -0.0447 -0.1385 -0.7188
 8194TIP3    H148777   4.898   0.295   1.355  0.2428  0.9755  0.0174
 8194TIP3    H248778   4.906   0.433   1.293 -1.0620  0.4854 -1.2987
 8195TIP3   OH248779   0.617   7.394   0.789 -0.3233 -0.5318 -0.1465
 8195TIP3    H148780   0.533   7.428   0.760  0.3827 -0.5924 -2.4426
 8195TIP3    H248781   0.596   7.309   0.829 -1.2639 -1.0490 -1.6638
 8196TIP3   OH248782   6.733   2.676   1.682  0.1435  0.1544 -0.2402
 8196TIP3    H148783   6.742   2.596   1.735  0.1832 -1.3049 -2.3006
 8196TIP3    H248784   6.639   2.686   1.671  0.1700 -0.6606 -1.4014
 8197TIP3   OH248785   6.072   0.028   1.438 -0.4588  0.0607 -0.4362
 8197TIP3    H148786   5.982   0.019   1.471 -0.5062  0.2204 -0.5195
 8197TIP3    H248787   6.107   0.103   1.486  0.1545 -0.9518  0.7383
 8198TIP3   OH248788   4.455   7.672   1.431  0.7207 -0.2176  0.3765
 8198TIP3    H148789   4.482   7.752   1.386  0.4545  0.0006  0.6002
 8198TIP3    H248790   4.476   7.688   1.523 -1.3371  0.4874  0.7708
 8199TIP3   OH248791   1.999   5.150   3.165  0.7313  0.1586  0.6491
 8199TIP3    H148792   2.077   5.098   3.150  1.7306  1.6309  0.5080
 8199TIP3    H248793   1.949   5.102   3.231  3.4650  0.8781  3.4730
 8200TIP3   OH248794   1.313   2.621   1.093 -0.0334 -0.6110  0.1130
 8200TIP3    H148795   1.389   2.662   1.134 -0.2118 -0.2677  0.1062
 8200TIP3    H248796   1.332   2.528   1.095 -0.1808 -0.6326  1.2676
 8201TIP3   OH248797   0.845   2.546   2.380 -0.6710 -0.4470  0.1218
 8201TIP3    H148798   0.800   2.564   2.463 -0.2957  1.1280  0.0121
 8201TIP3    H248799   0.934   2.578   2.394 -0.5814 -0.2527 -0.8527
 8202TIP3   OH248800   6.194   0.412   2.762 -0.0197 -0.3657 -0.1881
 8202TIP3    H148801   6.197   0.502   2.793 -2.1544 -0.0950 -0.6297
 8202TIP3    H248802   6.161   0.362   2.836  0.9759 -0.7770 -0.0066
 8203TIP3   OH248803   6.438   7.356   2.764  0.2490  0.4319  0.5691
 8203TIP3    H148804   6.486   7.373   2.683  1.8565  0.6753  1.5226
 8203TIP3    H248805   6.355   7.320   2.735  0.7048  0.6802 -1.1954
 8204TIP3   OH248806   7.080   2.063   1.706 -0.6440 -0.5013  0.0738
 8204TIP3    H148807   7.088   2.054   1.801 -0.3501 -0.3393  0.0649
 8204TIP3    H248808   7.170   2.070   1.675 -0.7682  0.1967 -0.1432
 8205TIP3   OH248809   2.647   2.426   3.230  0.3017 -0.0034  0.2381
 8205TIP3    H148810   2.622   2.426   3.137  1.7800  0.1807 -0.1915
 8205TIP3    H248811   2.741   2.409   3.229  0.1444 -1.1322  1.7835
 8206TIP3   OH248812   4.807   6.971   1.522  0.0785 -0.1466 -0.0382
 8206TIP3    H148813   4.719   6.998   1.497  0.2298 -0.4647 -0.9744
 8206TIP3    H248814   4.834   6.911   1.452  0.5363 -1.0786  0.9029
 8207TIP3   OH248815   1.724   1.172   2.915 -0.2494 -0.1373 -0.1285
 8207TIP3    H148816   1.702   1.080   2.897  0.8730 -0.1706 -1.4658
 8207TIP3    H248817   1.670   1.222   2.854  1.1774 -0.0767 -1.3883
 8208TIP3   OH248818   7.108   5.764   2.248  0.0481 -0.2013 -0.5932
 8208TIP3    H148819   7.119   5.751   2.342  0.0108  0.4142 -0.4995
 8208TIP3    H248820   7.165   5.838   2.228 -0.6861  0.2959 -0.8757
 8209TIP3   OH248821   6.983   5.112   1.443  0.5551 -0.3859  0.3063
 8209TIP3    H148822   6.888   5.112   1.436  0.6131  1.2203 -4.0856
 8209TIP3    H248823   7.007   5.020   1.448 -1.2018 -0.8461  0.9689
 8210TIP3   OH248824   1.087   0.942   0.693 -1.1513  0.3066 -0.7595
 8210TIP3    H148825   1.006   0.948   0.642 -2.5408 -3.1401  0.7297
 8210TIP3    H248826   1.112   0.849   0.687  2.1787  1.0370 -0.3157
 8211TIP3   OH248827   7.492   4.099   2.598  0.3670 -0.4956  0.3841
 8211TIP3    H148828   7.452   4.186   2.599  0.2799 -0.5421  1.4176
 8211TIP3    H248829   7.444   4.051   2.530 -0.8167 -0.3131  1.0774
 8212TIP3   OH248830   7.554   5.566   1.366 -0.7942 -0.0121 -0.0481
 8212TIP3    H148831   7.557   5.502   1.437 -2.3070  0.1520  0.1963
 8212TIP3    H248832   7.472   5.548   1.321 -2.0285  2.6321  0.8984
 8213TIP3   OH248833   7.120   4.927   0.480 -0.2047  0.1634 -0.1212
 8213TIP3    H148834   7.091   4.921   0.571 -1.7198  1.5572 -0.4699
 8213TIP3    H248835   7.118   4.837   0.448 -1.1095 -0.1555  0.7940
 8214TIP3   OH248836   4.145   2.890   1.225  0.0397 -0.6459 -0.4363
 8214TIP3    H148837   4.208   2.825   1.193  0.8568 -1.0141  1.7384
 8214TIP3    H248838   4.100   2.846   1.298 -2.2297 -0.1087 -1.4353
 8215TIP3   OH248839   5.487   6.093   1.950  0.0404 -0.1352  0.1952
 8215TIP3    H148840   5.548   6.063   1.882 -0.7943 -0.0917 -0.5980
 8215TIP3    H248841   5.537   6.158   2.000  0.5108  0.2483 -0.7353
 8216TIP3   OH248842   2.451   2.079   1.723 -0.1706  0.2183  0.3853
 8216TIP3    H148843   2.451   2.051   1.632 -1.0478 -1.6401  0.8982
 8216TIP3    H248844   2.538   2.055   1.755 -0.1650  0.0441  0.2444
 8217TIP3   OH248845   4.185   7.047   2.062  0.3531 -0.5610 -0.2837
 8217TIP3    H148846   4.166   7.087   1.977 -1.7480 -1.9146 -0.5290
 8217TIP3    H248847   4.245   6.975   2.042 -0.3330 -1.0320 -0.6684
 8218TIP3   OH248848   1.964   7.454   3.010 -0.2170  0.9381  0.1269
 8218TIP3    H148849   1.935   7.384   3.068 -0.5296 -0.5302 -1.7113
 8218TIP3    H248850   1.924   7.433   2.925  1.3392  2.2170 -0.9757
 8219TIP3   OH248851   1.393   7.546   2.601  0.7927 -0.2092 -0.1494
 8219TIP3    H148852   1.424   7.589   2.522 -0.4768 -0.6054 -0.8991
 8219TIP3    H248853   1.335   7.610   2.642  1.1577 -0.1416  0.2657
 8220TIP3   OH248854   3.107   3.035   2.126 -0.5060  0.0735 -0.0897
 8220TIP3    H148855   3.142   3.072   2.207 -1.3965 -0.4823  0.5634
 8220TIP3    H248856   3.013   3.047   2.132 -0.5268  0.8825 -1.4957
 8221TIP3   OH248857   5.531   4.938   2.144  0.1433  0.0637  0.5047
 8221TIP3    H148858   5.501   4.857   2.105 -1.3024  0.6271  0.4128
 8221TIP3    H248859   5.504   5.007   2.083  0.2296  0.7206  1.1879
 8222TIP3   OH248860   7.305   1.359   0.900 -0.3785 -0.2061 -0.1808
 8222TIP3    H148861   7.273   1.374   0.811  1.3843  1.2967 -0.6282
 8222TIP3    H248862   7.261   1.425   0.953 -1.0950 -0.8150 -0.0075
 8223TIP3   OH248863   5.562   3.851   1.581 -0.0384 -0.2443  0.0731
 8223TIP3    H148864   5.638   3.880   1.633  0.1827 -0.7056  0.0114
 8223TIP3    H248865   5.574   3.757   1.571 -0.9707 -0.4284  0.6158
 8224TIP3   OH248866   1.254   6.155   2.965  0.1177  0.0982  0.1476
 8224TIP3    H148867   1.290   6.083   3.017  0.2815  1.0562  1.3969
 8224TIP3    H248868   1.192   6.112   2.906  0.5444 -1.1205  0.5480
 8225TIP3   OH248869   0.729   1.973   1.106 -0.4670 -0.0008 -0.2097
 8225TIP3    H148870   0.654   1.916   1.087 -0.3084 -0.1223 -0.4662
 8225TIP3    H248871   0.805   1.915   1.105 -0.0217  0.5203 -2.4932
 8226TIP3   OH248872   4.062   0.420   0.933  0.0899 -0.2280 -0.3797
 8226TIP3    H148873   4.065   0.490   0.867 -1.3729  0.9662  0.7607
 8226TIP3    H248874   3.970   0.413   0.956  0.3025 -2.0916  0.0487
 8227TIP3   OH248875   4.187   3.202   0.703  0.4918  0.9543 -0.0536
 8227TIP3    H148876   4.127   3.170   0.770  0.5835  0.8721 -0.0098
 8227TIP3    H248877   4.271   3.212   0.748  1.2615 -1.6726 -0.7342
 8228TIP3   OH248878   1.833   4.169   2.375 -0.0826  0.1747 -0.1216
 8228TIP3    H148879   1.913   4.159   2.427  0.9831  1.1181 -1.5188
 8228TIP3    H248880   1.783   4.236   2.421  2.0017  2.8806 -1.5449
 8229TIP3   OH248881   0.073   4.298   1.824 -0.6482 -0.1116  0.7482
 8229TIP3    H148882   0.012   4.368   1.848  1.4749  1.5797  1.6125
 8229TIP3    H248883   0.126   4.285   1.902 -0.9241 -2.7244  0.5858
 8230TIP3   OH248884   0.283   2.929   1.743 -0.1899  0.1549  0.2129
 8230TIP3    H148885   0.272   2.848   1.693  0.2716 -0.3256  0.8815
 8230TIP3    H248886   0.301   2.996   1.677  0.3856 -0.4689 -0.2650
 8231TIP3   OH248887   6.145   4.823   0.833 -0.2650 -0.8475 -0.0652
 8231TIP3    H148888   6.128   4.914   0.806 -1.4347 -1.3481 -1.1624
 8231TIP3    H248889   6.129   4.772   0.753  0.5578 -2.0010  0.4927
 8232TIP3   OH248890   2.523   0.374   1.526  0.1495 -1.1634  0.1298
 8232TIP3    H148891   2.581   0.342   1.457  0.1985 -2.5813  0.8074
 8232TIP3    H248892   2.435   0.354   1.495  0.1328 -1.1313  0.1554
 8233TIP3   OH248893   5.569   0.414   1.345  0.0231 -0.6600  0.1963
 8233TIP3    H148894   5.486   0.402   1.297 -0.4422  1.9540  0.1917
 8233TIP3    H248895   5.553   0.375   1.430 -0.4795 -1.9907 -0.4735
 8234TIP3   OH248896   4.243   7.143   2.341 -0.0233  0.1146  0.5079
 8234TIP3    H148897   4.264   7.237   2.336  1.4036 -0.1464  1.3206
 8234TIP3    H248898   4.285   7.105   2.264 -1.8742  0.3220 -0.6781
 8235TIP3   OH248899   5.300   5.572   2.547 -0.5165 -0.4269  0.4537
 8235TIP3    H148900   5.255   5.541   2.468  0.7755 -1.1590 -0.0259
 8235TIP3    H248901   5.305   5.667   2.535  0.2132 -0.5863 -0.6654
 8236TIP3   OH248902   0.724   2.861   3.482  0.1312 -0.4720 -0.2537
 8236TIP3    H148903   0.806   2.837   3.437  0.1407 -1.8522  0.4616
 8236TIP3    H248904   0.672   2.781   3.482 -0.6874  0.0441  0.4703
 8237TIP3   OH248905   6.964   6.469   2.560 -0.1654  0.0292  0.4580
 8237TIP3    H148906   6.931   6.481   2.649 -0.0069  2.6055  0.2723
 8237TIP3    H248907   7.000   6.555   2.536  2.0986 -1.2397 -1.1882
 8238TIP3   OH248908   1.901   0.853   0.924 -0.2082  0.3520 -0.1305
 8238TIP3    H148909   1.930   0.771   0.885  0.3815 -0.0351  1.0641
 8238TIP3    H248910   1.853   0.827   1.003 -0.7145  1.1281 -0.1652
 8239TIP3   OH248911   6.033   0.647   0.621 -0.1080 -0.0350  0.2939
 8239TIP3    H148912   6.112   0.593   0.620  0.7623  0.8666 -4.2892
 8239TIP3    H248913   5.962   0.584   0.628  0.9414 -1.0841  2.1085
 8240TIP3   OH248914   6.430   6.266   1.951  0.1037  0.4904 -0.5384
 8240TIP3    H148915   6.359   6.309   1.904 -0.8122  0.6284  0.8999
 8240TIP3    H248916   6.450   6.325   2.024  0.9788 -0.0403 -0.3333
 8241TIP3   OH248917   5.007   5.218   2.590 -0.5437 -0.6103 -0.0566
 8241TIP3    H148918   5.025   5.245   2.680 -0.5990  0.8105 -0.4540
 8241TIP3    H248919   5.066   5.144   2.575  0.2077 -0.2002  0.7973
 8242TIP3   OH248920   1.457   6.582   2.757 -0.0684 -0.2532  0.5670
 8242TIP3    H148921   1.492   6.660   2.800 -0.3663 -0.9660  2.1662
 8242TIP3    H248922   1.489   6.588   2.667 -0.9221  2.2299  0.3478
 8243TIP3   OH248923   0.314   5.131   3.390 -0.1812 -0.4588 -0.0224
 8243TIP3    H148924   0.317   5.225   3.370 -0.1651 -0.9418 -2.6925
 8243TIP3    H248925   0.401   5.098   3.365 -0.0210 -1.1394  1.3349
 8244TIP3   OH248926   2.593   5.755   0.746 -0.7481 -0.0908 -0.1537
 8244TIP3    H148927   2.636   5.840   0.752 -1.2631  0.2702 -1.3478
 8244TIP3    H248928   2.665   5.693   0.732 -0.4972  0.3500 -0.8742
 8245TIP3   OH248929   1.416   3.231   1.405  0.8337 -0.1073  0.0389
 8245TIP3    H148930   1.422   3.228   1.500  0.6785 -1.4007  0.0225
 8245TIP3    H248931   1.322   3.226   1.386  0.9220 -1.0926 -0.1964
 8246TIP3   OH248932   2.803   4.619   0.519  0.5624 -0.4632 -0.2185
 8246TIP3    H148933   2.888   4.620   0.476 -0.0982 -1.2696 -1.6216
 8246TIP3    H248934   2.778   4.526   0.521  0.5737 -0.4769  2.0019
 8247TIP3   OH248935   1.408   5.742   2.483 -0.1520  0.1523 -0.3013
 8247TIP3    H148936   1.433   5.755   2.392 -2.0917 -1.4175 -1.1401
 8247TIP3    H248937   1.439   5.821   2.528  2.1431  0.3147 -1.9879
 8248TIP3   OH248938   2.358   7.518   3.022 -0.0977 -0.2685 -0.0384
 8248TIP3    H148939   2.403   7.602   3.031  0.1586 -0.1589 -1.9691
 8248TIP3    H248940   2.399   7.463   3.089  2.2869  0.1121 -1.0535
 8249TIP3   OH248941   5.595   3.068   2.372  0.0765  0.1470 -0.1554
 8249TIP3    H148942   5.630   2.992   2.419  1.0037  0.1809 -0.7647
 8249TIP3    H248943   5.505   3.045   2.352 -0.6312  0.4480  2.3436
 8250TIP3   OH248944   6.193   3.499   0.576 -0.2258 -0.3346 -0.8838
 8250TIP3    H148945   6.176   3.555   0.652 -0.9678 -1.7380  0.0266
 8250TIP3    H248946   6.130   3.528   0.511  0.2992  0.7725 -0.9218
 8251TIP3   OH248947   6.744   3.223   1.346  0.3337  0.3668 -0.4601
 8251TIP3    H148948   6.692   3.302   1.330  0.8961  1.0804  1.0708
 8251TIP3    H248949   6.833   3.248   1.321  0.2106 -0.4155 -1.7720
 8252TIP3   OH248950   6.094   2.709   3.026  0.2335 -0.6020 -0.2371
 8252TIP3    H148951   6.109   2.760   2.947  1.0993  0.3439  0.5053
 8252TIP3    H248952   6.170   2.652   3.033  0.6567  0.0266  0.4259
 8253TIP3   OH248953   4.978   1.204   2.671 -0.1285  0.0868  0.2284
 8253TIP3    H148954   5.022   1.135   2.621  1.7005  1.5807 -0.3290
 8253TIP3    H248955   4.967   1.276   2.608 -0.8630  0.7660  1.1012
 8254TIP3   OH248956   2.726   3.720   2.441  0.1937  0.8712 -0.1956
 8254TIP3    H148957   2.649   3.772   2.415 -0.5781 -0.4930 -0.7465
 8254TIP3    H248958   2.727   3.724   2.537 -1.4272 -0.2426 -0.0977
 8255TIP3   OH248959   5.132   2.672   1.555  0.0309  0.1904 -0.5103
 8255TIP3    H148960   5.182   2.666   1.636 -1.6719  1.0745  0.6785
 8255TIP3    H248961   5.188   2.631   1.488  1.4571 -0.6097  1.1053
 8256TIP3   OH248962   6.631   3.367   0.922  0.4972  0.6212  0.5308
 8256TIP3    H148963   6.617   3.393   1.013 -0.1936  0.1733  0.5558
 8256TIP3    H248964   6.545   3.376   0.881  0.1491 -1.8212  0.5863
 8257TIP3   OH248965   5.784   2.726   1.374  0.1905  0.5692  0.0863
 8257TIP3    H148966   5.874   2.745   1.345 -0.1512  0.3450 -1.1911
 8257TIP3    H248967   5.731   2.735   1.294 -0.8942  0.5071  0.7845
 8258TIP3   OH248968   6.735   4.380   0.786  0.2573 -0.4717 -0.0682
 8258TIP3    H148969   6.788   4.431   0.725  0.1786  1.1890  1.1855
 8258TIP3    H248970   6.798   4.347   0.851 -0.0623  0.8542  0.9794
 8259TIP3   OH248971   3.231   5.575   1.146 -0.4740  0.2407 -0.3955
 8259TIP3    H148972   3.258   5.616   1.228 -1.1846  1.0453 -0.5452
 8259TIP3    H248973   3.306   5.520   1.121 -0.3033 -0.1269  0.8468
 8260TIP3   OH248974   0.656   7.142   3.095  0.2931 -0.3379 -0.6417
 8260TIP3    H148975   0.562   7.157   3.102  0.2386 -0.6570 -0.6937
 8260TIP3    H248976   0.691   7.225   3.065  0.2072  0.2602  0.8021
 8261TIP3   OH248977   3.694   5.581   1.294  0.9971  0.2351 -0.1477
 8261TIP3    H148978   3.668   5.619   1.378 -0.5610  0.7971 -0.8442
 8261TIP3    H248979   3.763   5.519   1.316 -0.2007 -0.5339  1.7180
 8262TIP3   OH248980   2.366   2.440   2.098  0.3503  0.8009 -0.4052
 8262TIP3    H148981   2.358   2.509   2.032 -1.5784 -0.0160 -1.1110
 8262TIP3    H248982   2.316   2.367   2.062  2.0719 -0.8853  0.4659
 8263TIP3   OH248983   1.678   7.459   0.683  0.0853 -0.0234  0.2567
 8263TIP3    H148984   1.619   7.445   0.757  0.3719 -0.0435  0.4783
 8263TIP3    H248985   1.628   7.515   0.624 -0.0416  0.2110  0.5853
 8264TIP3   OH248986   1.661   4.129   2.818  0.7170  0.3222 -0.1539
 8264TIP3    H148987   1.753   4.119   2.842  0.9872  0.6285 -1.0399
 8264TIP3    H248988   1.614   4.116   2.901  1.4847 -0.7317  0.1402
 8265TIP3   OH248989   6.078   5.113   1.404 -0.5232 -0.9445  0.6621
 8265TIP3    H148990   6.085   5.126   1.310  2.4847  0.6147  1.0035
 8265TIP3    H248991   6.150   5.054   1.426 -0.1009  0.0622  2.1671
 8266TIP3   OH248992   5.573   6.196   2.957  0.0110  0.0313  0.6120
 8266TIP3    H148993   5.536   6.213   3.043  0.0141  1.0553  0.4205
 8266TIP3    H248994   5.516   6.243   2.896  1.4254  1.4011  0.2802
 8267TIP3   OH248995   4.987   6.136   2.435  0.1141  0.1570  0.5353
 8267TIP3    H148996   4.935   6.208   2.399 -0.6443 -0.9581 -0.6815
 8267TIP3    H248997   5.007   6.081   2.360  0.5383 -0.9906  1.4556
 8268TIP3   OH248998   4.210   6.593   2.007  0.0221  0.3062  0.7110
 8268TIP3    H148999   4.171   6.614   2.092  0.3354  2.0878  0.4511
 8268TIP3    H249000   4.265   6.516   2.025  0.0196  0.5890  2.0886
 8269TIP3   OH249001   4.159   4.536   2.150 -0.3954  0.7523  0.2448
 8269TIP3    H149002   4.139   4.609   2.092 -0.1890  1.2982  0.8444
 8269TIP3    H249003   4.086   4.474   2.137 -1.2530  1.6422  0.6505
 8270TIP3   OH249004   2.135   5.674   2.999  0.6983 -0.5138  0.1419
 8270TIP3    H149005   2.152   5.767   3.007 -1.1263 -0.0101 -1.0979
 8270TIP3    H249006   2.141   5.640   3.088  1.0632  0.8385  0.6514
 8271TIP3   OH249007   1.272   7.315   2.492 -0.1166 -0.4641 -0.3505
 8271TIP3    H149008   1.299   7.385   2.552  0.9682 -0.5169 -0.7442
 8271TIP3    H249009   1.241   7.245   2.549  1.0617 -0.5800  0.1768
 8272TIP3   OH249010   0.367   4.205   1.538 -0.7061  0.2985  0.1753
 8272TIP3    H149011   0.424   4.247   1.474 -0.1567 -0.9842 -0.1921
 8272TIP3    H249012   0.388   4.249   1.621 -2.0284  2.5670 -0.5808
 8273TIP3   OH249013   4.428   3.567   2.101  0.2811 -0.4685  0.0743
 8273TIP3    H149014   4.366   3.639   2.116 -1.2308 -1.1873 -2.1770
 8273TIP3    H249015   4.438   3.526   2.186 -1.9722 -0.0010  0.6404
 8274TIP3   OH249016   5.036   2.586   1.209  0.2867 -0.1128  0.0705
 8274TIP3    H149017   5.046   2.576   1.114  0.1681 -2.2832  0.2194
 8274TIP3    H249018   5.122   2.614   1.239  0.0550  1.6268 -0.7409
 8275TIP3   OH249019   2.815   1.164   1.287  0.8330  0.2724  0.6919
 8275TIP3    H149020   2.770   1.190   1.367  0.0569  0.9603  0.0559
 8275TIP3    H249021   2.788   1.073   1.273  0.3448  0.3991  0.7913
 8276TIP3   OH249022   1.837   1.637   1.583 -0.1854 -0.0627 -0.0078
 8276TIP3    H149023   1.745   1.615   1.567 -0.4955  1.9850 -1.5456
 8276TIP3    H249024   1.886   1.567   1.540 -0.9570 -1.8336  1.8626
 8277TIP3   OH249025   2.863   6.191   1.892  0.2897 -0.0421  0.1841
 8277TIP3    H149026   2.925   6.155   1.829 -1.0034 -2.0831 -0.0313
 8277TIP3    H249027   2.823   6.265   1.848 -0.1289 -1.0425 -1.1838
 8278TIP3   OH249028   6.779   0.663   1.392  0.3062 -0.0773 -0.0247
 8278TIP3    H149029   6.690   0.647   1.359  0.6282 -2.0519 -0.0549
 8278TIP3    H249030   6.816   0.576   1.403  2.0484  0.7033  0.5721
 8279TIP3   OH249031   3.516   6.366   0.912 -0.6604 -0.4056  0.7258
 8279TIP3    H149032   3.600   6.398   0.945 -0.7467  0.0540  0.5131
 8279TIP3    H249033   3.538   6.290   0.859 -0.2253  0.4854 -0.4299
 8280TIP3   OH249034   2.181   4.234   3.081 -0.2242  0.2333  0.1296
 8280TIP3    H149035   2.087   4.247   3.094 -0.2462 -0.4394  0.7244
 8280TIP3    H249036   2.197   4.261   2.991 -1.0113  0.2328 -0.0176
 8281TIP3   OH249037   2.176   4.618   2.096 -0.0858 -0.0055  0.6888
 8281TIP3    H149038   2.116   4.558   2.140  0.1043 -0.1987  0.6847
 8281TIP3    H249039   2.167   4.598   2.003 -1.7995  1.5902  0.4514
 8282TIP3   OH249040   1.440   3.876   1.113  0.1541 -0.6476 -0.5954
 8282TIP3    H149041   1.382   3.864   1.189  0.5127  0.6822 -0.0775
 8282TIP3    H249042   1.430   3.796   1.062  0.0690 -1.6799  0.9659
 8283TIP3   OH249043   5.654   3.901   1.321 -0.1044  0.5970  1.0243
 8283TIP3    H149044   5.734   3.940   1.357  2.5169 -3.7137  0.4936
 8283TIP3    H249045   5.613   3.858   1.396  0.5125 -0.8503  0.5598
 8284TIP3   OH249046   2.470   5.363   2.986 -0.8698  1.0145 -0.3544
 8284TIP3    H149047   2.560   5.336   3.003 -0.3356  0.2524 -3.7254
 8284TIP3    H249048   2.417   5.315   3.051  1.0217  0.7769  1.0866
 8285TIP3   OH249049   0.895   2.797   1.433 -0.0653 -0.3940 -0.2555
 8285TIP3    H149050   0.819   2.796   1.491 -2.0722 -5.1264 -2.4763
 8285TIP3    H249051   0.865   2.844   1.355  0.5558  0.7167  0.1537
 8286TIP3   OH249052   1.181   2.960   1.275  0.2645 -0.6071 -0.3773
 8286TIP3    H149053   1.274   2.934   1.271  0.0109 -2.0667  1.7321
 8286TIP3    H249054   1.139   2.906   1.208  0.7920 -0.6400 -0.6907
 8287TIP3   OH249055   0.968   1.963   0.786  0.1217 -0.4496  0.5949
 8287TIP3    H149056   1.018   1.928   0.860 -0.5963  0.9150  1.7976
 8287TIP3    H249057   0.891   1.907   0.780  0.5178 -0.9790  0.4455
 8288TIP3   OH249058   1.283   1.056   3.427 -0.2544 -0.4130  0.3181
 8288TIP3    H149059   1.232   1.081   3.505  1.4897  1.7133  0.8738
 8288TIP3    H249060   1.321   0.971   3.449 -0.9084 -0.4851  1.2164
 8289TIP3   OH249061   2.709   1.625   0.712 -0.1304 -0.5224  0.0134
 8289TIP3    H149062   2.679   1.553   0.767 -1.6405  1.3935  1.8649
 8289TIP3    H249063   2.629   1.667   0.680  0.7042  0.1916 -1.2394
 8290TIP3   OH249064   5.260   0.540   2.524  0.1593  0.6543 -0.2392
 8290TIP3    H149065   5.299   0.462   2.484 -0.6236  0.9861 -1.7418
 8290TIP3    H249066   5.306   0.613   2.483  0.1520  0.9947  0.3532
 8291TIP3   OH249067   3.382   0.522   2.052 -0.1278  0.2717 -0.1645
 8291TIP3    H149068   3.421   0.544   1.968  0.7116 -0.2255  0.0882
 8291TIP3    H249069   3.443   0.460   2.092 -0.8855 -0.0665  0.4935
 8292TIP3   OH249070   6.628   6.112   1.848 -0.1637 -0.3903  0.0273
 8292TIP3    H149071   6.709   6.152   1.815 -0.2097 -0.9710 -0.7974
 8292TIP3    H249072   6.579   6.186   1.885  1.1342 -0.1540  1.3938
 8293TIP3   OH249073   5.425   7.661   1.233 -0.5211  0.4051  0.2062
 8293TIP3    H149074   5.331   7.642   1.237 -0.4798 -0.6770 -2.1367
 8293TIP3    H249075   5.431   7.740   1.180 -0.0810 -0.2195 -0.7057
 8294TIP3   OH249076   5.437   3.849   2.785 -0.2204  0.0542  0.6118
 8294TIP3    H149077   5.423   3.943   2.779  0.6548  0.1252 -1.1545
 8294TIP3    H249078   5.520   3.839   2.831  0.1092  0.2045  0.0626
 8295TIP3   OH249079   1.133   5.708   1.658  0.3101 -0.4590  0.0412
 8295TIP3    H149080   1.108   5.722   1.567 -1.6272  0.3089  0.6578
 8295TIP3    H249081   1.227   5.690   1.654  0.1768 -0.9112 -2.1394
 8296TIP3   OH249082   7.546   1.834   1.936 -0.8539  0.2678 -0.3025
 8296TIP3    H149083   7.511   1.745   1.928 -0.7481 -0.0336  1.8481
 8296TIP3    H249084   7.596   1.848   1.855 -2.0444 -1.0701 -1.3174
 8297TIP3   OH249085   6.354   3.424   2.481 -0.2107 -0.9252 -0.0251
 8297TIP3    H149086   6.273   3.459   2.444  0.3866 -0.5592 -1.0242
 8297TIP3    H249087   6.347   3.444   2.575 -1.3423 -1.0491 -0.0642
 8298TIP3   OH249088   4.108   5.837   1.172  0.4412  0.3137 -0.5002
 8298TIP3    H149089   4.152   5.780   1.235  0.1291  1.3855  0.7471
 8298TIP3    H249090   4.040   5.783   1.133  1.4731 -0.7451 -0.8739
 8299TIP3   OH249091   0.637   0.178   2.250  0.9626  0.4118 -0.3254
 8299TIP3    H149092   0.716   0.216   2.287 -0.0032 -0.8770  3.5099
 8299TIP3    H249093   0.567   0.206   2.309 -1.2262  0.0568 -2.5749
 8300TIP3   OH249094   2.254   2.482   2.599  0.0188  0.1923 -0.0657
 8300TIP3    H149095   2.275   2.571   2.626  0.9957  0.3379 -1.2069
 8300TIP3    H249096   2.193   2.450   2.666  0.6886  1.2403  1.0850
 8301TIP3   OH249097   0.272   5.333   1.583  0.4144  0.8002 -0.2063
 8301TIP3    H149098   0.346   5.293   1.629  0.9176 -0.1573 -1.7618
 8301TIP3    H249099   0.195   5.304   1.632  0.8787 -0.8003 -0.3446
 8302TIP3   OH249100   2.910   2.540   1.830  0.6566 -0.4955  0.0730
 8302TIP3    H149101   2.844   2.566   1.894  0.5109 -0.0360 -0.2558
 8302TIP3    H249102   2.898   2.601   1.757  2.1690  0.3202  0.4681
 8303TIP3   OH249103   0.402   0.143   0.627  0.2344 -0.2314  0.0102
 8303TIP3    H149104   0.375   0.235   0.627 -0.4596 -0.4122  1.3156
 8303TIP3    H249105   0.324   0.095   0.653  0.9303 -1.0707  0.5890
 8304TIP3   OH249106   0.044   2.238   1.734 -0.2804  0.2047 -0.5650
 8304TIP3    H149107   0.017   2.190   1.812  0.7521 -0.0663 -0.3508
 8304TIP3    H249108   0.096   2.175   1.684 -2.2684 -0.1530 -2.3172
 8305TIP3   OH249109   7.413   4.185   2.138 -0.4624  0.3136  0.1593
 8305TIP3    H149110   7.441   4.258   2.193 -0.6033 -1.1814  2.3374
 8305TIP3    H249111   7.474   4.114   2.160 -1.4578 -0.7874 -0.5091
 8306TIP3   OH249112   5.839   6.885   0.832  0.3289  0.0195 -0.2630
 8306TIP3    H149113   5.837   6.939   0.911 -1.4400 -0.8010  0.3092
 8306TIP3    H249114   5.887   6.937   0.768  0.4975  1.3419  0.8931
 8307TIP3   OH249115   3.689   6.507   2.069 -0.0959 -0.1290 -0.0485
 8307TIP3    H149116   3.617   6.508   2.006 -1.0469  1.4857  0.9853
 8307TIP3    H249117   3.646   6.495   2.154  0.5543  2.8773  0.8190
 8308TIP3   OH249118   2.939   7.134   3.692 -0.4358 -0.4494 -0.4023
 8308TIP3    H149119   2.852   7.150   3.729 -0.7874  0.1521 -1.4511
 8308TIP3    H249120   2.965   7.218   3.654 -0.7593 -1.3534 -2.8316
 8309TIP3   OH249121   2.228   5.016   0.543 -0.9697 -0.0786 -0.5307
 8309TIP3    H149122   2.152   5.007   0.485 -0.2448 -0.2504 -1.4703
 8309TIP3    H249123   2.273   4.932   0.537 -0.7503 -0.0108  0.0987
 8310TIP3   OH249124   0.412   7.526   2.781 -0.3347  0.1420  0.1341
 8310TIP3    H149125   0.398   7.555   2.871  1.3597  1.4583  0.0291
 8310TIP3    H249126   0.499   7.559   2.758 -0.9389  0.3340 -2.1663
 8311TIP3   OH249127   2.613   3.263   1.537 -0.1202 -0.3535 -0.2271
 8311TIP3    H149128   2.646   3.174   1.529  0.4626 -0.0597 -1.2363
 8311TIP3    H249129   2.551   3.273   1.465  0.1041  0.1791 -0.3550
 8312TIP3   OH249130   2.247   5.663   2.112 -0.0145 -0.2899 -0.1188
 8312TIP3    H149131   2.263   5.570   2.131  0.8270 -0.1990 -0.3227
 8312TIP3    H249132   2.214   5.663   2.022  0.0066 -0.3903 -0.1269
 8313TIP3   OH249133   5.537   6.437   1.555  0.0940  0.3745  0.4465
 8313TIP3    H149134   5.605   6.443   1.487 -1.0924 -0.6974 -0.8788
 8313TIP3    H249135   5.578   6.387   1.626  0.6525 -0.3337 -0.3658
 8314TIP3   OH249136   7.300   6.000   2.213  0.2990  0.3170  0.0695
 8314TIP3    H149137   7.386   5.965   2.188 -0.4199 -1.1203 -0.5056
 8314TIP3    H249138   7.301   6.090   2.182  1.8901  0.5787  0.7835
 8315TIP3   OH249139   2.302   5.241   2.527  0.1624  0.3773 -0.1223
 8315TIP3    H149140   2.377   5.249   2.585  0.7737  0.7293 -0.9333
 8315TIP3    H249141   2.302   5.322   2.476 -0.8417  0.4346 -0.0513
 8316TIP3   OH249142   5.461   1.358   0.889  0.1636  0.2400  0.2593
 8316TIP3    H149143   5.444   1.344   0.983 -0.7498  0.7698  0.1835
 8316TIP3    H249144   5.389   1.312   0.845 -0.3689  1.4156 -0.1192
 8317TIP3   OH249145   5.618   3.334   0.693  0.0479  0.4655  0.7397
 8317TIP3    H149146   5.635   3.428   0.705  1.3938  0.1967  1.1878
 8317TIP3    H249147   5.541   3.316   0.747  0.6959  1.0311  1.8853
 8318TIP3   OH249148   5.421   4.150   2.827 -0.2290  0.4337  0.2496
 8318TIP3    H149149   5.510   4.177   2.805 -0.1596  0.3500  0.4260
 8318TIP3    H249150   5.413   4.167   2.921  0.0566 -0.8170  0.5223
 8319TIP3   OH249151   1.918   0.597   3.737  0.2510  0.0872 -0.1177
 8319TIP3    H149152   1.831   0.560   3.719  0.4458  0.1482 -1.2537
 8319TIP3    H249153   1.978   0.546   3.682  0.7333  1.0561 -0.5186
 8320TIP3   OH249154   2.343   3.100   1.620 -0.1407  0.2311 -0.6723
 8320TIP3    H149155   2.361   3.064   1.534 -1.1853  1.0965 -1.2786
 8320TIP3    H249156   2.271   3.163   1.606  0.2159  0.9927  0.6777
 8321TIP3   OH249157   5.428   7.413   1.417 -0.0845 -0.2830  0.1346
 8321TIP3    H149158   5.457   7.502   1.396 -1.2343  0.1805  0.4615
 8321TIP3    H249159   5.510   7.364   1.427  0.6071 -0.0987 -3.3802
 8322TIP3   OH249160   3.800   3.475   2.267 -0.2993 -0.0273  0.2193
 8322TIP3    H149161   3.821   3.396   2.218  1.1338  1.7439 -2.3029
 8322TIP3    H249162   3.881   3.527   2.264 -2.1086  2.9765 -1.3122
 8323TIP3   OH249163   6.042   6.162   3.266 -0.2410 -0.8671  0.3825
 8323TIP3    H149164   6.057   6.244   3.312 -2.9167  0.2978 -0.6640
 8323TIP3    H249165   6.125   6.144   3.222  0.7157  0.7208  1.4458
 8324TIP3   OH249166   1.972   7.358   2.005 -0.0706  0.0908  0.0748
 8324TIP3    H149167   1.891   7.382   2.051  0.3946  0.2627  0.8245
 8324TIP3    H249168   1.991   7.434   1.949 -0.1997  0.2303  0.2186
 8325TIP3   OH249169   0.495   0.812   0.600  0.4372 -0.1934 -0.3757
 8325TIP3    H149170   0.481   0.824   0.506 -0.7928 -2.2583 -0.5097
 8325TIP3    H249171   0.437   0.877   0.641 -1.3031 -1.2593 -1.0528
 8326TIP3   OH249172   3.478   5.860   1.976  0.4191 -0.1546 -0.4410
 8326TIP3    H149173   3.562   5.837   1.935  1.1746  1.4222  0.1652
 8326TIP3    H249174   3.489   5.836   2.068  0.6664  1.1714 -0.1109
 8327TIP3   OH249175   6.944   3.143   1.076 -0.0098  0.4264  0.1941
 8327TIP3    H149176   6.934   3.060   1.123 -0.0698 -0.5662 -1.4590
 8327TIP3    H249177   6.855   3.168   1.052  0.0515  0.6475  0.2010
 8328TIP3   OH249178   1.739   7.312   3.153  0.3182  0.4408 -0.8338
 8328TIP3    H149179   1.710   7.336   3.241  0.1782  1.2759 -1.0994
 8328TIP3    H249180   1.817   7.259   3.168  0.9955  1.5585 -0.2286
 8329TIP3   OH249181   7.117   1.765   2.369  0.2175 -0.6154  0.1757
 8329TIP3    H149182   7.149   1.856   2.368  0.6480 -0.7553  0.8358
 8329TIP3    H249183   7.138   1.733   2.456 -0.6483 -1.1078  0.2092
 8330TIP3   OH249184   4.622   6.571   2.810 -0.2023  0.0637 -0.6435
 8330TIP3    H149185   4.615   6.629   2.886 -0.9144 -1.0994  0.2149
 8330TIP3    H249186   4.531   6.552   2.786 -0.0405  1.7414 -2.8837
 8331TIP3   OH249187   5.038   2.491   1.911  0.6159  0.0479 -0.0774
 8331TIP3    H149188   5.120   2.442   1.908  0.5855 -0.0526  0.5818
 8331TIP3    H249189   4.971   2.424   1.929  0.6405  0.3866  1.3744
 8332TIP3   OH249190   2.432   1.045   2.982  0.2075  0.1304 -0.1000
 8332TIP3    H149191   2.463   0.961   3.018 -0.2964  0.2434  0.6002
 8332TIP3    H249192   2.371   1.079   3.047 -0.5603  0.4495 -0.9565
 8333TIP3   OH249193   2.275   0.562   2.445  0.1904 -0.2998 -0.5442
 8333TIP3    H149194   2.213   0.562   2.373  1.2889  0.9481 -1.5642
 8333TIP3    H249195   2.345   0.503   2.417  0.2744 -0.3877 -0.1624
 8334TIP3   OH249196   6.831   5.937   2.680 -0.0428 -0.1541 -0.4049
 8334TIP3    H149197   6.852   5.977   2.595 -0.1001  0.6839 -0.0350
 8334TIP3    H249198   6.803   6.011   2.734  1.9260 -0.3403  0.9647
 8335TIP3   OH249199   3.596   5.006   1.640 -0.5433 -0.2463  0.6737
 8335TIP3    H149200   3.576   5.086   1.689 -1.4856  0.8474 -1.3716
 8335TIP3    H249201   3.663   4.963   1.692  0.5116  2.2131  1.5263
 8336TIP3   OH249202   6.271   1.891   7.309 -0.4946 -1.1283 -0.2293
 8336TIP3    H149203   6.312   1.872   7.393  1.4555 -2.5194 -1.3993
 8336TIP3    H249204   6.260   1.986   7.308 -0.1551 -1.0565  1.4200
 8337TIP3   OH249205   2.417   4.058   3.199  0.1515  0.1340  0.2053
 8337TIP3    H149206   2.414   4.050   3.295 -1.0761  0.7085  0.2316
 8337TIP3    H249207   2.398   4.150   3.182 -0.7624 -0.1901 -0.6257
 8338TIP3   OH249208   5.842   1.554   0.400  0.2835 -0.1331  0.0053
 8338TIP3    H149209   5.877   1.541   0.312  0.1216 -0.1028 -0.0646
 8338TIP3    H249210   5.918   1.572   0.455  0.4153 -0.4272 -0.0771
 8339TIP3   OH249211   5.870   1.376   1.616 -0.4192 -0.0924 -0.6646
 8339TIP3    H149212   5.944   1.320   1.639 -0.6041  0.1563  0.6077
 8339TIP3    H249213   5.880   1.453   1.672 -1.8630 -0.2496 -0.1581
 8340TIP3   OH249214   5.372   5.104   1.962 -0.0253 -0.6091  0.3613
 8340TIP3    H149215   5.456   5.136   1.927 -1.1318 -1.0785 -3.1141
 8340TIP3    H249216   5.314   5.179   1.958 -0.2326 -0.7239  1.1173
 8341TIP3   OH249217   3.406   1.473   0.727  0.4176  0.3336  0.0439
 8341TIP3    H149218   3.465   1.527   0.779 -0.6097  1.0403  0.5037
 8341TIP3    H249219   3.405   1.515   0.641  1.4833 -0.3679 -0.3362
 8342TIP3   OH249220   6.853   6.473   2.877  0.2999  0.8502 -0.4249
 8342TIP3    H149221   6.933   6.467   2.929 -0.7991 -1.9757  1.1779
 8342TIP3    H249222   6.794   6.526   2.931 -0.3994 -0.9996  0.7397
 8343TIP3   OH249223   1.979   3.655   1.618  0.1926 -0.5093 -0.8065
 8343TIP3    H149224   1.902   3.604   1.640 -0.6775  0.2642 -1.9619
 8343TIP3    H249225   1.977   3.730   1.677 -0.3307 -0.1266 -1.3091
 8344TIP3   OH249226   1.408   1.957   0.767 -0.2180  0.1081  0.2414
 8344TIP3    H149227   1.374   2.037   0.728 -0.6172 -0.1369  0.0785
 8344TIP3    H249228   1.331   1.914   0.804  0.0660  0.0390  0.7622
 8345TIP3   OH249229   3.852   1.186   2.604 -0.1371  0.0010 -0.4216
 8345TIP3    H149230   3.907   1.263   2.611  1.4227 -1.1709  1.0289
 8345TIP3    H249231   3.873   1.148   2.518  1.5691 -0.5683  0.2144
 8346TIP3   OH249232   0.450   6.277   3.220 -0.3596 -0.1290 -0.5850
 8346TIP3    H149233   0.390   6.344   3.187  1.5044  0.5915 -2.7919
 8346TIP3    H249234   0.491   6.317   3.296 -1.4497  0.0054 -0.0446
 8347TIP3   OH249235   7.625   1.323   2.227 -0.0120 -0.5130 -0.8010
 8347TIP3    H149236   7.632   1.334   2.133  1.2202  0.5380 -0.6172
 8347TIP3    H249237   7.608   1.411   2.260 -0.0495 -0.8065 -0.0142
 8348TIP3   OH249238   2.981   4.629   8.040  0.0561 -0.0977  0.2760
 8348TIP3    H149239   2.938   4.616   7.955  1.3280  0.4423 -0.4807
 8348TIP3    H249240   3.060   4.678   8.019 -0.7996  2.2213  2.0822
 8349TIP3   OH249241   3.859   4.534   2.517  0.1978 -0.1295 -0.4335
 8349TIP3    H149242   3.795   4.507   2.451  1.2040  0.1094 -1.5493
 8349TIP3    H249243   3.856   4.629   2.516 -0.7223 -0.1187  0.8509
 8350TIP3   OH249244   7.098   1.067   1.355 -0.1629 -0.0965 -0.0530
 8350TIP3    H149245   7.044   1.076   1.433  0.5447  1.3362  0.3116
 8350TIP3    H249246   7.076   1.144   1.301  0.0369 -0.5732 -0.8323
 8351TIP3   OH249247   5.606   3.596   1.119  0.2199 -0.0423 -0.8072
 8351TIP3    H149248   5.549   3.640   1.182  0.4037 -1.0218  0.0862
 8351TIP3    H249249   5.694   3.626   1.142  0.3837 -1.1284  0.0529
 8352TIP3   OH249250   3.695   6.068   2.204  0.0651 -0.2436  0.7547
 8352TIP3    H149251   3.644   5.995   2.170 -0.2350  0.9054 -1.5136
 8352TIP3    H249252   3.630   6.132   2.233  0.2459  0.0661  0.4977
 8353TIP3   OH249253   5.111   3.670   0.880 -0.3766  0.6782 -0.0611
 8353TIP3    H149254   5.138   3.715   0.800  0.6943  1.6218  0.8092
 8353TIP3    H249255   5.190   3.626   0.911 -0.9582 -0.2929  0.1137
 8354TIP3   OH249256   0.346   6.076   2.011  0.2204  0.2345  0.0784
 8354TIP3    H149257   0.337   6.030   1.927 -0.5714 -0.3898  0.4891
 8354TIP3    H249258   0.359   6.006   2.075 -3.0679  0.3301  1.0195
 8355TIP3   OH249259   0.959   6.281   2.351 -0.1059  0.1527  0.1487
 8355TIP3    H149260   0.991   6.333   2.278 -0.8968  1.8248  0.9476
 8355TIP3    H249261   1.014   6.306   2.425 -1.8081  1.4996  1.0293
 8356TIP3   OH249262   3.853   4.300   0.893  0.0988  0.0997 -0.3772
 8356TIP3    H149263   3.762   4.291   0.867 -0.4836 -1.0191  1.8036
 8356TIP3    H249264   3.874   4.217   0.937  2.4748 -0.0474 -1.6203
 8357TIP3   OH249265   2.040   2.898   1.010 -0.1273  1.1754  0.1710
 8357TIP3    H149266   2.082   2.975   1.049 -0.7846  1.6615 -0.0599
 8357TIP3    H249267   2.041   2.915   0.916  2.0801 -0.3143 -0.1352
 8358TIP3   OH249268   7.210   7.390   1.115  0.2014  0.7470 -0.0695
 8358TIP3    H149269   7.178   7.479   1.126  1.4126  1.6684 -3.1505
 8358TIP3    H249270   7.199   7.371   1.022  2.4335 -1.3117 -0.0116
 8359TIP3   OH249271   3.046   3.095   1.058 -0.0748  0.3015 -0.1996
 8359TIP3    H149272   3.083   3.126   1.141 -0.5316 -1.0397  0.5388
 8359TIP3    H249273   3.114   3.037   1.022  0.1175  0.8699 -0.7722
 8360TIP3   OH249274   4.002   3.123   2.269 -0.3374 -0.3466 -0.0472
 8360TIP3    H149275   3.975   3.033   2.289 -1.3336  0.0503  0.4711
 8360TIP3    H249276   4.043   3.154   2.349  2.9145 -1.3387 -1.1964
 8361TIP3   OH249277   3.726   3.905   0.787  0.2274  0.2229  0.4030
 8361TIP3    H149278   3.704   3.980   0.842  0.6662  1.1796 -0.6689
 8361TIP3    H249279   3.642   3.874   0.753 -0.0123 -0.1745  1.3335
 8362TIP3   OH249280   7.019   2.794   0.860 -0.0428  0.3198  0.3016
 8362TIP3    H149281   7.111   2.776   0.877  0.0288  0.4549  0.0546
 8362TIP3    H249282   7.016   2.886   0.832 -0.1666  0.1201 -0.3531
 8363TIP3   OH249283   7.654   2.904   0.994 -0.0723  0.2433 -0.6253
 8363TIP3    H149284   7.626   2.907   0.903 -0.5197 -1.6454 -0.5955
 8363TIP3    H249285   7.573   2.897   1.044  0.2005  0.6942 -0.1055
 8364TIP3   OH249286   2.748   0.381   3.141  0.0689 -0.7563  0.0236
 8364TIP3    H149287   2.755   0.285   3.137  2.0009 -0.6417 -0.1733
 8364TIP3    H249288   2.818   0.413   3.085 -0.9835  0.8050 -0.4774
 8365TIP3   OH249289   3.839   4.066   1.902 -0.1814 -0.2883 -0.3986
 8365TIP3    H149290   3.898   3.998   1.870  0.9370  1.0713 -1.3680
 8365TIP3    H249291   3.840   4.133   1.834 -0.1488  1.3310  1.1131
 8366TIP3   OH249292   0.989   3.770   1.156  0.5342  0.0503 -0.0521
 8366TIP3    H149293   0.895   3.773   1.143  0.3302  2.2244  1.4935
 8366TIP3    H249294   1.014   3.680   1.132 -1.5737  0.0017 -2.4096
 8367TIP3   OH249295   3.071   4.492   1.529 -0.4212 -0.6292 -0.2509
 8367TIP3    H149296   3.001   4.557   1.516 -0.1366 -0.0945  0.7844
 8367TIP3    H249297   3.029   4.422   1.579 -0.4081 -0.6414 -0.2573
 8368TIP3   OH249298   2.371   7.521   1.070  0.4486 -0.9456  0.0987
 8368TIP3    H149299   2.409   7.534   0.983  1.1851 -0.1700  0.5369
 8368TIP3    H249300   2.433   7.560   1.130 -0.7734 -0.1538  0.8744
 8369TIP3   OH249301   5.356   6.857   2.778  0.2307 -0.4251 -0.3827
 8369TIP3    H149302   5.262   6.872   2.765  0.3267 -0.9768 -1.9877
 8369TIP3    H249303   5.370   6.767   2.750  1.3994 -0.0285 -1.1576
 8370TIP3   OH249304   2.105   2.339   2.816  0.1621  0.6929  0.1726
 8370TIP3    H149305   2.027   2.308   2.769  0.4181  0.3722 -0.0492
 8370TIP3    H249306   2.084   2.328   2.908 -0.8799  2.5915  0.2144
 8371TIP3   OH249307   0.677   0.668   0.873 -0.3768  0.4489  0.0857
 8371TIP3    H149308   0.659   0.587   0.920  0.1858 -0.0442 -0.5349
 8371TIP3    H249309   0.762   0.654   0.832 -1.2039  0.5329 -1.7609
 8372TIP3   OH249310   6.927   0.561   2.343 -0.6081  0.4606  0.0034
 8372TIP3    H149311   6.959   0.645   2.376 -0.9347  0.1063  1.2744
 8372TIP3    H249312   6.944   0.499   2.414  0.8650 -0.8510 -1.4202
 8373TIP3   OH249313   5.467   2.571   1.749  0.0992  0.4373  0.7278
 8373TIP3    H149314   5.400   2.636   1.729 -2.1697 -1.8950  0.2334
 8373TIP3    H249315   5.538   2.589   1.687 -0.7324  1.9892  0.1669
 8374TIP3   OH249316   5.810   2.002   1.238 -0.3520  0.0737  0.7912
 8374TIP3    H149317   5.762   1.946   1.176  0.5162  2.7190 -2.5416
 8374TIP3    H249318   5.752   2.076   1.253  0.7922  1.1052  0.3214
 8375TIP3   OH249319   4.035   5.641   1.487  0.5523 -0.1677  0.2241
 8375TIP3    H149320   4.086   5.619   1.565  2.1041 -0.4971 -0.8300
 8375TIP3    H249321   3.996   5.558   1.459  0.5398 -0.1770  0.2694
 8376TIP3   OH249322   0.634   6.628   1.504  0.2530  0.3854  0.0550
 8376TIP3    H149323   0.726   6.640   1.529  0.0467  0.8721  0.5895
 8376TIP3    H249324   0.615   6.537   1.529  1.5612 -0.9505 -3.2153
 8377TIP3   OH249325   4.251   5.101   1.552  0.1919  0.0106 -0.6832
 8377TIP3    H149326   4.165   5.063   1.530  1.0667 -1.4898 -1.7489
 8377TIP3    H249327   4.282   5.138   1.469  0.8976 -0.1466 -0.4916
 8378TIP3   OH249328   2.343   6.127   2.852  0.1953 -0.1630  0.4884
 8378TIP3    H149329   2.352   6.096   2.942 -1.7311 -0.5283  0.6054
 8378TIP3    H249330   2.340   6.047   2.799 -3.2382 -0.3002  0.6371
 8379TIP3   OH249331   4.623   6.265   0.895  0.4770 -0.3665 -0.1737
 8379TIP3    H149332   4.695   6.280   0.833 -0.8979  2.9994 -1.1679
 8379TIP3    H249333   4.665   6.263   0.981  1.7788  2.2886 -0.6490
 8380TIP3   OH249334   6.464   7.101   2.537  0.3270 -0.1614 -0.4959
 8380TIP3    H149335   6.391   7.040   2.547 -0.1564  0.2435 -1.4343
 8380TIP3    H249336   6.539   7.045   2.515  0.1517 -0.5149 -0.1996
 8381TIP3   OH249337   6.689   6.615   2.547  0.0789 -0.6551  0.5586
 8381TIP3    H149338   6.604   6.621   2.592 -0.2567 -0.4467 -0.0924
 8381TIP3    H249339   6.702   6.521   2.535  0.2453 -0.7215  1.2267
 8382TIP3   OH249340   7.118   6.557   2.962 -0.5921  0.0511  0.1952
 8382TIP3    H149341   7.110   6.537   3.055 -0.0789 -0.9754  0.0281
 8382TIP3    H249342   7.205   6.597   2.953 -0.9910  0.9613  0.2834
 8383TIP3   OH249343   2.019   0.705   2.665 -0.8525 -0.0165 -0.0292
 8383TIP3    H149344   1.966   0.772   2.621 -0.7749  0.8844  1.2011
 8383TIP3    H249345   1.955   0.651   2.712 -0.8877 -0.6144 -0.7538
 8384TIP3   OH249346   4.035   4.869   0.559  0.1249 -0.4536 -0.0660
 8384TIP3    H149347   3.949   4.869   0.602  0.3833  2.4956  0.6548
 8384TIP3    H249348   4.093   4.826   0.622 -0.4673 -0.8600  0.2152
 8385TIP3   OH249349   3.192   2.727   0.723 -0.2636 -0.4960  0.0019
 8385TIP3    H149350   3.263   2.712   0.661 -0.5105 -2.5086  0.1630
 8385TIP3    H249351   3.136   2.650   0.717  0.0718 -1.1355  3.2041
 8386TIP3   OH249352   1.710   3.186   1.909 -0.5344 -0.3764  0.0374
 8386TIP3    H149353   1.662   3.103   1.911  0.4276 -0.9479  0.0767
 8386TIP3    H249354   1.785   3.169   1.853 -1.4909  1.1609 -1.8144
 8387TIP3   OH249355   4.608   3.298   2.727  0.1007 -0.1723  0.0585
 8387TIP3    H149356   4.601   3.232   2.658 -0.0965  0.1420 -0.2257
 8387TIP3    H249357   4.596   3.250   2.808 -0.2292 -0.4572 -0.1569
 8388TIP3   OH249358   5.460   4.019   1.886 -0.5779 -0.2021  0.1704
 8388TIP3    H149359   5.503   4.020   1.801  1.7576  1.6612  1.2433
 8388TIP3    H249360   5.524   3.979   1.945 -2.0388 -1.2179  1.1341
 8389TIP3   OH249361   2.881   6.074   2.806  0.3948 -0.0191 -0.4180
 8389TIP3    H149362   2.954   6.113   2.758 -0.2985  0.7077 -0.9067
 8389TIP3    H249363   2.868   6.130   2.881  1.0460 -0.7820  0.2825
 8390TIP3   OH249364   0.559   0.716   2.271  0.4438  0.2839 -1.0644
 8390TIP3    H149365   0.550   0.626   2.241 -0.8578  0.0581 -0.1185
 8390TIP3    H249366   0.642   0.746   2.236 -0.3552 -0.3769 -3.7061
 8391TIP3   OH249367   7.578   7.317   1.437  0.3058 -0.0299  0.0247
 8391TIP3    H149368   7.660   7.303   1.391  1.2044 -0.6872  1.7470
 8391TIP3    H249369   7.551   7.230   1.466 -2.3955 -0.2488 -2.6401
 8392TIP3   OH249370   2.539   6.709   1.421  0.1502 -0.1930 -0.1284
 8392TIP3    H149371   2.613   6.653   1.447 -0.4096 -0.5969  0.6640
 8392TIP3    H249372   2.579   6.789   1.389  0.9336  0.1706  1.6274
 8393TIP3   OH249373   3.264   1.872   2.220  0.3029 -0.1729 -0.4531
 8393TIP3    H149374   3.284   1.965   2.234  1.9798 -0.5683  0.0903
 8393TIP3    H249375   3.173   1.871   2.192  0.5582  1.7306 -1.5581
 8394TIP3   OH249376   5.446   0.637   0.810 -0.1893 -0.1201  0.0826
 8394TIP3    H149377   5.426   0.715   0.758 -0.3462 -0.8960 -1.0570
 8394TIP3    H249378   5.541   0.629   0.807  0.0832  1.4859  2.4146
 8395TIP3   OH249379   0.348   3.764   2.363 -0.4877  0.0937  0.5946
 8395TIP3    H149380   0.426   3.770   2.419 -0.8357  0.8251  1.0125
 8395TIP3    H249381   0.366   3.689   2.306  0.3824  0.0515  0.9000
 8396TIP3   OH249382   4.411   4.970   2.214  0.2002  0.2595  0.2848
 8396TIP3    H149383   4.480   4.905   2.201 -0.3457 -0.4124  0.6860
 8396TIP3    H249384   4.414   4.990   2.307  0.7498  1.2538  0.0605
 8397TIP3   OH249385   4.563   7.457   1.716  0.0284  0.0791 -0.3300
 8397TIP3    H149386   4.490   7.504   1.758 -1.3427 -1.1726 -1.2403
 8397TIP3    H249387   4.609   7.415   1.789 -0.5504  0.3350  0.1978
 8398TIP3   OH249388   3.668   4.654   1.456  0.0135  0.1301  0.4850
 8398TIP3    H149389   3.599   4.712   1.488  1.4576  2.0697  0.2633
 8398TIP3    H249390   3.674   4.675   1.363 -1.9824 -3.1742 -0.5407
 8399TIP3   OH249391   4.984   2.210   1.954  0.3706  0.1408  0.1442
 8399TIP3    H149392   4.911   2.160   1.917 -0.3470  1.0190  0.3504
 8399TIP3    H249393   5.062   2.169   1.917 -0.2869  0.2029 -1.3663
 8400TIP3   OH249394   6.785   4.063   1.002  0.3843  0.2640 -0.3979
 8400TIP3    H149395   6.850   4.032   0.939  2.1825 -0.8983  1.8308
 8400TIP3    H249396   6.806   4.156   1.015  0.9508  0.1449 -0.4441
 8401TIP3   OH249397   6.538   0.822   0.705 -0.4867 -0.8491  0.1580
 8401TIP3    H149398   6.617   0.875   0.713 -0.4499 -0.5837 -1.6196
 8401TIP3    H249399   6.468   0.880   0.734 -0.3567 -0.0602 -1.0347
 8402TIP3   OH249400   1.349   6.981   0.844  0.3717  0.0275  0.2293
 8402TIP3    H149401   1.316   7.051   0.901  0.2298 -0.2790  0.5250
 8402TIP3    H249402   1.298   6.904   0.869  0.0899 -0.0385 -0.5280
 8403TIP3   OH249403   2.158   0.078   2.669 -0.3183 -0.2073  0.4917
 8403TIP3    H149404   2.177  -0.012   2.643  0.7316 -0.3195  1.5242
 8403TIP3    H249405   2.243   0.122   2.668 -1.0831  1.5220 -2.4326
 8404TIP3   OH249406   5.028   3.935   2.405  0.0863  0.1080 -0.1529
 8404TIP3    H149407   4.985   3.905   2.325 -1.5012  0.5726  0.4993
 8404TIP3    H249408   4.970   4.001   2.441  0.5812 -0.3430  1.5917
 8405TIP3   OH249409   0.762   1.134   0.534 -0.3198 -0.5618  0.1589
 8405TIP3    H149410   0.764   1.055   0.588  0.7985 -0.8056 -0.2156
 8405TIP3    H249411   0.680   1.176   0.558 -0.4232 -1.2761  1.1669
 8406TIP3   OH249412   2.481   6.300   2.092  0.3583 -0.1729  0.1120
 8406TIP3    H149413   2.440   6.259   2.168  0.4068 -0.3163  0.0606
 8406TIP3    H249414   2.417   6.292   2.022 -1.2369  3.0965  0.9875
 8407TIP3   OH249415   1.848   2.561   1.686 -0.0651 -0.1515 -0.3693
 8407TIP3    H149416   1.872   2.582   1.596 -0.1774  0.1300 -0.3331
 8407TIP3    H249417   1.753   2.549   1.683  0.0277 -0.9555 -0.4506
 8408TIP3   OH249418   4.314   5.749   2.856  0.6457 -0.1435  0.2101
 8408TIP3    H149419   4.389   5.782   2.905  0.4552  0.9180 -0.1982
 8408TIP3    H249420   4.280   5.678   2.910  0.7440  0.6748  1.3859
 8409TIP3   OH249421   4.515   1.021   1.862 -0.2912 -0.0512 -0.1834
 8409TIP3    H149422   4.595   1.022   1.914  0.7445  2.7823 -1.6391
 8409TIP3    H249423   4.448   0.987   1.922  1.2092  1.1900  2.3440
 8410TIP3   OH249424   6.736   2.229   1.398 -0.5994  0.1132 -0.6475
 8410TIP3    H149425   6.781   2.166   1.454 -2.0072 -2.0448 -1.8369
 8410TIP3    H249426   6.764   2.207   1.309 -0.2203  1.9625 -1.0327
 8411TIP3   OH249427   2.344   6.542   1.539 -0.2604 -0.5279  0.5791
 8411TIP3    H149428   2.394   6.604   1.485  0.3753 -1.1230  0.4738
 8411TIP3    H249429   2.355   6.574   1.628  0.4743 -0.7624  0.5770
 8412TIP3   OH249430   5.867   3.685   1.707 -0.1294 -0.0692 -0.3824
 8412TIP3    H149431   5.913   3.611   1.747  0.3146 -1.0683 -2.5972
 8412TIP3    H249432   5.933   3.727   1.652 -0.2999  2.2018  1.0044
 8413TIP3   OH249433   4.815   5.807   2.240 -0.2286 -0.2367 -0.0136
 8413TIP3    H149434   4.886   5.869   2.228 -1.6140  1.5894  0.8845
 8413TIP3    H249435   4.823   5.777   2.330  0.2889 -1.2483 -0.3700
 8414TIP3   OH249436   7.635   0.064   1.211  0.6176 -0.1048  0.1059
 8414TIP3    H149437   7.612   0.139   1.266  0.1457 -0.6145  0.6125
 8414TIP3    H249438   7.723   0.040   1.241  0.1907 -0.6561  0.9707
 8415TIP3   OH249439   6.076   0.863   0.468  0.5452 -0.0922 -0.0220
 8415TIP3    H149440   6.011   0.844   0.400  0.2241  1.9849 -0.3770
 8415TIP3    H249441   6.079   0.784   0.521 -1.4815 -0.6703 -0.6577
 8416TIP3   OH249442   5.724   4.466   1.977  0.0374 -0.0926 -0.1710
 8416TIP3    H149443   5.817   4.487   1.990 -0.5659  2.0447  1.1586
 8416TIP3    H249444   5.708   4.485   1.885  0.6937  0.5061 -0.1686
 8417TIP3   OH249445   7.456   2.293   2.434  0.1007  0.2229  0.2009
 8417TIP3    H149446   7.461   2.238   2.512  0.3592 -0.4712 -0.2871
 8417TIP3    H249447   7.394   2.246   2.377 -1.4403  1.5998  0.6535
 8418TIP3   OH249448   3.348   1.353   2.513 -0.3443 -0.1495  0.0142
 8418TIP3    H149449   3.267   1.333   2.561 -0.6580 -0.1766 -0.5101
 8418TIP3    H249450   3.327   1.433   2.464 -0.8175 -1.3477 -1.8477
 8419TIP3   OH249451   4.238   0.322   0.506 -0.7508 -0.0404  0.2867
 8419TIP3    H149452   4.225   0.276   0.424 -1.7731  0.0147  0.3989
 8419TIP3    H249453   4.175   0.394   0.503  1.0751  1.6316 -0.0696
 8420TIP3   OH249454   1.693   4.006   1.388  0.1707  0.0384 -0.3115
 8420TIP3    H149455   1.670   3.939   1.453 -1.0844  0.4820 -0.2716
 8420TIP3    H249456   1.609   4.029   1.347  0.8026  0.5115 -1.3664
 8421TIP3   OH249457   3.164   1.368   0.720 -0.2398  0.2932  0.0510
 8421TIP3    H149458   3.105   1.442   0.732 -0.7127 -0.3308  1.8547
 8421TIP3    H249459   3.249   1.399   0.749 -0.6693 -0.1668  1.9056
 8422TIP3   OH249460   5.213   7.527   1.849 -0.5793 -0.4647 -0.4394
 8422TIP3    H149461   5.168   7.443   1.840 -1.2667  0.0229 -1.6832
 8422TIP3    H249462   5.299   7.513   1.810 -0.2528 -0.9129  0.4174
 8423TIP3   OH249463   2.317   4.798   2.798  0.2144 -0.3811  0.4190
 8423TIP3    H149464   2.238   4.747   2.783  0.9476 -1.2098 -0.7329
 8423TIP3    H249465   2.295   4.886   2.768 -0.3514 -0.5326  0.3789
 8424TIP3   OH249466   7.246   4.968   2.649 -0.0942 -0.4227  0.2366
 8424TIP3    H149467   7.193   4.960   2.728  0.1275 -0.7128  0.3607
 8424TIP3    H249468   7.245   4.880   2.611 -0.5724 -0.1729 -0.3244
 8425TIP3   OH249469   3.585   3.932   1.827 -0.6330 -0.0690 -0.4232
 8425TIP3    H149470   3.669   3.960   1.863  0.1387 -1.7671 -0.8352
 8425TIP3    H249471   3.566   3.996   1.758 -0.4753  1.2275  0.6790
 8426TIP3   OH249472   2.254   7.519   0.778  0.4269  0.0790  0.2114
 8426TIP3    H149473   2.198   7.570   0.838 -0.8392 -1.5095  0.4621
 8426TIP3    H249474   2.200   7.508   0.700  1.1246  0.0535 -0.2691
 8427TIP3   OH249475   1.951   3.386   0.980  0.7631 -0.4178  0.1080
 8427TIP3    H149476   1.909   3.332   1.046  0.9656  0.2844  0.8279
 8427TIP3    H249477   1.959   3.329   0.904  0.2276 -1.1376  0.5768
 8428TIP3   OH249478   1.520   5.993   1.021 -0.6192 -0.6152  0.5188
 8428TIP3    H149479   1.504   5.918   1.079 -0.0907 -1.3169 -0.2246
 8428TIP3    H249480   1.436   6.039   1.020 -0.7053 -0.6947  1.6722
 8429TIP3   OH249481   3.017   6.047   3.214  0.1615  0.0523 -0.1398
 8429TIP3    H149482   2.922   6.050   3.226 -0.1235  0.7035 -2.1748
 8429TIP3    H249483   3.045   6.138   3.226  0.5043 -0.1080  0.2767
 8430TIP3   OH249484   4.893   0.028   2.217 -0.0074  0.2945 -0.4778
 8430TIP3    H149485   4.833   0.101   2.203 -1.1592 -0.9561 -2.5708
 8430TIP3    H249486   4.886  -0.025   2.137  0.4693 -2.3152  1.0793
 8431TIP3   OH249487   6.343   6.872   1.087 -0.0864 -0.0701 -0.2342
 8431TIP3    H149488   6.282   6.878   1.161 -0.2055  0.6524 -0.3888
 8431TIP3    H249489   6.428   6.852   1.127 -0.2558 -0.2295  0.0491
 8432TIP3   OH249490   3.753   5.752   3.106 -0.2583  0.1278 -0.1037
 8432TIP3    H149491   3.810   5.754   3.183 -1.5993  1.4239  0.9230
 8432TIP3    H249492   3.690   5.682   3.125 -0.8556  0.7358  0.2107
 8433TIP3   OH249493   7.405   5.782   2.651 -0.4574 -0.0394  0.0717
 8433TIP3    H149494   7.361   5.861   2.682 -0.7686  0.9680 -2.7017
 8433TIP3    H249495   7.431   5.737   2.731 -0.1408  2.9208  1.7800
 8434TIP3   OH249496   6.094   5.912   2.246 -0.0340  0.0044  0.2942
 8434TIP3    H149497   6.104   5.933   2.339  0.0881  0.2426  0.2286
 8434TIP3    H249498   6.055   5.991   2.208  0.0474 -0.0403  0.1183
 8435TIP3   OH249499   6.726   2.118   0.715  0.4025  0.1865 -0.1597
 8435TIP3    H149500   6.639   2.152   0.734  0.4087  0.2886 -0.3188
 8435TIP3    H249501   6.711   2.030   0.681  0.4383 -0.4384  1.3589
 8436TIP3   OH249502   3.570   4.758   2.455  0.4142  0.2737 -0.0944
 8436TIP3    H149503   3.637   4.826   2.454 -0.8776  1.5995 -0.2103
 8436TIP3    H249504   3.501   4.792   2.397  0.1205 -1.5607 -0.8938
 8437TIP3   OH249505   5.479   0.691   1.791  0.0516  0.6840 -0.3753
 8437TIP3    H149506   5.383   0.689   1.786  0.0867  0.1257 -0.8709
 8437TIP3    H249507   5.505   0.600   1.805  0.5857  0.5908 -1.8498
 8438TIP3   OH249508   7.428   7.549   1.343 -0.0861  0.9816 -0.1598
 8438TIP3    H149509   7.507   7.594   1.315 -0.0925  0.7747 -0.5042
 8438TIP3    H249510   7.447   7.456   1.331  0.8612  0.6763  2.8621
 8439TIP3   OH249511   5.343   6.153   3.129 -0.1935 -0.1747  0.3479
 8439TIP3    H149512   5.301   6.193   3.052  0.9485  0.6252  0.1149
 8439TIP3    H249513   5.286   6.080   3.152 -1.5733  0.7218 -0.1029
 8440TIP3   OH249514   1.729   0.478   1.884 -0.1496  0.3961  0.2749
 8440TIP3    H149515   1.692   0.478   1.796  0.5903 -0.5696 -0.0417
 8440TIP3    H249516   1.652   0.478   1.942 -0.6674  2.5859 -0.3203
 8441TIP3   OH249517   7.492   5.856   3.124  0.0629  0.6866 -0.0324
 8441TIP3    H149518   7.585   5.832   3.116  0.1295  0.6258  0.8250
 8441TIP3    H249519   7.447   5.799   3.061  0.2551 -1.5065  1.6781
 8442TIP3   OH249520   7.006   5.967   1.631 -0.2504  0.1680  0.5174
 8442TIP3    H149521   6.974   5.985   1.543  1.0526  0.2345  0.0530
 8442TIP3    H249522   7.095   5.936   1.620 -0.2507 -0.3702  1.7812
 8443TIP3   OH249523   4.799   6.470   2.608 -0.4394  0.5213  0.3871
 8443TIP3    H149524   4.740   6.492   2.680 -0.2953  0.3924  0.5441
 8443TIP3    H249525   4.870   6.534   2.615 -1.2533  1.5697 -0.6431
 8444TIP3   OH249526   7.272   0.843   0.819 -0.1281  0.1302 -0.0191
 8444TIP3    H149527   7.248   0.752   0.839  3.3767 -1.1566 -0.9037
 8444TIP3    H249528   7.349   0.859   0.873  0.9742  1.5552 -1.8979
 8445TIP3   OH249529   0.966   5.056   1.981 -0.4609  0.0894 -0.7780
 8445TIP3    H149530   0.912   5.096   2.050  1.0794 -0.7535  1.0278
 8445TIP3    H249531   0.904   5.033   1.912 -2.1782  0.5065  0.5463
 8446TIP3   OH249532   6.073   0.180   2.511  0.9716  0.1493 -0.0824
 8446TIP3    H149533   6.140   0.215   2.453 -0.4266  1.5110 -0.9710
 8446TIP3    H249534   6.094   0.217   2.597  0.2505  2.3036 -0.7521
 8447TIP3   OH249535   5.703   0.628   1.521  0.0066  0.3178  0.4945
 8447TIP3    H149536   5.686   0.545   1.566  0.8037 -0.5644 -0.7537
 8447TIP3    H249537   5.796   0.646   1.539 -0.0062  0.6208  0.2657
 8448TIP3   OH249538   2.898   4.443   1.231 -0.3802  0.5385  0.3243
 8448TIP3    H149539   2.883   4.403   1.145 -1.1713  0.2808  0.5720
 8448TIP3    H249540   2.973   4.500   1.218 -0.1385  0.0714 -0.4001
 8449TIP3   OH249541   5.057   0.606   1.958  0.4442  0.2780 -0.0582
 8449TIP3    H149542   5.089   0.599   2.048  1.4399  0.0767 -0.4187
 8449TIP3    H249543   5.104   0.681   1.922 -2.4358  2.6186  0.5832
 8450TIP3   OH249544   4.345   2.222   1.238 -0.2178  0.4262  0.0583
 8450TIP3    H149545   4.296   2.214   1.156  0.6638  1.6556 -0.6454
 8450TIP3    H249546   4.410   2.290   1.219 -0.6579  1.4928  2.1139
 8451TIP3   OH249547   2.972   6.509   3.410  0.2662 -0.6479 -0.5358
 8451TIP3    H149548   3.032   6.581   3.430  1.6544 -1.8083 -0.3468
 8451TIP3    H249549   2.922   6.498   3.491  1.1461 -0.9022 -0.0048
 8452TIP3   OH249550   6.633   5.186   1.060 -0.2171  0.2570 -0.3195
 8452TIP3    H149551   6.686   5.224   0.990 -0.9287  2.1366  0.0899
 8452TIP3    H249552   6.544   5.185   1.026 -0.2281 -1.1867 -0.3305
 8453TIP3   OH249553   7.076   1.849   1.318  0.1574  0.6141 -0.4076
 8453TIP3    H149554   7.107   1.848   1.409  0.5303 -1.0370 -0.5181
 8453TIP3    H249555   7.148   1.810   1.268 -1.0992 -1.0775 -1.0032
 8454TIP3   OH249556   4.132   0.702   2.840  0.6636  0.2778 -0.1794
 8454TIP3    H149557   4.220   0.690   2.876 -0.0445  2.6099  2.7222
 8454TIP3    H249558   4.081   0.628   2.875  1.0668 -0.1298 -0.4461
 8455TIP3   OH249559   7.137   4.691   2.795 -0.2318 -0.0154 -0.4542
 8455TIP3    H149560   7.180   4.761   2.844  0.6675 -1.9745  1.7124
 8455TIP3    H249561   7.202   4.664   2.730  1.3105 -1.8040  1.6892
 8456TIP3   OH249562   5.878   5.795   2.497  0.4858  0.1982  0.2155
 8456TIP3    H149563   5.912   5.804   2.586  1.9872  1.0638 -0.4230
 8456TIP3    H249564   5.815   5.723   2.503 -0.6396  1.2685  2.2958
 8457TIP3   OH249565   5.601   5.548   1.996 -0.3405 -0.3678 -0.3686
 8457TIP3    H149566   5.581   5.627   1.945 -1.0304  0.2954  0.8536
 8457TIP3    H249567   5.576   5.475   1.940 -0.4249  0.3115 -1.2278
 8458TIP3   OH249568   2.222   4.593   1.182  0.0407  0.2170  0.3243
 8458TIP3    H149569   2.134   4.560   1.164  0.3083  0.2296 -1.0699
 8458TIP3    H249570   2.274   4.514   1.200  0.1653  0.0447 -0.7492
 8459TIP3   OH249571   5.427   1.798   0.500  0.0568 -0.0044  0.0930
 8459TIP3    H149572   5.445   1.708   0.474 -1.2332  0.0264 -0.9887
 8459TIP3    H249573   5.333   1.798   0.522 -0.3229  1.3842 -1.3611
 8460TIP3   OH249574   2.366   4.908   1.622  0.1616  0.2124  0.0290
 8460TIP3    H149575   2.427   4.853   1.672  1.3575  1.7358  0.3143
 8460TIP3    H249576   2.421   4.956   1.560 -0.7909  1.3758  0.0435
 8461TIP3   OH249577   7.288   0.923   1.996 -0.2339  0.4055  0.1315
 8461TIP3    H149578   7.377   0.904   2.027 -0.0212  2.0982  0.6529
 8461TIP3    H249579   7.301   0.985   1.924 -0.9307 -0.7191 -1.0049
 8462TIP3   OH249580   2.936   4.433   2.335  0.1670  0.1060 -0.2623
 8462TIP3    H149581   2.843   4.414   2.325  0.0280 -0.5099  1.8042
 8462TIP3    H249582   2.980   4.351   2.313  0.0062 -0.5106  1.5583
 8463TIP3   OH249583   3.024   1.166   1.988 -0.1581 -0.2618 -0.3149
 8463TIP3    H149584   3.007   1.134   1.899 -0.9081  1.0065 -0.6569
 8463TIP3    H249585   3.020   1.262   1.979  0.0391 -0.1199  1.0338
 8464TIP3   OH249586   0.389   0.616   1.636 -0.6775  0.1095  0.4117
 8464TIP3    H149587   0.346   0.534   1.660 -1.8803  0.1322 -1.4654
 8464TIP3    H249588   0.461   0.624   1.698 -1.4381 -1.5925  1.5969
 8465TIP3   OH249589   0.391   7.263   3.089 -0.2844 -0.2655 -0.0619
 8465TIP3    H149590   0.340   7.328   3.039 -0.1610 -0.2509 -0.1697
 8465TIP3    H249591   0.376   7.286   3.180 -0.0399  0.0697 -0.1045
 8466TIP3   OH249592   1.447   2.003   2.202 -0.1477 -0.0075 -0.0060
 8466TIP3    H149593   1.387   2.045   2.264 -0.4843  0.1906 -0.4607
 8466TIP3    H249594   1.519   2.065   2.194  1.3529 -1.2934  2.3949
 8467TIP3   OH249595   3.755   3.337   1.165  0.0714 -0.0049 -0.6840
 8467TIP3    H149596   3.799   3.298   1.241 -0.6764 -4.3466 -2.1721
 8467TIP3    H249597   3.667   3.359   1.197  0.1673 -0.6320  0.0389
 8468TIP3   OH249598   3.511   5.481   2.620  0.1358 -0.7884  0.1576
 8468TIP3    H149599   3.574   5.553   2.616 -0.1194 -0.5543  0.2590
 8468TIP3    H249600   3.542   5.418   2.555 -0.6153  0.2362 -1.2776
 8469TIP3   OH249601   0.935   6.871   1.850 -0.4390  0.3688 -0.5884
 8469TIP3    H149602   0.847   6.904   1.833 -0.1584  0.7922 -1.2736
 8469TIP3    H249603   0.952   6.811   1.777 -0.5953 -0.6247  0.1616
 8470TIP3   OH249604   5.251   0.050   3.108 -0.0387  0.8923 -0.4057
 8470TIP3    H149605   5.295   0.017   3.030  0.7423  1.9194 -0.4217
 8470TIP3    H249606   5.284   0.139   3.118 -1.6866  1.5123 -0.0894
 8471TIP3   OH249607   4.089   1.303   2.882  0.2678 -0.4686 -0.5263
 8471TIP3    H149608   4.135   1.312   2.966  2.2460  0.7563 -1.6554
 8471TIP3    H249609   4.033   1.226   2.893 -1.0782  0.8051  2.5525
 8472TIP3   OH249610   4.622   5.437   1.343 -0.0298 -0.1657 -0.2946
 8472TIP3    H149611   4.544   5.453   1.397  1.1066  1.2535  1.0324
 8472TIP3    H249612   4.591   5.447   1.253 -1.6703 -1.1141  0.1091
 8473TIP3   OH249613   0.283   2.639   1.015  0.4390 -0.4068 -0.1236
 8473TIP3    H149614   0.254   2.729   1.003 -0.1056 -0.2932  1.7586
 8473TIP3    H249615   0.373   2.646   1.046 -0.1094 -0.3793  1.6020
 8474TIP3   OH249616   7.351   1.791   1.228  0.4799  0.3858  0.0291
 8474TIP3    H149617   7.387   1.879   1.217 -0.5127  0.7777 -0.1804
 8474TIP3    H249618   7.367   1.770   1.320  2.1131  0.1321 -0.2730
 8475TIP3   OH249619   7.124   3.361   2.344 -0.1121 -0.1189  0.1948
 8475TIP3    H149620   7.125   3.366   2.439 -2.7837  1.3410  0.2585
 8475TIP3    H249621   7.035   3.332   2.323  0.4084 -0.4141 -1.8707
 8476TIP3   OH249622   3.689   4.996   2.472 -0.0161  0.2537 -0.5414
 8476TIP3    H149623   3.652   5.073   2.431 -0.2208 -0.3334 -1.4871
 8476TIP3    H249624   3.783   5.015   2.480 -0.1632  0.8434 -0.1875
 8477TIP3   OH249625   2.307   0.196   2.397 -0.2733  0.3912 -0.3522
 8477TIP3    H149626   2.334   0.269   2.341  0.1898 -0.5295 -1.3697
 8477TIP3    H249627   2.386   0.144   2.409 -0.8991 -0.7130 -0.8555
 8478TIP3   OH249628   1.335   4.467   1.498  0.1620 -0.6514 -0.0155
 8478TIP3    H149629   1.301   4.472   1.408 -1.8187  2.4798  0.7519
 8478TIP3    H249630   1.362   4.556   1.518  2.9275 -1.7813  1.7417
 8479TIP3   OH249631   1.986   5.174   2.865 -0.3449 -0.4378  0.3407
 8479TIP3    H149632   1.979   5.170   2.960  0.5152 -1.5904  0.3742
 8479TIP3    H249633   1.931   5.102   2.833 -0.5641 -0.1109 -0.0311
 8480TIP3   OH249634   1.902   0.127   1.342 -0.1744 -0.0815  0.5297
 8480TIP3    H149635   1.936   0.200   1.393  0.2411 -0.0338  0.1825
 8480TIP3    H249636   1.850   0.168   1.273  0.6837 -0.0809 -0.1255
 8481TIP3   OH249637   6.008   4.232   1.910  0.2161 -0.4568  0.6023
 8481TIP3    H149638   6.080   4.289   1.885  1.7874 -2.6690 -0.2471
 8481TIP3    H249639   5.935   4.260   1.855  1.7455 -0.9939 -1.8329
 8482TIP3   OH249640   2.269   3.371   2.709 -0.9733 -0.1665 -0.3873
 8482TIP3    H149641   2.245   3.288   2.668 -1.4431 -0.7565  1.0430
 8482TIP3    H249642   2.202   3.432   2.678 -0.0305 -0.0172 -2.2937
 8483TIP3   OH249643   0.171   1.630   2.203  0.1507 -1.0487 -0.3671
 8483TIP3    H149644   0.219   1.713   2.206  2.1354 -1.9782 -2.6844
 8483TIP3    H249645   0.186   1.591   2.289  1.0832  0.0025 -0.0233
 8484TIP3   OH249646   5.440   1.021   1.129  0.3197 -0.3542  0.5308
 8484TIP3    H149647   5.485   0.982   1.054  1.0295  0.1393  0.6882
 8484TIP3    H249648   5.507   1.024   1.197 -0.1474 -0.2150  0.9850
 8485TIP3   OH249649   4.553   0.519   1.075  0.2947 -0.4287 -0.0590
 8485TIP3    H149650   4.564   0.520   1.170 -0.3785 -0.8099  0.0212
 8485TIP3    H249651   4.495   0.445   1.058 -0.9673  0.6660 -0.6202
 8486TIP3   OH249652   1.184   0.607   0.682  0.5054 -0.2272 -0.0588
 8486TIP3    H149653   1.267   0.653   0.672  0.4081 -0.0787 -0.1842
 8486TIP3    H249654   1.180   0.586   0.776  0.1377  0.8102  0.1749
 8487TIP3   OH249655   6.792   3.527   1.367 -0.1555 -1.1153  0.0806
 8487TIP3    H149656   6.772   3.594   1.432 -2.8327  1.1153 -2.7934
 8487TIP3    H249657   6.885   3.540   1.348 -0.1007  0.3300  1.1340
 8488TIP3   OH249658   1.269   6.581   1.071 -0.5533  0.4047 -0.5794
 8488TIP3    H149659   1.241   6.587   0.980 -2.2678 -2.4015 -0.3580
 8488TIP3    H249660   1.215   6.644   1.118 -1.9227 -0.3565 -1.0945
 8489TIP3   OH249661   7.025   5.074   2.228  0.5918  0.0369  0.2584
 8489TIP3    H149662   7.079   5.041   2.157  0.1946  0.8598 -0.4373
 8489TIP3    H249663   6.992   4.995   2.272 -0.3798 -0.5153 -1.3934
 8490TIP3   OH249664   6.228   4.441   1.030  0.1727 -0.3193 -0.1728
 8490TIP3    H149665   6.301   4.446   0.968  0.3686 -1.9592 -0.1191
 8490TIP3    H249666   6.269   4.450   1.116 -0.0525  1.5394 -0.2089
 8491TIP3   OH249667   3.781   1.289   1.258 -0.2204  0.6266 -0.3151
 8491TIP3    H149668   3.818   1.353   1.197 -0.6053  0.1076 -1.1176
 8491TIP3    H249669   3.811   1.318   1.344  2.5713 -0.0482 -0.9421
 8492TIP3   OH249670   3.842   2.790   2.957 -0.1017  0.2183  0.0421
 8492TIP3    H149671   3.851   2.695   2.950  0.6327  0.3243 -0.5627
 8492TIP3    H249672   3.813   2.805   3.047  0.5378 -0.5241  0.3801
 8493TIP3   OH249673   6.676   5.268   2.654 -0.3603 -0.0896 -0.4310
 8493TIP3    H149674   6.631   5.342   2.613  3.1188  2.7388  0.3497
 8493TIP3    H249675   6.661   5.280   2.748 -0.0234 -0.5419 -0.3178
 8494TIP3   OH249676   6.919   1.525   3.118 -0.2248 -0.4427  0.3947
 8494TIP3    H149677   7.012   1.540   3.137 -0.1483  0.0135 -0.3079
 8494TIP3    H249678   6.905   1.433   3.140  0.7462 -0.9173 -0.8420
 8495TIP3   OH249679   0.189   1.650   0.589  0.5849 -0.0802  0.2962
 8495TIP3    H149680   0.139   1.593   0.646  0.1003 -0.5212 -0.5508
 8495TIP3    H249681   0.214   1.594   0.515 -2.3692  1.4016 -2.0493
 8496TIP3   OH249682   1.167   5.655   1.133  0.4445 -0.4293 -0.4250
 8496TIP3    H149683   1.225   5.690   1.065  0.5171 -0.7163 -0.5123
 8496TIP3    H249684   1.093   5.617   1.085 -0.1921  0.5969 -0.2849
 8497TIP3   OH249685   5.630   1.496   2.246  0.2083 -0.0598 -0.2928
 8497TIP3    H149686   5.674   1.574   2.214  0.7971 -0.7960 -1.3446
 8497TIP3    H249687   5.559   1.481   2.184  0.1695 -0.4234 -0.1639
 8498TIP3   OH249688   4.521   3.736   0.980  0.0765  0.1484  0.3799
 8498TIP3    H149689   4.528   3.642   0.996  0.7831  0.1021 -0.1717
 8498TIP3    H249690   4.516   3.775   1.067 -0.5493 -0.4153  0.6105
 8499TIP3   OH249691   0.003   1.960   1.706  0.0126  0.3152 -0.2204
 8499TIP3    H149692   0.000   1.945   1.612 -0.0115  0.1185 -0.1887
 8499TIP3    H249693   0.078   1.908   1.737 -0.2299  0.0513 -0.0726
 8500TIP3   OH249694   6.741   5.281   0.834 -0.5240  0.7994  0.0666
 8500TIP3    H149695   6.738   5.187   0.818 -1.1232  0.7590  0.3818
 8500TIP3    H249696   6.819   5.294   0.889  0.0174  0.6000 -0.6471
 8501TIP3   OH249697   2.392   4.344   1.231  0.5790  0.1171 -0.2671
 8501TIP3    H149698   2.398   4.260   1.275 -1.9391 -0.4113 -0.7955
 8501TIP3    H249699   2.476   4.387   1.249  1.5204 -2.0677  0.8482
 8502TIP3   OH249700   2.031   5.415   2.731  0.2240  0.4673 -0.4382
 8502TIP3    H149701   2.001   5.327   2.755 -1.3597  1.1363  0.1700
 8502TIP3    H249702   2.116   5.424   2.775 -0.2916 -0.2167  0.7502
 8503TIP3   OH249703   4.831   6.274   0.750 -0.3547 -0.3439 -0.0547
 8503TIP3    H149704   4.921   6.301   0.766 -0.5855 -0.0453  0.7809
 8503TIP3    H249705   4.831   6.244   0.659  0.4205  0.3417 -0.2938
 8504TIP3   OH249706   0.203   6.501   1.810  0.2051  0.2714 -0.1889
 8504TIP3    H149707   0.216   6.408   1.791 -0.3421  0.4330 -1.4129
 8504TIP3    H249708   0.109   6.510   1.825 -0.0056  0.8998 -1.7326
 8505TIP3   OH249709   2.260   5.049   3.087 -0.1245 -0.2193 -0.2431
 8505TIP3    H149710   2.353   5.043   3.109 -0.1602  0.6835  0.1926
 8505TIP3    H249711   2.258   5.053   2.991  0.2567 -0.6343 -0.2694
 8506TIP3   OH249712   0.529   6.779   2.407  0.4722  0.4170 -0.1154
 8506TIP3    H149713   0.474   6.703   2.390  2.1025 -0.7896 -0.2480
 8506TIP3    H249714   0.467   6.851   2.422 -1.1608  0.0036 -3.8296
 8507TIP3   OH249715   2.797   5.954   0.848  0.1047 -0.1331 -0.2841
 8507TIP3    H149716   2.838   6.033   0.883 -0.3276 -1.2811  3.2113
 8507TIP3    H249717   2.725   5.986   0.794  0.2912  1.8866  0.5622
 8508TIP3   OH249718   3.851   0.753   0.782  0.0459 -0.2144  0.2466
 8508TIP3    H149719   3.791   0.679   0.790 -1.2785  0.5482 -1.7176
 8508TIP3    H249720   3.933   0.715   0.750 -1.1341 -0.7632 -2.4592
 8509TIP3   OH249721   3.444   0.898   2.633 -0.4585 -0.4855 -0.2906
 8509TIP3    H149722   3.532   0.861   2.645 -0.4166  0.2365  2.2756
 8509TIP3    H249723   3.457   0.970   2.571  0.6596 -0.7176 -0.3545
 8510TIP3   OH249724   0.032   5.188   3.318 -0.0750  0.3205 -0.1378
 8510TIP3    H149725  -0.016   5.107   3.302 -0.8587  0.3283  1.9072
 8510TIP3    H249726   0.123   5.161   3.326 -0.4696 -0.6022  1.8115
 8511TIP3   OH249727   5.888   5.510   2.084  0.1590  0.1981 -0.0972
 8511TIP3    H149728   5.808   5.515   2.032  0.5176  0.2284 -0.6609
 8511TIP3    H249729   5.893   5.594   2.129 -0.3500  0.0271  0.2836
 8512TIP3   OH249730   2.371   5.670   3.322 -0.2903  0.1868 -0.5006
 8512TIP3    H149731   2.301   5.608   3.307  0.8457 -1.2799  0.0549
 8512TIP3    H249732   2.451   5.619   3.315  0.7011  1.6216 -0.2097
 8513TIP3   OH249733   2.081   5.329   1.325  0.1153 -0.2780 -0.3014
 8513TIP3    H149734   2.164   5.291   1.298  0.2295 -0.2349 -0.0179
 8513TIP3    H249735   2.105   5.409   1.373  0.1023 -1.7484  2.3471
 8514TIP3   OH249736   6.938   7.362   2.380 -0.0887 -0.3495  0.1831
 8514TIP3    H149737   6.994   7.423   2.427 -1.0348  1.0091 -0.3871
 8514TIP3    H249738   6.906   7.302   2.447  2.4461 -1.5595  0.4528
 8515TIP3   OH249739   1.468   4.242   3.438 -0.0605 -0.0320 -0.6389
 8515TIP3    H149740   1.378   4.210   3.451 -0.0335  0.8803  2.8458
 8515TIP3    H249741   1.522   4.178   3.485  0.5952  1.6195  1.0022
 8516TIP3   OH249742   3.396   7.177   1.786 -0.5206  0.0535  0.5184
 8516TIP3    H149743   3.422   7.217   1.869 -1.7247 -0.2497  1.0623
 8516TIP3    H249744   3.439   7.092   1.786  0.0713  0.3399  0.4722
 8517TIP3   OH249745   6.712   0.020   1.587 -0.8597 -0.1038  0.4384
 8517TIP3    H149746   6.625   0.005   1.625 -0.9490  0.0592  0.3038
 8517TIP3    H249747   6.767  -0.049   1.623 -0.9375  0.0614  0.8791
 8518TIP3   OH249748   2.364   7.253   2.870 -0.6591  0.4394  0.6172
 8518TIP3    H149749   2.350   7.344   2.892 -1.8939  0.3255  0.3815
 8518TIP3    H249750   2.455   7.235   2.895  0.0499  2.0958 -0.6099
 8519TIP3   OH249751   5.987   5.336   3.065 -0.2623  0.1119  0.1841
 8519TIP3    H149752   5.983   5.379   2.980  1.0144  1.0693  0.5783
 8519TIP3    H249753   6.013   5.246   3.044  0.1747  0.3711 -0.4501
 8520TIP3   OH249754   0.050   4.175   2.250 -0.0636 -0.0383  0.7173
 8520TIP3    H149755   0.072   4.093   2.296  2.2580 -0.5566 -1.1153
 8520TIP3    H249756   0.016   4.232   2.319  0.3846 -1.7753  2.4910
 8521TIP3   OH249757   6.236   3.168   0.848 -1.2140 -0.0342  0.3128
 8521TIP3    H149758   6.255   3.144   0.757 -0.2488  0.7248  0.2826
 8521TIP3    H249759   6.223   3.085   0.893 -0.6347 -0.4829 -0.3108
 8522TIP3   OH249760   3.980   0.316   2.706 -0.0575 -0.8912 -0.7931
 8522TIP3    H149761   3.899   0.345   2.748  0.3558  0.0699 -0.6206
 8522TIP3    H249762   3.973   0.347   2.615  0.4377 -0.0856 -0.5776
 8523TIP3   OH249763   2.910   0.690   0.761 -0.2864 -0.0997 -0.0360
 8523TIP3    H149764   2.835   0.739   0.727  0.0177  0.9635  0.7972
 8523TIP3    H249765   2.964   0.755   0.804  0.7164 -0.9911  0.0957
 8524TIP3   OH249766   2.189   4.719   2.505  0.1849 -0.5486 -0.1231
 8524TIP3    H149767   2.122   4.656   2.477  0.3820  0.5153 -3.3848
 8524TIP3    H249768   2.151   4.804   2.487  0.4420  0.3571  3.0307
 8525TIP3   OH249769   1.824   6.936   2.645 -0.3077 -1.0441 -0.2546
 8525TIP3    H149770   1.889   7.007   2.641 -1.9374  0.5066 -0.3895
 8525TIP3    H249771   1.876   6.858   2.661  1.6280  0.0917 -0.5937
 8526TIP3   OH249772   1.225   6.566   3.736 -0.5524 -0.1843  1.1609
 8526TIP3    H149773   1.194   6.628   3.669 -0.4945  1.5893  2.6818
 8526TIP3    H249774   1.288   6.510   3.690 -0.6401  0.8531 -0.3046
 8527TIP3   OH249775   1.076   6.027   2.784 -0.4270 -0.2047 -0.1911
 8527TIP3    H149776   1.051   6.052   2.695  0.7983  2.9642  0.2050
 8527TIP3    H249777   0.995   6.033   2.834 -0.5949  1.0354 -0.5684
 8528TIP3   OH249778   7.316   7.250   3.326  0.1905 -0.3079 -0.4221
 8528TIP3    H149779   7.289   7.178   3.382  0.3807 -0.3919 -0.4379
 8528TIP3    H249780   7.246   7.258   3.262 -0.1749 -0.0166  0.0047
 8529TIP3   OH249781   5.824   7.191   1.405 -0.9352 -0.0189 -0.5514
 8529TIP3    H149782   5.919   7.205   1.402 -0.7855 -1.0258 -0.8615
 8529TIP3    H249783   5.793   7.225   1.321 -1.2146  2.5835  0.4990
 8530TIP3   OH249784   0.969   1.090   1.888 -0.2146 -0.2353 -0.0575
 8530TIP3    H149785   1.033   1.020   1.876 -0.6627 -0.4840 -1.0804
 8530TIP3    H249786   0.955   1.125   1.800 -0.7600  0.4645  0.2979
 8531TIP3   OH249787   3.958   1.069   2.824 -0.0334 -0.2559  0.3889
 8531TIP3    H149788   3.917   1.099   2.743  1.2404 -1.2166 -0.6585
 8531TIP3    H249789   3.901   0.999   2.856 -0.0923 -0.4664 -0.1608
 8532TIP3   OH249790   4.868   5.665   1.474  0.0273 -0.1329 -0.2528
 8532TIP3    H149791   4.916   5.594   1.516  0.1140 -0.7922 -1.4205
 8532TIP3    H249792   4.859   5.637   1.383 -0.8752  0.8713 -0.4905
 8533TIP3   OH249793   1.735   0.036   2.581  0.2431 -0.0147  0.2099
 8533TIP3    H149794   1.812  -0.021   2.581 -0.1281 -0.5257  0.7646
 8533TIP3    H249795   1.729   0.067   2.491  0.3600 -0.9850 -0.1516
 8534TIP3   OH249796   6.516   1.072   2.608 -0.4897 -0.4398 -0.3552
 8534TIP3    H149797   6.492   1.034   2.692  1.0772  0.3741  0.5088
 8534TIP3    H249798   6.519   1.166   2.624  1.4706 -0.3783 -0.8118
 8535TIP3   OH249799   1.302   4.509   2.392  0.0904  0.4033  0.2334
 8535TIP3    H149800   1.212   4.524   2.420 -0.3485 -2.2219  0.4493
 8535TIP3    H249801   1.325   4.424   2.429  1.4499 -0.6014 -2.6596
 8536TIP3   OH249802   1.182   1.856   2.256 -0.0011  0.0683 -0.2222
 8536TIP3    H149803   1.277   1.852   2.268 -0.1406 -0.2185  0.9079
 8536TIP3    H249804   1.169   1.917   2.184  1.0516 -0.0777 -0.5444
 8537TIP3   OH249805   0.318   6.938   2.477 -0.5207 -0.1280 -0.6916
 8537TIP3    H149806   0.303   6.991   2.399 -2.2375 -1.0189 -1.0095
 8537TIP3    H249807   0.272   6.985   2.547  2.3716  1.5739  0.2797
 8538TIP3   OH249808   5.076   6.597   2.385  0.0209 -0.5336 -0.5881
 8538TIP3    H149809   5.062   6.628   2.475 -1.3167 -0.2781 -0.8751
 8538TIP3    H249810   5.171   6.587   2.379  0.5936  3.3915 -0.4411
 8539TIP3   OH249811   1.485   0.931   1.448  1.0486  0.2838  0.4052
 8539TIP3    H149812   1.521   0.942   1.360 -1.1595 -0.4387 -0.6503
 8539TIP3    H249813   1.458   0.839   1.451  1.7704  0.0975  2.1425
 8540TIP3   OH249814   7.531   4.679   1.295 -0.6732  0.2844  0.4682
 8540TIP3    H149815   7.506   4.660   1.385 -2.4077 -0.8421 -0.1972
 8540TIP3    H249816   7.599   4.614   1.275 -0.2498  0.5694  0.9540
 8541TIP3   OH249817   1.281   0.183   2.198 -0.1217 -0.9818  0.2364
 8541TIP3    H149818   1.364   0.137   2.210  0.8536  0.3765 -0.8635
 8541TIP3    H249819   1.307   0.273   2.176 -1.8189 -0.9242 -1.8700
 8542TIP3   OH249820   2.882   4.146   2.622 -0.6501 -0.2432  0.0579
 8542TIP3    H149821   2.877   4.181   2.711  0.9861 -0.5914  0.3164
 8542TIP3    H249822   2.927   4.062   2.631 -1.3866 -0.7789 -0.9856
 8543TIP3   OH249823   6.384   6.036   1.603 -0.0714  0.2503  0.1194
 8543TIP3    H149824   6.436   5.957   1.590  0.7099  0.8134 -0.2397
 8543TIP3    H249825   6.448   6.107   1.608 -0.8290  1.1394 -1.6429
 8544TIP3   OH249826   7.570   3.560   0.504  0.0323  0.1450 -0.6747
 8544TIP3    H149827   7.479   3.532   0.512 -0.0663  0.0063 -2.0271
 8544TIP3    H249828   7.566   3.655   0.498 -0.0384  0.1328 -0.8248
 8545TIP3   OH249829   3.805   2.517   2.892 -0.2445  0.0055 -0.1950
 8545TIP3    H149830   3.844   2.447   2.945 -0.3073  1.2019  1.5064
 8545TIP3    H249831   3.822   2.491   2.801  1.9278 -0.9893  0.4304
 8546TIP3   OH249832   5.479   2.349   1.420 -0.6020 -0.0372 -0.2112
 8546TIP3    H149833   5.437   2.423   1.377  1.2063  0.2630 -1.5556
 8546TIP3    H249834   5.413   2.318   1.482 -2.0301  1.6342 -0.7907
 8547TIP3   OH249835   0.795   2.334   2.937  0.2242  0.2167  0.3917
 8547TIP3    H149836   0.768   2.254   2.981  2.3255  0.2423  1.9097
 8547TIP3    H249837   0.807   2.309   2.846  0.1811 -1.0267  0.7076
 8548TIP3   OH249838   2.322   1.955   2.529  0.0977 -0.0916 -0.4184
 8548TIP3    H149839   2.355   2.037   2.492  0.2688 -0.1055 -0.2993
 8548TIP3    H249840   2.390   1.890   2.509 -0.3740 -0.3640 -1.1551
 8549TIP3   OH249841   7.597   6.755   1.857 -0.0097  0.3311  0.3494
 8549TIP3    H149842   7.504   6.744   1.877  0.5981 -2.3153  2.2855
 8549TIP3    H249843   7.641   6.686   1.907  2.7848 -0.2467 -2.5618
 8550TIP3   OH249844   2.273   1.863   8.045  0.3191  0.0317  0.0511
 8550TIP3    H149845   2.317   1.794   8.093  2.1294  1.5007  0.6235
 8550TIP3    H249846   2.294   1.846   7.953 -1.1886 -1.4409 -0.0659
 8551TIP3   OH249847   2.949   6.408   2.078  0.1240 -0.3387  0.3305
 8551TIP3    H149848   2.953   6.343   2.007  0.3842  1.4053 -1.3185
 8551TIP3    H249849   2.878   6.467   2.052 -1.3991 -0.9795  2.7562
 8552TIP3   OH249850   5.731   1.378   2.459 -0.1320 -0.2417 -0.4584
 8552TIP3    H149851   5.823   1.402   2.462 -0.6858  2.1004 -0.1488
 8552TIP3    H249852   5.695   1.429   2.387 -1.3994 -0.2423  0.1435
 8553TIP3   OH249853   0.574   6.718   3.486 -0.2954  0.3581 -0.3318
 8553TIP3    H149854   0.571   6.727   3.581  1.3370  0.1876 -0.2410
 8553TIP3    H249855   0.630   6.790   3.456 -0.3939  0.1176 -1.1329
 8554TIP3   OH249856   4.865   2.419   0.780  0.0970 -0.2103 -0.1188
 8554TIP3    H149857   4.778   2.448   0.753 -0.4782 -0.8992  0.9025
 8554TIP3    H249858   4.853   2.390   0.870  1.3534 -0.4986 -0.0283
 8555TIP3   OH249859   1.748   6.008   3.033  0.0595 -0.3684  0.0110
 8555TIP3    H149860   1.737   5.938   3.098  1.1659 -0.2356  0.3647
 8555TIP3    H249861   1.771   6.085   3.085  1.7162 -0.4352 -0.5679
 8556TIP3   OH249862   0.755   5.588   1.408 -0.5315  1.0461  0.5753
 8556TIP3    H149863   0.836   5.636   1.391 -0.6478  0.8539 -0.6070
 8556TIP3    H249864   0.770   5.546   1.493  0.5760  1.0767  0.4125
 8557TIP3   OH249865   5.934   5.479   2.498 -0.3508 -0.3840  0.0636
 8557TIP3    H149866   5.845   5.511   2.516 -0.0804  0.0052  0.7751
 8557TIP3    H249867   5.978   5.553   2.457  0.0799 -0.0431  1.0988
 8558TIP3   OH249868   2.495   6.601   1.133  0.1817  0.3156  0.1329
 8558TIP3    H149869   2.405   6.628   1.114 -0.1530 -1.7766 -1.6417
 8558TIP3    H249870   2.510   6.629   1.223 -2.0100  1.2930  0.2636
 8559TIP3   OH249871   0.246   2.206   0.931 -0.0154 -0.3433 -0.9026
 8559TIP3    H149872   0.329   2.198   0.883 -0.6421 -0.1038 -2.0879
 8559TIP3    H249873   0.179   2.207   0.862 -0.9550  0.1722 -0.0148
 8560TIP3   OH249874   3.865   5.415   1.419  0.1363 -0.3818 -0.3993
 8560TIP3    H149875   3.806   5.352   1.461  1.4936 -1.3453  0.1300
 8560TIP3    H249876   3.890   5.373   1.337  0.7527 -0.3657 -0.2207
 8561TIP3   OH249877   7.626   4.856   1.085  0.1022  0.1900 -0.2876
 8561TIP3    H149878   7.639   4.949   1.104 -0.5396  0.8411 -2.6249
 8561TIP3    H249879   7.561   4.827   1.149 -0.8094  1.7734 -0.4380
 8562TIP3   OH249880   6.435   3.802   7.808  0.1383  0.0184  0.3063
 8562TIP3    H149881   6.441   3.767   7.718 -1.5784 -0.6541  0.4092
 8562TIP3    H249882   6.507   3.864   7.814  1.9132 -1.8126 -0.6721
 8563TIP3   OH249883   1.713   5.209   2.120 -0.2367 -0.5268  0.4538
 8563TIP3    H149884   1.717   5.214   2.024 -0.5346  0.4215  0.4749
 8563TIP3    H249885   1.667   5.289   2.146  0.8479 -0.2026  1.4623
 8564TIP3   OH249886   7.082   3.824   1.484  0.5003  0.0944  0.0623
 8564TIP3    H149887   7.155   3.857   1.432  0.5969 -1.0066 -0.5410
 8564TIP3    H249888   7.004   3.852   1.436  0.5774 -2.8667 -2.1063
 8565TIP3   OH249889   3.042   7.167   1.550 -0.2085  0.0407  0.0365
 8565TIP3    H149890   3.071   7.079   1.576  1.9180  1.3048  2.3681
 8565TIP3    H249891   3.060   7.171   1.456 -0.9434 -2.1914 -0.2560
 8566TIP3   OH249892   2.358   4.434   1.567  0.1899 -0.1799  0.4414
 8566TIP3    H149893   2.418   4.482   1.510 -2.4408  0.2022 -2.2513
 8566TIP3    H249894   2.415   4.387   1.628  3.0725  2.2059 -0.1643
 8567TIP3   OH249895   4.592   0.180   1.262 -0.2466 -0.2382  0.0709
 8567TIP3    H149896   4.607   0.274   1.266  0.1218 -0.3191  0.6932
 8567TIP3    H249897   4.570   0.163   1.170  1.1383  0.2329 -0.3743
 8568TIP3   OH249898   0.122   0.910   1.324 -0.4367 -0.0058  0.4348
 8568TIP3    H149899   0.047   0.855   1.302 -0.9901  0.4508  1.1549
 8568TIP3    H249900   0.156   0.873   1.405  1.0869 -1.1645 -0.6707
 8569TIP3   OH249901   5.242   5.004   0.568 -0.6665  0.4872 -0.7967
 8569TIP3    H149902   5.249   5.076   0.505  0.9621  0.2845 -0.8850
 8569TIP3    H249903   5.291   4.932   0.527  0.0002  0.1954  0.4849
 8570TIP3   OH249904   1.746   1.980   2.692 -0.0337 -0.1129 -0.4886
 8570TIP3    H149905   1.785   1.909   2.642  0.8743 -0.1100  0.1883
 8570TIP3    H249906   1.778   1.967   2.781 -1.2021  0.1779 -0.0058
 8571TIP3   OH249907   3.143   7.099   2.427 -0.3710 -0.4875 -0.2058
 8571TIP3    H149908   3.054   7.065   2.436 -1.6481  3.0238  2.4567
 8571TIP3    H249909   3.160   7.147   2.508  3.5656  0.0043 -1.0908
 8572TIP3   OH249910   5.301   5.846   0.653  0.2567  0.1642  0.1049
 8572TIP3    H149911   5.383   5.876   0.693  0.1595 -0.8078  1.0757
 8572TIP3    H249912   5.317   5.853   0.558  1.0363  1.0743  0.2858
 8573TIP3   OH249913   7.111   2.776   1.534 -0.0107  0.2822 -0.3918
 8573TIP3    H149914   7.129   2.785   1.440  0.7730  0.7966 -0.1926
 8573TIP3    H249915   7.170   2.707   1.563  0.0862  0.4559 -0.1753
 8574TIP3   OH249916   5.546   6.371   2.037 -0.3675  0.3199  0.1464
 8574TIP3    H149917   5.508   6.436   2.096 -0.1124 -0.0351  0.7157
 8574TIP3    H249918   5.473   6.341   1.983 -0.4539  1.1818 -0.2254
 8575TIP3   OH249919   1.933   0.897   2.512  0.1083  0.0684  0.5213
 8575TIP3    H149920   1.878   0.877   2.436  0.1362  1.5154  0.1011
 8575TIP3    H249921   1.989   0.969   2.484 -0.8282  1.5903  2.3159
 8576TIP3   OH249922   3.731   5.131   1.451  0.6643 -0.1303 -0.3901
 8576TIP3    H149923   3.665   5.070   1.484  0.9762  0.5552  1.6610
 8576TIP3    H249924   3.727   5.123   1.356 -0.8682 -1.6631 -0.2299
 8577TIP3   OH249925   1.406   7.116   2.859  0.2401  0.6281  0.2343
 8577TIP3    H149926   1.487   7.066   2.846  1.3065  1.7552  2.0470
 8577TIP3    H249927   1.409   7.143   2.951 -1.7013  1.5877  0.0691
 8578TIP3   OH249928   4.239   4.001   0.616  0.7693  0.4646  0.1874
 8578TIP3    H149929   4.174   3.952   0.666  1.7522  0.2941  1.3603
 8578TIP3    H249930   4.188   4.057   0.558 -0.5109  1.9476  2.5858
 8579TIP3   OH249931   6.116   6.435   0.940 -0.3724  0.1024  0.0819
 8579TIP3    H149932   6.070   6.514   0.969 -2.6902 -0.6264 -1.3666
 8579TIP3    H249933   6.199   6.467   0.905 -0.7056  1.7388  0.6895
 8580TIP3   OH249934   3.423   2.666   0.885 -0.3755  0.0971 -0.3159
 8580TIP3    H149935   3.437   2.571   0.879 -0.5109 -0.1471  2.1088
 8580TIP3    H249936   3.328   2.675   0.895 -0.3188  0.4445 -0.0673
 8581TIP3   OH249937   2.512   6.911   3.013 -0.7005  0.4229 -0.3305
 8581TIP3    H149938   2.472   6.832   3.049 -0.4528 -0.5749 -2.1356
 8581TIP3    H249939   2.488   6.980   3.075 -1.0402 -1.0178  1.2258
 8582TIP3   OH249940   1.093   2.052   3.175 -0.0874  0.1397 -0.5667
 8582TIP3    H149941   1.155   2.042   3.247  1.2475 -0.4795 -1.7513
 8582TIP3    H249942   1.116   1.983   3.113 -1.5668  0.2994 -1.3523
 8583TIP3   OH249943   5.231   3.342   1.483 -0.5237  0.8972  0.1172
 8583TIP3    H149944   5.235   3.247   1.495 -0.0629  1.0190  0.9577
 8583TIP3    H249945   5.308   3.363   1.429 -0.5283  0.8219  0.0810
 8584TIP3   OH249946   5.698   2.086   1.679  0.0636 -0.3063 -0.1631
 8584TIP3    H149947   5.706   2.180   1.694  1.2549 -0.4986  0.5017
 8584TIP3    H249948   5.604   2.072   1.666 -0.5195  0.5574  2.6159
 8585TIP3   OH249949   0.630   7.123   0.901 -0.3248  0.5767 -0.1953
 8585TIP3    H149950   0.550   7.072   0.909  1.3927 -2.4585 -0.5156
 8585TIP3    H249951   0.671   7.116   0.987  2.5892 -3.7673 -1.5933
 8586TIP3   OH249952   0.154   5.011   0.664  0.2448 -0.3320  0.4847
 8586TIP3    H149953   0.233   5.062   0.684  0.6536 -1.0058  0.6235
 8586TIP3    H249954   0.105   5.065   0.604  0.9430 -0.0109  0.1950
 8587TIP3   OH249955   1.883   5.550   1.835 -0.2562 -0.1175 -0.1711
 8587TIP3    H149956   1.924   5.485   1.778 -0.5791  0.8231 -1.5437
 8587TIP3    H249957   1.799   5.570   1.792 -0.0782  1.3210  0.0971
 8588TIP3   OH249958   7.342   4.332   1.610 -0.8438  0.1683  0.1611
 8588TIP3    H149959   7.282   4.283   1.555  2.1872 -2.2230 -1.3181
 8588TIP3    H249960   7.356   4.276   1.687  1.7460 -0.9283 -0.9862
 8589TIP3   OH249961   7.050   1.435   1.151  0.5767 -0.4644  0.5851
 8589TIP3    H149962   7.043   1.356   1.096 -0.5154 -0.2286  0.3528
 8589TIP3    H249963   7.085   1.501   1.092 -0.3534 -0.2791  0.2209
 8590TIP3   OH249964   2.197   2.829   3.642 -0.0245  0.3812 -0.0402
 8590TIP3    H149965   2.127   2.852   3.582  0.8462  2.0204 -0.5050
 8590TIP3    H249966   2.278   2.847   3.593  0.7107  0.4792  1.1491
 8591TIP3   OH249967   4.727   4.463   1.350 -0.2530 -0.4756 -0.0664
 8591TIP3    H149968   4.756   4.520   1.279 -1.3015  1.7216  1.1574
 8591TIP3    H249969   4.803   4.457   1.408  0.1661 -1.1470 -0.6718
 8592TIP3   OH249970   5.699   1.217   2.120 -0.0485  0.3566 -0.3485
 8592TIP3    H149971   5.641   1.230   2.196 -1.2516 -1.6589 -0.8317
 8592TIP3    H249972   5.645   1.240   2.045  0.2330 -0.1811 -0.7249
 8593TIP3   OH249973   5.023   5.827   1.923  0.3004 -0.0377 -0.1535
 8593TIP3    H149974   4.939   5.784   1.938  0.1721 -0.4537 -1.8599
 8593TIP3    H249975   5.025   5.900   1.986 -1.0937 -0.3364  0.2548
 8594TIP3   OH249976   0.604   6.879   0.699  0.1607 -0.5513 -0.0341
 8594TIP3    H149977   0.664   6.937   0.746 -0.4605 -0.2770  0.4368
 8594TIP3    H249978   0.519   6.895   0.739  0.2174 -3.0317  1.2791
 8595TIP3   OH249979   2.698   7.190   3.462  0.9716 -0.4249 -0.1663
 8595TIP3    H149980   2.605   7.174   3.477  0.9268 -0.5745 -0.5823
 8595TIP3    H249981   2.739   7.104   3.472  1.1457 -0.2668  0.5584
 8596TIP3   OH249982   6.337   3.840   1.078 -0.8885 -0.2480  0.0842
 8596TIP3    H149983   6.308   3.912   1.022 -0.9809 -0.1980  0.1972
 8596TIP3    H249984   6.412   3.875   1.125 -0.4509 -0.4744 -0.4327
 8597TIP3   OH249985   1.629   0.947   2.823  0.2877 -0.1506 -0.2646
 8597TIP3    H149986   1.629   0.897   2.905 -0.1179  2.1860  1.2574
 8597TIP3    H249987   1.558   0.908   2.772  0.5624 -1.6847  0.4658
 8598TIP3   OH249988   0.715   1.459   2.369  0.2126 -0.2823 -0.2100
 8598TIP3    H149989   0.749   1.531   2.317  0.0174 -0.9710 -1.3350
 8598TIP3    H249990   0.784   1.392   2.367  0.5099 -0.0528  1.0487
 8599TIP3   OH249991   1.026   3.438   3.005 -0.4290 -0.3331 -0.1506
 8599TIP3    H149992   1.027   3.532   3.019 -0.2235 -0.0553 -1.7927
 8599TIP3    H249993   1.101   3.405   3.055  0.0612  0.5159 -0.3096
 8600TIP3   OH249994   5.103   7.374   2.180  0.3900  0.1929 -0.1188
 8600TIP3    H149995   5.160   7.451   2.174 -1.2945  1.8282  2.4588
 8600TIP3    H249996   5.119   7.340   2.268 -2.1806  0.4363  0.5209
 8601TIP3   OH249997   3.492   4.998   2.673  0.1997 -0.1086 -0.2194
 8601TIP3    H149998   3.538   4.997   2.588 -2.3400  1.9432 -1.7635
 8601TIP3    H249999   3.526   5.076   2.718  2.4881 -1.8814  1.3587
 8602TIP3   OH250000   1.547   7.262   1.542 -0.4903  0.3595  0.6647
 8602TIP3    H150001   1.593   7.309   1.473 -0.1748 -1.2240 -0.2327
 8602TIP3    H250002   1.465   7.235   1.502 -0.9173  0.6009  1.3504
 8603TIP3   OH250003   3.297   5.974   3.356 -0.1355  0.5214  0.0051
 8603TIP3    H150004   3.240   5.998   3.282 -1.3700 -1.2071  0.3448
 8603TIP3    H250005   3.386   5.974   3.318 -0.8540 -1.5872 -1.8727
 8604TIP3   OH250006   0.880   7.252   2.826  0.0768 -0.0593  0.0742
 8604TIP3    H150007   0.873   7.162   2.858 -0.4146 -0.0295  0.0602
 8604TIP3    H250008   0.828   7.303   2.888 -0.9925 -0.0221 -0.8377
 8605TIP3   OH250009   7.358   3.820   2.926 -0.1068  0.6372  0.4257
 8605TIP3    H150010   7.339   3.827   2.833  0.2613  0.8648  0.3662
 8605TIP3    H250011   7.306   3.744   2.955 -2.3281  2.1247  0.6000
 8606TIP3   OH250012   2.322   5.898   3.193  0.2908  0.2717  0.3406
 8606TIP3    H150013   2.323   5.810   3.230 -3.1501 -1.0375 -2.0727
 8606TIP3    H250014   2.404   5.906   3.145  1.4944 -0.8023  2.1275
 8607TIP3   OH250015   7.503   2.802   1.204  0.4798  0.3085  0.1867
 8607TIP3    H150016   7.463   2.876   1.251 -0.9379 -0.0279 -0.4385
 8607TIP3    H250017   7.456   2.725   1.235 -0.0082 -0.0025 -1.2430
 8608TIP3   OH250018   0.705   3.256   1.217 -0.4552 -0.5060  0.6548
 8608TIP3    H150019   0.659   3.330   1.257 -1.1428 -0.5492 -0.0483
 8608TIP3    H250020   0.654   3.179   1.244  1.0576 -0.9249  2.5985
 8609TIP3   OH250021   4.528   5.192   1.662  0.2255 -0.4590  0.0908
 8609TIP3    H150022   4.559   5.261   1.603  0.9113  0.3348  1.3512
 8609TIP3    H250023   4.433   5.190   1.648  0.3106  0.0886 -0.6362
 8610TIP3   OH250024   1.003   7.231   2.300  0.3225  0.2117 -0.0653
 8610TIP3    H150025   1.080   7.175   2.295  0.9818  1.1102 -0.3317
 8610TIP3    H250026   1.010   7.273   2.386  0.4449  0.7041 -0.3080
 8611TIP3   OH250027   6.611   3.926   1.205 -0.0856  0.2355  0.1454
 8611TIP3    H150028   6.666   3.853   1.233 -0.6907 -0.3316 -0.1157
 8611TIP3    H250029   6.661   3.969   1.135  0.0411 -0.2572 -0.0707
 8612TIP3   OH250030   5.011   3.221   1.940  0.0998  0.3766  0.4033
 8612TIP3    H150031   5.030   3.250   2.029  0.5606 -1.4610  0.9595
 8612TIP3    H250032   4.918   3.198   1.943 -0.1007  1.1375  0.1528
 8613TIP3   OH250033   0.540   4.443   1.219 -0.4306  0.0322  0.1550
 8613TIP3    H150034   0.559   4.351   1.237 -1.6450 -0.3427 -0.3937
 8613TIP3    H250035   0.461   4.441   1.165 -1.2255  1.4518  1.2039
 8614TIP3   OH250036   3.974   6.387   0.634 -0.2805 -0.0923  0.1713
 8614TIP3    H150037   4.026   6.381   0.554  0.4646  1.4680  0.4936
 8614TIP3    H250038   3.934   6.474   0.630  0.8729  0.5766  2.1108
 8615TIP3   OH250039   2.409   4.345   2.358 -0.2449  0.1010  0.0581
 8615TIP3    H150040   2.421   4.290   2.281 -2.5216  1.0602 -1.0836
 8615TIP3    H250041   2.424   4.434   2.326  0.0734  0.4216  1.0610
 8616TIP3   OH250042   2.040   0.080   1.011  0.2968 -0.1504  0.0996
 8616TIP3    H150043   1.988   0.055   0.935 -0.6260 -0.2436  0.7482
 8616TIP3    H250044   2.014   0.019   1.079  2.8745 -1.6479 -0.1365
 8617TIP3   OH250045   5.976   2.923   1.124  0.1103  0.0180  0.6600
 8617TIP3    H150046   5.959   2.967   1.041  1.1680 -1.7849 -0.5867
 8617TIP3    H250047   6.048   2.973   1.163  0.3334  0.2652 -0.0507
 8618TIP3   OH250048   2.717   1.964   2.588 -0.2753  0.3640  0.3122
 8618TIP3    H150049   2.721   2.059   2.583  0.2254  0.3879  1.0039
 8618TIP3    H250050   2.708   1.945   2.682 -1.1311 -0.2453  0.1209
 8619TIP3   OH250051   1.162   0.364   0.555  0.2282  0.3815  0.6039
 8619TIP3    H150052   1.175   0.370   0.460  0.7696  0.1913  0.6642
 8619TIP3    H250053   1.180   0.452   0.588  0.6336  0.3054  0.5954
 8620TIP3   OH250054   5.044   0.325   2.352  0.1226 -0.4739 -0.8534
 8620TIP3    H150055   4.961   0.372   2.357 -0.2888 -1.2821  0.5795
 8620TIP3    H250056   5.021   0.235   2.377  1.3903 -0.7449 -0.6280
 8621TIP3   OH250057   0.619   3.438   0.890  0.2514  0.6048 -0.2448
 8621TIP3    H150058   0.640   3.364   0.832  3.0970  1.9158 -1.0730
 8621TIP3    H250059   0.528   3.422   0.917  0.0964 -2.1165 -1.9506
 8622TIP3   OH250060   2.369   5.490   3.703 -0.0973 -0.6692 -0.5416
 8622TIP3    H150061   2.458   5.501   3.668  0.5103 -1.3615  0.7122
 8622TIP3    H250062   2.325   5.434   3.639  0.1392  0.2310 -1.5185
 8623TIP3   OH250063   5.658   0.914   2.476 -0.9170 -0.2464 -0.4790
 8623TIP3    H150064   5.564   0.907   2.493 -0.6848 -0.6969  0.7118
 8623TIP3    H250065   5.666   0.901   2.381 -2.1354  0.8368 -0.7619
 8624TIP3   OH250066   2.351   0.051   3.557 -0.2544 -0.6111 -0.5818
 8624TIP3    H150067   2.393   0.105   3.490 -1.1706  0.1588 -0.5515
 8624TIP3    H250068   2.271   0.018   3.515  0.7847 -2.8479 -0.9686
 8625TIP3   OH250069   0.296   2.303   1.372  0.4671 -0.0117  0.5455
 8625TIP3    H150070   0.263   2.391   1.390  0.6683  0.6089 -1.8367
 8625TIP3    H250071   0.371   2.317   1.315 -0.8016 -1.7692 -1.6964
 8626TIP3   OH250072   1.365   2.507   1.392 -0.0689  0.6932 -1.1764
 8626TIP3    H150073   1.271   2.523   1.380 -1.0940 -2.6398  1.0277
 8626TIP3    H250074   1.389   2.448   1.321 -0.3211 -0.4416 -0.3455
 8627TIP3   OH250075   6.366   6.283   0.837  0.5683  0.6333 -0.0175
 8627TIP3    H150076   6.328   6.355   0.787  1.9337  2.1811  1.0607
 8627TIP3    H250077   6.457   6.308   0.851  1.5774 -2.0812 -0.9508
 8628TIP3   OH250078   5.415   2.881   0.694  0.1142  0.0740 -0.1298
 8628TIP3    H150079   5.352   2.860   0.763 -0.0658  0.2469 -0.2409
 8628TIP3    H250080   5.473   2.946   0.735 -1.3648  1.9599 -0.8304
 8629TIP3   OH250081   5.564   5.691   1.442  0.3749  0.2984  0.0329
 8629TIP3    H150082   5.483   5.740   1.457 -0.9879 -1.3206 -1.5460
 8629TIP3    H250083   5.558   5.617   1.502  0.5422  0.0228 -0.2895
 8630TIP3   OH250084   4.537   3.022   1.036  0.2710 -0.0550  0.2872
 8630TIP3    H150085   4.589   3.082   1.089  1.1454 -1.9058  1.6269
 8630TIP3    H250086   4.471   2.988   1.096  0.0260 -0.7188 -0.3446
 8631TIP3   OH250087   6.564   5.192   2.338  0.0200 -0.3085  0.1109
 8631TIP3    H150088   6.634   5.153   2.391  0.9060  0.0094 -0.7961
 8631TIP3    H250089   6.511   5.118   2.310 -1.0639 -0.4107  2.2294
 8632TIP3   OH250090   1.835   5.250   1.419 -0.2281 -0.7556  0.1133
 8632TIP3    H150091   1.913   5.282   1.374 -1.0750  1.3030  0.0036
 8632TIP3    H250092   1.840   5.154   1.412  1.9787 -0.6490 -0.3533
 8633TIP3   OH250093   5.697   6.779   1.482 -0.6374  0.0845 -0.2555
 8633TIP3    H150094   5.623   6.811   1.431 -0.9052  2.0023  1.2165
 8633TIP3    H250095   5.664   6.773   1.571  0.7973  0.4187  0.3320
 8634TIP3   OH250096   7.193   5.231   2.454 -0.3068 -0.6435  0.4563
 8634TIP3    H150097   7.239   5.161   2.499 -1.7084 -1.8345  0.0987
 8634TIP3    H250098   7.149   5.188   2.381 -0.8838  0.6773 -0.0097
 8635TIP3   OH250099   2.981   3.437   3.481  0.4492 -0.4037  0.5006
 8635TIP3    H150100   3.064   3.411   3.522  0.2956 -1.8320 -0.0507
 8635TIP3    H250101   2.922   3.454   3.555  1.4837  1.6926  0.9367
 8636TIP3   OH250102   0.020   6.337   2.867  0.0713  0.8204 -0.5321
 8636TIP3    H150103   0.071   6.396   2.924  0.2069 -0.4504  0.7161
 8636TIP3    H250104  -0.070   6.347   2.898  0.2490 -0.4483  0.4828
 8637TIP3   OH250105   1.088   1.976   2.613  0.1525  0.1964 -0.3949
 8637TIP3    H150106   1.046   1.973   2.527  0.3421  2.2321 -0.6018
 8637TIP3    H250107   1.094   2.069   2.634  0.8127 -0.2248  1.4919
 8638TIP3   OH250108   6.990   6.928   1.525 -0.6389 -0.5615  0.3147
 8638TIP3    H150109   6.942   6.933   1.607  1.0076 -3.4307  1.6016
 8638TIP3    H250110   7.076   6.966   1.544 -0.8155  0.3455 -0.6181
 8639TIP3   OH250111   3.644   1.611   0.854 -0.0325 -0.2963 -0.2419
 8639TIP3    H150112   3.622   1.576   0.940 -1.3603 -0.4924 -0.6343
 8639TIP3    H250113   3.626   1.705   0.861 -4.1107 -0.8164 -1.3832
 8640TIP3   OH250114   2.667   3.338   3.039 -0.4223  0.5955 -0.3692
 8640TIP3    H150115   2.723   3.413   3.059 -0.0818  0.0984  0.6388
 8640TIP3    H250116   2.604   3.371   2.975  0.2064  1.5223 -0.5269
 8641TIP3   OH250117   3.651   0.600   0.767 -0.1210 -0.0400 -0.1922
 8641TIP3    H150118   3.693   0.525   0.726  0.5046  0.6135 -0.7726
 8641TIP3    H250119   3.610   0.564   0.846 -1.0454 -1.2488 -1.1762
 8642TIP3   OH250120   6.089   3.975   2.228  0.1597  0.1333  0.2077
 8642TIP3    H150121   6.179   4.001   2.206  0.2828 -0.4282  0.0376
 8642TIP3    H250122   6.095   3.945   2.318  0.1893 -0.1375  0.1146
 8643TIP3   OH250123   4.312   7.434   2.285  0.4060  0.2742 -0.8013
 8643TIP3    H150124   4.384   7.482   2.243 -0.7730  1.8971 -1.0705
 8643TIP3    H250125   4.237   7.447   2.226 -0.0904 -1.5476 -0.6341
 8644TIP3   OH250126   6.730   7.648   2.663 -0.0238 -0.2664 -0.5299
 8644TIP3    H150127   6.793   7.576   2.668  0.8282  0.5101  0.1639
 8644TIP3    H250128   6.651   7.613   2.703  0.5329 -0.6634  0.2440
 8645TIP3   OH250129   0.574   4.544   0.779  0.4079 -0.7127 -0.0139
 8645TIP3    H150130   0.572   4.549   0.875 -1.8471  1.1354 -0.0528
 8645TIP3    H250131   0.568   4.450   0.760  0.6830 -1.1035  1.6645
 8646TIP3   OH250132   5.769   1.174   2.929 -0.0022 -0.1951  0.0185
 8646TIP3    H150133   5.811   1.260   2.925  0.3484 -0.3962 -0.8265
 8646TIP3    H250134   5.721   1.167   2.847  0.8455 -1.2416 -0.4034
 8647TIP3   OH250135   2.780   5.549   1.713 -0.5832  0.7052 -0.8357
 8647TIP3    H150136   2.742   5.569   1.627 -0.1543 -1.3232 -1.5594
 8647TIP3    H250137   2.815   5.460   1.703  0.3037  0.7865  1.1745
 8648TIP3   OH250138   3.355   7.473   0.728 -0.1554  0.2614 -0.3071
 8648TIP3    H150139   3.331   7.457   0.637  1.3359  0.5034 -0.7746
 8648TIP3    H250140   3.278   7.447   0.778 -0.9660  0.0212 -1.6222
 8649TIP3   OH250141   1.852   6.141   3.254  0.2233  0.0608  0.3080
 8649TIP3    H150142   1.814   6.067   3.302  0.3022 -0.3715 -0.2827
 8649TIP3    H250143   1.939   6.151   3.292  0.8999 -1.3212 -0.8198
 8650TIP3   OH250144   7.605   5.831   0.988 -0.3098 -0.0233 -0.2339
 8650TIP3    H150145   7.655   5.911   0.972 -1.1147  0.4851 -0.2372
 8650TIP3    H250146   7.658   5.782   1.052  0.2504  0.4446 -0.3306
 8651TIP3   OH250147   5.493   1.011   1.996  0.4675 -0.1373  0.3281
 8651TIP3    H150148   5.499   1.096   1.951 -1.3535 -0.3610 -0.4212
 8651TIP3    H250149   5.563   0.959   1.958  1.0609  0.7449  0.1661
 8652TIP3   OH250150   4.415   0.669   1.243 -0.1892 -0.1163  0.3283
 8652TIP3    H150151   4.325   0.638   1.252 -0.9372  1.5560 -0.9096
 8652TIP3    H250152   4.441   0.642   1.155 -0.5293  1.8694 -0.4119
 8653TIP3   OH250153   1.320   3.844   1.635 -0.7744 -0.1205  0.0291
 8653TIP3    H150154   1.252   3.777   1.637 -1.8239  0.9428  1.6700
 8653TIP3    H250155   1.306   3.890   1.552 -1.3781 -0.5726 -0.1245
 8654TIP3   OH250156   2.382   5.971   2.055 -0.1793  0.3042  0.4477
 8654TIP3    H150157   2.473   5.993   2.034 -0.3398 -0.7459 -1.5886
 8654TIP3    H250158   2.387   5.883   2.092 -0.2786  0.7088  1.4557
 8655TIP3   OH250159   1.952   0.599   1.972 -0.0528 -0.4167 -0.0316
 8655TIP3    H150160   1.933   0.692   1.984  1.1445  0.0208 -1.3697
 8655TIP3    H250161   1.876   0.565   1.924 -0.1890  0.0140 -0.1253
 8656TIP3   OH250162   3.074   6.087   1.773 -0.1977  0.1536 -0.2063
 8656TIP3    H150163   3.078   6.106   1.679 -0.9036  3.0284  0.2684
 8656TIP3    H250164   3.165   6.078   1.799  0.1174  1.4676 -0.8011
 8657TIP3   OH250165   3.549   1.013   3.482  1.2806 -0.2547 -0.2554
 8657TIP3    H150166   3.633   1.011   3.527  1.3119  0.0547 -0.2979
 8657TIP3    H250167   3.538   1.104   3.455  0.8832 -0.2673 -0.1534
 8658TIP3   OH250168   0.455   1.775   2.160 -0.3633 -0.5017 -0.3516
 8658TIP3    H150169   0.487   1.749   2.246 -1.5321 -4.3498 -0.8676
 8658TIP3    H250170   0.377   1.827   2.178  1.5782  2.2237  0.8050
 8659TIP3   OH250171   3.529   3.620   1.326 -0.2755 -0.0832  0.6523
 8659TIP3    H150172   3.522   3.526   1.340 -2.1205 -0.1605 -0.4596
 8659TIP3    H250173   3.537   3.630   1.231  2.3302  0.8187  0.8799
 8660TIP3   OH250174   4.261   4.745   2.761  0.1201 -1.1812 -0.0147
 8660TIP3    H150175   4.288   4.734   2.853  1.0377 -1.5836 -0.3170
 8660TIP3    H250176   4.307   4.675   2.714 -2.4821 -2.7266 -0.4210
 8661TIP3   OH250177   5.902   3.550   2.391  0.1224 -0.4121  0.0500
 8661TIP3    H150178   5.982   3.590   2.426  0.3830 -1.0922  0.2294
 8661TIP3    H250179   5.833   3.581   2.449  0.0278  1.3140 -0.9161
 8662TIP3   OH250180   5.510   3.853   0.879  0.0102  0.1692 -0.3907
 8662TIP3    H150181   5.578   3.917   0.899 -0.0489  0.4921 -1.1886
 8662TIP3    H250182   5.433   3.884   0.927  0.6439 -0.6941  1.2526
 8663TIP3   OH250183   4.170   4.754   0.774  0.0382  0.2606  0.0655
 8663TIP3    H150184   4.193   4.668   0.808 -0.0932 -0.3250 -1.2620
 8663TIP3    H250185   4.138   4.803   0.850 -0.3241 -1.0084  0.7504
 8664TIP3   OH250186   6.310   4.214   2.389  0.8117 -0.3201 -0.1485
 8664TIP3    H150187   6.249   4.159   2.438  0.8753 -1.2541 -1.0728
 8664TIP3    H250188   6.324   4.167   2.307 -0.4517  1.9004 -1.7362
 8665TIP3   OH250189   4.760   2.986   1.468  0.2072  0.4969 -0.1426
 8665TIP3    H150190   4.843   2.946   1.444 -0.3650 -0.4006 -0.6704
 8665TIP3    H250191   4.782   3.046   1.539  0.9110 -1.6393  1.5177
 8666TIP3   OH250192   7.554   7.051   1.560  0.3048 -0.0228  0.0223
 8666TIP3    H150193   7.607   7.065   1.639 -1.0912 -0.8071  1.1341
 8666TIP3    H250194   7.557   6.957   1.545 -0.9444 -0.1033  0.2298
 8667TIP3   OH250195   0.910   6.383   1.706 -0.2319  0.1908  0.3369
 8667TIP3    H150196   0.825   6.374   1.665 -1.0314 -1.6397  2.2268
 8667TIP3    H250197   0.969   6.406   1.634 -2.1548  0.8747 -1.1222
 8668TIP3   OH250198   7.196   3.797   1.022  0.6916  0.0460 -0.4491
 8668TIP3    H150199   7.254   3.725   1.046 -0.4670 -1.0169 -0.7309
 8668TIP3    H250200   7.144   3.763   0.950  0.0488  1.1443 -0.5265
 8669TIP3   OH250201   6.667   4.964   1.211  0.2838 -0.2803 -0.0344
 8669TIP3    H150202   6.631   5.015   1.139 -2.1376  1.8210  2.4637
 8669TIP3    H250203   6.736   5.019   1.247 -0.8490  0.3011  1.3149
 8670TIP3   OH250204   1.218   2.330   2.515 -0.4090  0.7204  0.2472
 8670TIP3    H150205   1.145   2.378   2.475  1.3108  1.7888 -1.8285
 8670TIP3    H250206   1.251   2.388   2.584 -0.1210  1.2786 -0.3482
 8671TIP3   OH250207   0.471   3.940   0.857  0.0733 -0.2396 -0.2458
 8671TIP3    H150208   0.467   3.959   0.763 -2.0549  0.1489 -0.1409
 8671TIP3    H250209   0.527   3.863   0.864 -0.1756 -0.6045 -1.8954
 8672TIP3   OH250210   0.186   2.843   0.658 -0.0218  0.4361 -0.8196
 8672TIP3    H150211   0.280   2.858   0.645  0.3759  0.1612  1.4006
 8672TIP3    H250212   0.167   2.764   0.607  1.2313 -0.2291 -0.2972
 8673TIP3   OH250213   3.246   5.640   2.065  0.8076  0.1720 -0.3976
 8673TIP3    H150214   3.228   5.713   2.006  0.7436  1.4621  1.1420
 8673TIP3    H250215   3.194   5.658   2.143 -0.1031 -2.1526 -0.3900
 8674TIP3   OH250216   1.323   0.067   3.431 -0.4664  0.0349  0.2228
 8674TIP3    H150217   1.358  -0.019   3.409 -0.4963  0.3397 -1.1081
 8674TIP3    H250218   1.380   0.129   3.385 -1.2096  0.6543  0.1108
 8675TIP3   OH250219   1.950   7.146   2.771  0.6269  0.0620 -0.1605
 8675TIP3    H150220   1.988   7.166   2.685  2.5992  0.9910  0.8620
 8675TIP3    H250221   1.884   7.214   2.784 -0.9141 -1.0665 -1.5996
 8676TIP3   OH250222   6.103   1.575   0.553 -0.2126  0.0866 -0.2107
 8676TIP3    H150223   6.166   1.503   0.545  1.0282  0.8134  2.1340
 8676TIP3    H250224   6.101   1.595   0.646 -2.0500  1.7875 -0.5508
 8677TIP3   OH250225   3.956   5.736   2.926  1.2547 -0.0078  0.0414
 8677TIP3    H150226   3.878   5.777   2.965  0.2340 -1.0424 -0.8373
 8677TIP3    H250227   3.950   5.644   2.952  2.2542 -0.0878  0.0283
 8678TIP3   OH250228   0.029   0.792   1.804 -0.8775  1.0545  0.0479
 8678TIP3    H150229   0.087   0.835   1.868  0.4143  1.6648 -1.4600
 8678TIP3    H250230   0.048   0.699   1.813 -1.6099  1.0169  1.3790
 8679TIP3   OH250231   1.709   1.029   3.586  0.1615 -0.3666 -0.2881
 8679TIP3    H150232   1.788   1.009   3.637 -0.7975 -1.6099  0.7813
 8679TIP3    H250233   1.734   1.105   3.533  1.6959  0.0282  0.8953
 8680TIP3   OH250234   3.983   6.669   2.383  0.3325  0.2548  0.0602
 8680TIP3    H150235   3.971   6.577   2.405  0.5334  0.3990  0.7939
 8680TIP3    H250236   3.947   6.717   2.458 -2.1723  0.8504 -1.3982
 8681TIP3   OH250237   5.234   5.210   1.387  0.0888  0.8626  0.3214
 8681TIP3    H150238   5.258   5.302   1.376 -0.7794  0.8338 -2.8249
 8681TIP3    H250239   5.149   5.203   1.343 -0.8036 -1.0984  2.1962
 8682TIP3   OH250240   7.059   3.310   1.365  0.2958  0.3170  0.2284
 8682TIP3    H150241   7.014   3.324   1.448 -0.6482  0.8479 -0.3620
 8682TIP3    H250242   7.122   3.381   1.360  0.5774  0.1009  0.6340
 8683TIP3   OH250243   4.065   5.921   0.361  0.0037  0.0229 -0.1578
 8683TIP3    H150244   4.083   5.866   0.284  2.1665 -0.0788  0.3540
 8683TIP3    H250245   3.974   5.948   0.350 -0.3624 -1.6127 -1.7187
 8684TIP3   OH250246   7.007   6.170   2.113 -0.1111 -0.4461 -0.0272
 8684TIP3    H150247   6.933   6.114   2.137 -2.6308  2.3597 -0.5722
 8684TIP3    H250248   7.026   6.220   2.193  0.7881 -0.7019 -0.0771
 8685TIP3   OH250249   5.329   5.257   2.359 -0.1287  0.0896 -0.6037
 8685TIP3    H150250   5.264   5.216   2.415 -1.0451 -0.3437 -1.9307
 8685TIP3    H250251   5.403   5.197   2.360 -1.6876 -2.0701 -3.0163
 8686TIP3   OH250252   2.079   6.480   2.823  0.3769 -0.3650  0.6816
 8686TIP3    H150253   1.992   6.459   2.791  0.2725 -0.4101  0.9917
 8686TIP3    H250254   2.133   6.406   2.794  0.8727  0.8562 -1.7424
 8687TIP3   OH250255   3.792   7.503   0.678  0.4753 -0.1684  0.3938
 8687TIP3    H150256   3.706   7.542   0.697 -0.1835 -1.7911  1.0077
 8687TIP3    H250257   3.771   7.416   0.644  1.8817 -0.2511 -0.3417
 8688TIP3   OH250258   5.161   5.568   2.782  0.3594  0.1277  0.4547
 8688TIP3    H150259   5.220   5.508   2.829 -1.0339 -0.2428  1.7984
 8688TIP3    H250260   5.187   5.559   2.690 -0.4554 -3.4133  0.4000
 8689TIP3   OH250261   5.064   5.215   0.761  0.5996 -0.4434 -0.0450
 8689TIP3    H150262   5.016   5.285   0.717  3.5647  1.6809 -0.1575
 8689TIP3    H250263   5.018   5.135   0.735 -3.4022  1.3791  0.6792
 8690TIP3   OH250264   7.421   2.670   3.413 -0.6958  0.6617  0.4770
 8690TIP3    H150265   7.339   2.628   3.438 -0.8547  0.6307 -0.0880
 8690TIP3    H250266   7.430   2.743   3.473 -1.8118  1.4694 -0.3078
 8691TIP3   OH250267   2.146   0.370   1.164  0.1605 -0.0219 -0.4069
 8691TIP3    H150268   2.182   0.287   1.194 -1.9714 -1.1588 -0.8281
 8691TIP3    H250269   2.191   0.388   1.082  1.4135 -0.1726  0.2309
 8692TIP3   OH250270   0.362   3.265   0.998  0.2914  0.4675  0.3022
 8692TIP3    H150271   0.387   3.249   1.089  0.8442  1.0177  0.2557
 8692TIP3    H250272   0.368   3.179   0.956 -1.7104 -0.1382  1.1674
 8693TIP3   OH250273   0.352   4.631   1.831 -0.3348  0.1755 -0.0387
 8693TIP3    H150274   0.375   4.661   1.743 -0.6390 -2.1665 -0.9818
 8693TIP3    H250275   0.419   4.567   1.853 -0.9525 -0.1548  0.9413
 8694TIP3   OH250276   6.245   1.578   2.088  0.2238 -0.2586 -0.2239
 8694TIP3    H150277   6.304   1.503   2.086  0.6241  0.0269  0.4447
 8694TIP3    H250278   6.261   1.623   2.005  1.9458  0.5453  0.4735
 8695TIP3   OH250279   1.462   5.027   3.263 -0.3644  0.2643  0.8663
 8695TIP3    H150280   1.542   5.007   3.215 -1.1925 -0.7608 -0.1470
 8695TIP3    H250281   1.393   4.981   3.215 -1.5531  1.0456  1.7650
 8696TIP3   OH250282   2.427   1.601   1.558  0.0631 -0.4016  0.0925
 8696TIP3    H150283   2.469   1.562   1.634 -1.4970  0.1340  1.2866
 8696TIP3    H250284   2.369   1.668   1.594 -1.0306 -0.3988 -1.5290
 8697TIP3   OH250285   3.660   7.524   3.244 -0.4838 -0.1752 -0.0579
 8697TIP3    H150286   3.723   7.453   3.232  0.1419  0.7168 -3.1196
 8697TIP3    H250287   3.703   7.600   3.204 -2.5214  1.0488 -0.0335
 8698TIP3   OH250288   2.385   4.162   2.856  0.1520 -0.1333 -0.6179
 8698TIP3    H150289   2.385   4.227   2.785  0.0476  1.0514  0.4180
 8698TIP3    H250290   2.472   4.122   2.851  1.3416  2.1203  0.4468
 8699TIP3   OH250291   4.999   4.217   0.580 -0.4492 -0.4669  0.1268
 8699TIP3    H150292   4.949   4.297   0.563 -1.9754 -1.3431  0.2879
 8699TIP3    H250293   5.079   4.247   0.623 -0.6301  1.0312 -0.5274
 8700TIP3   OH250294   1.309   4.231   2.812  0.5029 -0.5922  0.0745
 8700TIP3    H150295   1.361   4.174   2.868 -2.1438 -1.3561  1.9771
 8700TIP3    H250296   1.343   4.319   2.829  1.7616 -1.1456  0.5179
 8701TIP3   OH250297   3.544   2.524   2.917 -0.1879  0.0393  0.0264
 8701TIP3    H150298   3.526   2.590   2.985 -1.1078 -0.3607  0.1856
 8701TIP3    H250299   3.639   2.519   2.914 -0.1213 -0.3085  1.6646
 8702TIP3   OH250300   4.956   3.469   0.621  0.7437  0.0976  0.4786
 8702TIP3    H150301   4.916   3.512   0.545  0.2404 -0.1209  0.6170
 8702TIP3    H250302   5.041   3.512   0.631 -0.6382  2.7146  2.0059
 8703TIP3   OH250303   6.035   7.004   1.205 -0.4559  0.2954 -0.1749
 8703TIP3    H150304   6.007   6.986   1.295 -0.9966 -0.7586 -0.5486
 8703TIP3    H250305   6.101   7.073   1.215  0.3907 -0.6578  1.1369
 8704TIP3   OH250306   5.545   5.759   1.795 -0.3260  0.3232 -0.1294
 8704TIP3    H150307   5.457   5.796   1.801  0.3546  1.8644  1.4178
 8704TIP3    H250308   5.601   5.834   1.774  0.7399 -0.4035  0.0535
 8705TIP3   OH250309   2.748   2.131   1.770  0.4997  0.3421 -0.1794
 8705TIP3    H150310   2.831   2.099   1.735  0.7996  1.2530 -0.3355
 8705TIP3    H250311   2.774   2.184   1.846 -0.1319 -1.6750  1.5433
 8706TIP3   OH250312   0.345   4.229   2.837  0.0917 -0.3715  0.3458
 8706TIP3    H150313   0.259   4.192   2.856  0.9522 -2.5758  0.2140
 8706TIP3    H250314   0.376   4.263   2.922  0.0219 -1.6216  0.8855
 8707TIP3   OH250315   5.359   3.503   1.668  0.0145  0.0543  0.3915
 8707TIP3    H150316   5.357   3.587   1.622 -0.7548 -0.8465 -1.3305
 8707TIP3    H250317   5.297   3.448   1.620 -0.1605 -1.2449  2.0131
 8708TIP3   OH250318   1.227   4.088   2.411  0.6868  0.7866  0.0377
 8708TIP3    H150319   1.259   4.011   2.458  0.5077  0.8274  0.2306
 8708TIP3    H250320   1.282   4.094   2.333  1.2300  0.9192  0.4185
 8709TIP3   OH250321   3.271   4.161   2.757 -0.1188  0.3760 -0.4106
 8709TIP3    H150322   3.306   4.207   2.833  0.3316  0.5532 -0.7144
 8709TIP3    H250323   3.198   4.109   2.791  1.0360 -0.7611  0.4432
 8710TIP3   OH250324   6.417   5.333   2.053  0.2194  0.0296  0.0460
 8710TIP3    H150325   6.458   5.407   2.008  1.6339 -1.1035 -0.6179
 8710TIP3    H250326   6.478   5.311   2.123  0.7802 -1.6644 -0.9272
 8711TIP3   OH250327   6.816   7.035   2.970  0.1952 -0.3934  0.0065
 8711TIP3    H150328   6.901   7.078   2.964  1.4327 -2.4702  1.2054
 8711TIP3    H250329   6.752   7.106   2.962  2.0473  1.3770  0.0952
 8712TIP3   OH250330   1.659   7.526   2.999  0.0544  0.1376 -0.3097
 8712TIP3    H150331   1.706   7.452   3.038 -1.3002 -0.6559 -0.0960
 8712TIP3    H250332   1.620   7.490   2.919 -1.5676  0.2646  0.3810
 8713TIP3   OH250333   4.806   0.785   0.378 -0.2193 -0.3137  0.7905
 8713TIP3    H150334   4.757   0.810   0.456  1.1103 -0.4955  1.7298
 8713TIP3    H250335   4.749   0.723   0.333 -0.3805 -1.4537  2.4746
 8714TIP3   OH250336   4.715   1.694   0.661 -0.3350 -0.0901  0.2298
 8714TIP3    H150337   4.773   1.763   0.630  0.7209 -0.8458  0.4539
 8714TIP3    H250338   4.627   1.726   0.642  0.1735  0.7292 -0.8715
 8715TIP3   OH250339   7.324   6.986   2.363 -0.2691 -0.2080 -0.3316
 8715TIP3    H150340   7.348   7.053   2.298 -1.4049 -0.9974 -1.6147
 8715TIP3    H250341   7.257   7.028   2.416  1.6197  0.9375  1.3310
 8716TIP3   OH250342   5.657   3.982   2.087 -0.3737  0.0796  0.1702
 8716TIP3    H150343   5.726   4.048   2.091 -1.3781  1.2465 -0.8561
 8716TIP3    H250344   5.692   3.914   2.029  0.9476 -0.6754  1.7838
 8717TIP3   OH250345   0.341   7.158   3.397 -0.0888  0.0015  0.3470
 8717TIP3    H150346   0.430   7.122   3.400 -0.2505 -0.4079  0.2878
 8717TIP3    H250347   0.354   7.251   3.377  0.4751  0.6312  3.2537
 8718TIP3   OH250348   3.024   1.956   3.155 -0.2878  0.8340  0.0748
 8718TIP3    H150349   3.051   1.970   3.246  0.4520  0.7855 -0.1324
 8718TIP3    H250350   3.097   1.910   3.115 -0.4755  1.1291 -0.6274
 8719TIP3   OH250351   3.591   2.132   2.305  0.0958  0.4091  0.1281
 8719TIP3    H150352   3.634   2.087   2.233 -0.5395 -2.8702  1.6182
 8719TIP3    H250353   3.498   2.130   2.282 -0.0020  0.3504  0.5184
 8720TIP3   OH250354   7.400   1.511   2.237 -1.0656  0.4983 -0.7971
 8720TIP3    H150355   7.425   1.602   2.255 -0.6177  0.1017  0.7573
 8720TIP3    H250356   7.439   1.492   2.151  0.3071  1.2478 -0.3725
 8721TIP3   OH250357   3.493   3.804   2.820 -0.2086  0.5159  0.0270
 8721TIP3    H150358   3.420   3.843   2.868 -1.3095 -0.4038 -0.8230
 8721TIP3    H250359   3.571   3.825   2.871 -1.2201  0.4438  1.6457
 8722TIP3   OH250360   1.587   0.698   1.104  0.0862  0.0932  0.5527
 8722TIP3    H150361   1.549   0.786   1.109 -1.2273 -0.5201  1.8027
 8722TIP3    H250362   1.557   0.654   1.183 -0.3420 -1.9115 -0.6656
 8723TIP3   OH250363   1.678   4.455   1.560  0.0200 -0.6621 -0.5276
 8723TIP3    H150364   1.600   4.506   1.539 -0.2062 -1.1111 -0.7846
 8723TIP3    H250365   1.648   4.365   1.565  0.2831 -0.7163  0.5782
 8724TIP3   OH250366   4.101   2.462   1.162 -0.0534 -0.0902 -0.0911
 8724TIP3    H150367   4.066   2.499   1.081  0.8222 -1.6425 -1.2440
 8724TIP3    H250368   4.115   2.370   1.141  0.5326 -0.4400  1.7284
 8725TIP3   OH250369   4.460   5.755   1.604  0.5335  0.0567  0.1982
 8725TIP3    H150370   4.417   5.809   1.671 -1.2781 -1.0857  0.0218
 8725TIP3    H250371   4.516   5.695   1.653  1.0789  0.7969  0.5066
 8726TIP3   OH250372   2.691   0.494   1.712 -0.2358  0.1076 -0.7925
 8726TIP3    H150373   2.755   0.518   1.645 -0.6174 -0.3495 -1.3357
 8726TIP3    H250374   2.630   0.434   1.667 -1.8415  1.5682 -0.6714
 8727TIP3   OH250375   1.638   3.015   2.544  0.0672  0.2150 -0.7425
 8727TIP3    H150376   1.614   2.941   2.488  1.9466 -1.6754  0.7596
 8727TIP3    H250377   1.582   3.005   2.621  1.1999 -0.4633  0.0214
 8728TIP3   OH250378   7.041   3.086   0.826  0.6125  0.1863  0.0227
 8728TIP3    H150379   7.046   3.133   0.909  0.3932 -0.2636  0.2930
 8728TIP3    H250380   6.974   3.133   0.776  2.3066  1.8450 -0.8078
 8729TIP3   OH250381   5.091   7.280   1.930  0.2918  0.0870 -0.3073
 8729TIP3    H150382   5.013   7.233   1.902  0.9299 -1.7626  0.8121
 8729TIP3    H250383   5.078   7.295   2.023  1.1054  0.0926 -0.1897
 8730TIP3   OH250384   2.754   1.148   3.144  0.0949  0.3449  0.2900
 8730TIP3    H150385   2.684   1.135   3.209 -0.6874 -0.4505 -0.6843
 8730TIP3    H250386   2.834   1.146   3.195 -0.5103 -0.1772  1.2502
 8731TIP3   OH250387   6.384   3.322   2.027 -0.1315  0.6397 -0.8413
 8731TIP3    H150388   6.328   3.393   2.057  1.4255  1.5684  0.0445
 8731TIP3    H250389   6.387   3.261   2.102  0.8503  1.1388 -0.4461
 8732TIP3   OH250390   0.454   3.851   1.260  0.3358  0.3055 -0.1026
 8732TIP3    H150391   0.452   3.785   1.330 -0.1286  1.2064  0.7697
 8732TIP3    H250392   0.362   3.876   1.249  0.4250  0.2717 -0.9496
 8733TIP3   OH250393   2.946   6.983   0.955 -0.5055  0.6656 -0.5868
 8733TIP3    H150394   2.932   6.966   0.861 -0.4227  0.2447 -0.5286
 8733TIP3    H250395   2.967   6.897   0.991  0.1759  0.9416 -0.3061
 8734TIP3   OH250396   7.299   1.127   2.763 -0.4033  0.2490 -0.1743
 8734TIP3    H150397   7.350   1.195   2.808 -0.2308 -0.4308  0.6709
 8734TIP3    H250398   7.212   1.166   2.752 -0.5642  0.2888  1.1052
 8735TIP3   OH250399   1.613   2.581   1.386 -0.2023 -0.3136  0.1907
 8735TIP3    H150400   1.520   2.558   1.378  0.0158 -0.8878 -0.7702
 8735TIP3    H250401   1.655   2.503   1.421  0.0021 -0.2345  0.1253
 8736TIP3   OH250402   4.795   3.140   2.297  0.8637  0.1746 -0.4368
 8736TIP3    H150403   4.880   3.152   2.339  1.7187 -0.1708 -2.0050
 8736TIP3    H250404   4.772   3.226   2.264  0.5759  0.2688 -0.0111
 8737TIP3   OH250405   6.406   2.768   1.288 -0.2483 -0.2627 -1.5248
 8737TIP3    H150406   6.477   2.762   1.351 -0.4652 -0.7300 -1.3192
 8737TIP3    H250407   6.430   2.707   1.218 -1.0473 -1.4184 -0.8404
 8738TIP3   OH250408   0.096   6.391   2.618  0.0481 -0.0363  0.6682
 8738TIP3    H150409   0.188   6.382   2.595  0.0945 -0.4019  0.9860
 8738TIP3    H250410   0.088   6.346   2.702 -1.3678 -4.2637 -1.4348
 8739TIP3   OH250411   7.297   1.186   1.540 -0.2594 -0.0632 -0.2818
 8739TIP3    H150412   7.266   1.194   1.450  0.7617 -0.2607 -0.6715
 8739TIP3    H250413   7.377   1.134   1.533  1.2811  2.0460  0.3895
 8740TIP3   OH250414   6.440   0.148   2.993 -0.2324 -0.5003  0.2363
 8740TIP3    H150415   6.441   0.083   2.924 -0.3948 -0.7851  0.4984
 8740TIP3    H250416   6.349   0.152   3.022 -0.3680  0.3788 -0.2757
 8741TIP3   OH250417   2.528   0.622   2.066 -0.6929 -0.2018 -0.3796
 8741TIP3    H150418   2.453   0.681   2.073 -1.0874 -0.8430  1.5193
 8741TIP3    H250419   2.492   0.536   2.087  0.3901 -0.6610 -0.3463
 8742TIP3   OH250420   7.063   3.587   1.313 -0.2178 -0.2167 -0.1630
 8742TIP3    H150421   7.088   3.624   1.228 -0.4352 -0.0687 -0.1606
 8742TIP3    H250422   7.071   3.659   1.375  0.6736 -0.5053  0.0789
 8743TIP3   OH250423   2.284   5.319   1.861  0.0889  0.3009  0.3493
 8743TIP3    H150424   2.251   5.229   1.861 -0.5835  0.5276 -0.7969
 8743TIP3    H250425   2.349   5.321   1.791 -1.2328  1.1350 -0.9209
 8744TIP3   OH250426   3.548   6.113   0.374 -0.1125 -0.0832  0.3231
 8744TIP3    H150427   3.475   6.052   0.392  1.2375 -1.5121  1.2147
 8744TIP3    H250428   3.532   6.187   0.432  0.2625 -1.3716  2.1651
 8745TIP3   OH250429   6.356   0.558   1.893  0.1199  0.0532  0.1054
 8745TIP3    H150430   6.434   0.511   1.865  0.4405  0.4732  0.2700
 8745TIP3    H250431   6.358   0.551   1.989 -0.0894 -0.0029  0.1061
 8746TIP3   OH250432   5.496   4.680   1.101  0.0321 -0.3883  0.2352
 8746TIP3    H150433   5.481   4.681   1.006  1.4540  2.5499 -0.0557
 8746TIP3    H250434   5.447   4.755   1.134  3.9857  2.2629  0.8555
 8747TIP3   OH250435   5.868   1.905   1.492 -0.2011 -0.2908  0.1159
 8747TIP3    H150436   5.851   1.962   1.567 -0.2841  0.6407 -0.5939
 8747TIP3    H250437   5.872   1.964   1.418  0.1350 -1.1773 -0.5862
 8748TIP3   OH250438   4.761   6.150   1.132  0.1845 -0.0862 -0.1116
 8748TIP3    H150439   4.809   6.170   1.213 -1.9912  0.0960  1.1950
 8748TIP3    H250440   4.690   6.093   1.160 -0.5896 -0.0624 -1.9325
 8749TIP3   OH250441   6.481   2.530   0.674 -0.0653 -0.6093 -0.1633
 8749TIP3    H150442   6.498   2.579   0.754  0.5890 -2.0457  0.6310
 8749TIP3    H250443   6.426   2.587   0.621 -0.6310  0.3325  1.3730
 8750TIP3   OH250444   6.082   0.807   3.177 -0.4545 -0.6768  0.0046
 8750TIP3    H150445   6.151   0.850   3.126  0.0391 -0.7666  0.5847
 8750TIP3    H250446   6.001   0.832   3.132 -0.0143 -1.0699 -1.0461
 8751TIP3   OH250447   2.730   2.533   1.196 -0.3641  0.5643  0.0506
 8751TIP3    H150448   2.745   2.439   1.211  0.1783  0.9090  1.9368
 8751TIP3    H250449   2.724   2.570   1.284 -4.5902  1.7396 -0.5090
 8752TIP3   OH250450   4.201   3.522   1.352  0.3421  0.1400  0.4260
 8752TIP3    H150451   4.271   3.531   1.416  1.2807 -0.6734 -0.4367
 8752TIP3    H250452   4.236   3.562   1.272 -1.1363  1.9317  0.6138
 8753TIP3   OH250453   1.606   6.943   2.466 -0.8350 -0.0250  0.1809
 8753TIP3    H150454   1.593   7.032   2.434 -0.0988 -0.5160 -1.6289
 8753TIP3    H250455   1.678   6.950   2.529  2.6360  0.1481 -3.3599
 8754TIP3   OH250456   2.171   2.951   0.763 -0.1946 -0.0586  0.0056
 8754TIP3    H150457   2.157   2.878   0.703 -0.3022 -0.0488  0.0183
 8754TIP3    H250458   2.259   2.937   0.798  0.2499  0.4489 -0.8744
 8755TIP3   OH250459   4.014   1.036   3.120  0.3009 -0.7857  0.4588
 8755TIP3    H150460   3.978   1.001   3.038  1.4700 -0.9331 -0.0190
 8755TIP3    H250461   4.089   0.980   3.139 -0.2757 -1.1036  1.9536
 8756TIP3   OH250462   4.312   6.252   1.787 -0.6433  0.5957  0.2139
 8756TIP3    H150463   4.326   6.283   1.876  0.0552 -2.4838  1.2969
 8756TIP3    H250464   4.244   6.309   1.752  0.0789  2.8255  2.1611
 8757TIP3   OH250465   7.449   2.551   2.551 -0.0376 -0.3457 -0.0320
 8757TIP3    H150466   7.440   2.470   2.501 -0.1739  0.1249 -0.7761
 8757TIP3    H250467   7.538   2.548   2.585  0.1327 -0.5700 -0.4896
 8758TIP3   OH250468   2.911   3.369   1.240 -0.6282  0.6483 -0.9387
 8758TIP3    H150469   2.956   3.302   1.292 -0.9716 -0.5070 -2.0799
 8758TIP3    H250470   2.823   3.334   1.226 -0.5154  0.8512 -2.3788
 8759TIP3   OH250471   5.091   6.940   2.444 -0.7611  0.3185 -0.4429
 8759TIP3    H150472   5.171   6.937   2.392  0.0103  0.8534  0.6759
 8759TIP3    H250473   5.117   6.907   2.530 -2.3707 -2.0860 -0.7904
 8760TIP3   OH250474   1.901   5.720   1.589 -0.4575 -0.6159  0.6534
 8760TIP3    H150475   1.825   5.767   1.553 -0.0534  1.0622  1.8832
 8760TIP3    H250476   1.900   5.742   1.682  2.1278  0.2905  0.5218
 8761TIP3   OH250477   3.631   1.069   1.130 -0.0279  0.1357 -0.0690
 8761TIP3    H150478   3.669   1.064   1.042  1.4005  0.3766  0.5048
 8761TIP3    H250479   3.691   1.125   1.179  0.0559 -1.2064  1.4658
 8762TIP3   OH250480   2.365   5.741   1.564  0.2344  0.0675 -0.0969
 8762TIP3    H150481   2.426   5.684   1.611  0.3746 -1.0975 -1.6034
 8762TIP3    H250482   2.331   5.800   1.630  0.5559 -1.3801  1.4318
 8763TIP3   OH250483   4.398   7.284   2.928 -0.0676  0.0291 -0.3515
 8763TIP3    H150484   4.478   7.328   2.958 -0.3799 -0.1026  0.7090
 8763TIP3    H250485   4.327   7.336   2.964 -0.4604 -1.9459  1.9743
 8764TIP3   OH250486   2.866   2.595   9.109  0.2981 -0.5404 -0.2666
 8764TIP3    H150487   2.781   2.624   9.142  0.3312 -1.2148  0.4523
 8764TIP3    H250488   2.845   2.520   9.053  0.2692  0.4269 -1.6010
 8765TIP3   OH250489   5.401   0.823   0.606  1.0272  0.4613 -0.3476
 8765TIP3    H150490   5.486   0.864   0.595  0.8868  0.7327 -0.4466
 8765TIP3    H250491   5.338   0.896   0.598  0.7150  0.0734 -1.6034
 8766TIP3   OH250492   7.324   5.752   2.952 -0.0571  0.5939  0.2160
 8766TIP3    H150493   7.293   5.680   2.898  0.3543 -0.8114  1.7797
 8766TIP3    H250494   7.292   5.831   2.907 -2.1558 -0.5975 -0.5335
 8767TIP3   OH250495   1.088   0.176   1.623  0.2552 -0.6242  0.1506
 8767TIP3    H150496   1.105   0.097   1.674 -0.2722 -0.6749  0.2554
 8767TIP3    H250497   1.060   0.240   1.688 -0.2755 -0.6454 -0.0550
 8768TIP3   OH250498   2.348   6.197   3.255 -0.2457  0.2547 -0.2775
 8768TIP3    H150499   2.352   6.102   3.244 -1.1604  0.1383  0.2850
 8768TIP3    H250500   2.436   6.222   3.281  0.6563 -0.1140 -2.7410
 8769TIP3   OH250501   4.010   4.062   2.222 -0.1088  0.1869 -0.4197
 8769TIP3    H150502   3.936   4.002   2.215  0.3276 -0.5419  0.8806
 8769TIP3    H250503   3.990   4.116   2.299  0.5988  0.1244 -0.1856
 8770TIP3   OH250504   4.767   0.058   1.530 -0.5393 -0.3824 -0.1924
 8770TIP3    H150505   4.680   0.060   1.570 -0.6675  1.3373 -0.4746
 8770TIP3    H250506   4.750   0.070   1.436  0.0219  0.4215 -0.1934
 8771TIP3   OH250507   6.171   7.265   2.763  0.3382 -0.2381 -0.2650
 8771TIP3    H150508   6.165   7.209   2.841  0.9273 -2.4688 -1.7093
 8771TIP3    H250509   6.100   7.328   2.774 -0.6814 -1.5473  1.2807
 8772TIP3   OH250510   4.537   5.931   1.968 -0.7501  0.1354 -0.5991
 8772TIP3    H150511   4.615   5.946   1.915 -0.1938  0.6490  0.3448
 8772TIP3    H250512   4.539   5.838   1.988  0.3712  0.3864  0.5467
 8773TIP3   OH250513   6.589   2.950   2.595 -0.0114  0.4307  0.6168
 8773TIP3    H150514   6.583   3.013   2.667  1.0362 -1.3211  2.3340
 8773TIP3    H250515   6.565   2.866   2.635  1.4563 -0.7486 -0.8321
 8774TIP3   OH250516   4.980   5.494   0.892  0.0747  0.0210  0.1863
 8774TIP3    H150517   4.917   5.541   0.838  0.9360  0.4150 -0.5113
 8774TIP3    H250518   5.046   5.463   0.830  0.0458 -1.2505  0.7715
 8775TIP3   OH250519   6.550   5.718   0.813 -0.0895 -0.2202 -0.0332
 8775TIP3    H150520   6.539   5.802   0.768 -0.9894 -0.3605 -0.0972
 8775TIP3    H250521   6.641   5.694   0.797 -0.3872 -0.2889 -1.8365
 8776TIP3   OH250522   6.261   4.781   7.517 -0.2530  0.2030  0.0792
 8776TIP3    H150523   6.224   4.773   7.429 -0.0546  0.3560 -0.0175
 8776TIP3    H250524   6.339   4.835   7.505 -0.7339  1.0020  0.4905
 8777TIP3   OH250525   5.673   2.302   0.880 -0.1501 -0.0304 -0.1125
 8777TIP3    H150526   5.753   2.262   0.913  0.9060  1.2658 -1.0039
 8777TIP3    H250527   5.603   2.266   0.936  1.1969 -0.1358  1.5788
 8778TIP3   OH250528   4.108   6.155   3.356 -0.1853  0.2354  0.1283
 8778TIP3    H150529   4.015   6.139   3.342  0.4802 -2.5619 -2.2029
 8778TIP3    H250530   4.129   6.107   3.436 -0.3544 -1.3083 -0.7077
 8779TIP3   OH250531   7.461   4.452   2.278  0.2910 -0.3683 -0.1095
 8779TIP3    H150532   7.366   4.441   2.265  0.7623 -3.3823 -2.1656
 8779TIP3    H250533   7.474   4.439   2.371 -1.2458 -0.7013  0.0940
 8780TIP3   OH250534   0.717   3.074   0.894  0.4412  0.2027 -0.1540
 8780TIP3    H150535   0.664   3.111   0.965 -0.2618 -0.2532 -0.4358
 8780TIP3    H250536   0.699   3.130   0.819 -0.8178 -0.8212 -0.6487
 8781TIP3   OH250537   4.703   3.314   0.961 -0.3795 -0.2771 -0.4948
 8781TIP3    H150538   4.795   3.319   0.988 -0.4227  0.9314 -0.5539
 8781TIP3    H250539   4.704   3.341   0.869 -0.9580  0.9618 -0.1473
 8782TIP3   OH250540   4.878   0.352   3.246  0.3124  0.2888 -0.1334
 8782TIP3    H150541   4.824   0.285   3.288  1.8675 -1.4022 -0.6448
 8782TIP3    H250542   4.817   0.418   3.216 -1.3687 -1.1426 -0.0062
 8783TIP3   OH250543   3.586   3.183   1.591 -0.1622  0.3999 -0.2338
 8783TIP3    H150544   3.503   3.138   1.604  0.2575 -0.4115 -0.3436
 8783TIP3    H250545   3.592   3.243   1.666  0.7945 -2.0729  1.8276
 8784TIP3   OH250546   7.221   2.350   2.133  0.1974  0.4131 -0.4649
 8784TIP3    H150547   7.230   2.279   2.196  0.8923  1.9655  1.2895
 8784TIP3    H250548   7.286   2.331   2.065 -1.6169 -2.1073 -1.6567
 8785TIP3   OH250549   3.021   0.215   1.352 -0.0016  0.2366 -0.7946
 8785TIP3    H150550   3.069   0.207   1.270  0.8408 -1.0557 -0.2129
 8785TIP3    H250551   3.047   0.138   1.403 -0.0185  1.2901  0.9119
 8786TIP3   OH250552   7.203   1.543   3.158 -0.2451 -0.5555  0.0529
 8786TIP3    H150553   7.199   1.452   3.185  2.6359 -0.0306  2.8603
 8786TIP3    H250554   7.286   1.552   3.112 -0.1663  0.7578  0.3903
 8787TIP3   OH250555   3.793   1.700   0.476 -0.2829  0.0059 -0.0323
 8787TIP3    H150556   3.807   1.774   0.535  1.9731  0.8550 -1.4962
 8787TIP3    H250557   3.877   1.655   0.474 -0.2517  0.0344 -2.5642
 8788TIP3   OH250558   2.963   2.576   0.838  0.1082  0.2945 -0.3069
 8788TIP3    H150559   2.967   2.543   0.748  0.5745 -1.1823  0.2149
 8788TIP3    H250560   2.906   2.652   0.833  0.7036  0.6851 -1.9694
 8789TIP3   OH250561   0.332   0.897   2.252  0.3763  0.4212  0.1546
 8789TIP3    H150562   0.419   0.858   2.255  0.5771  0.8661  0.3223
 8789TIP3    H250563   0.341   0.979   2.301  0.1354  0.9939 -0.7198
 8790TIP3   OH250564   0.305   7.189   0.596 -0.0894  0.0254  0.2977
 8790TIP3    H150565   0.324   7.097   0.580 -0.7900  0.4075 -3.8797
 8790TIP3    H250566   0.389   7.234   0.582 -0.5713  0.2962 -2.2837
 8791TIP3   OH250567   2.773   1.256   1.033  0.3450  0.0163  0.3026
 8791TIP3    H150568   2.842   1.321   1.019 -0.5107  0.7768 -0.5874
 8791TIP3    H250569   2.777   1.236   1.126 -0.6054  2.8518  1.0613
 8792TIP3   OH250570   6.518   0.404   2.963  0.1460 -0.1460 -0.1955
 8792TIP3    H150571   6.448   0.448   3.011 -0.2190 -1.5990  0.6680
 8792TIP3    H250572   6.511   0.313   2.989  3.0496 -0.1831  0.8136
 8793TIP3   OH250573   2.538   3.704   3.066  0.0549 -0.4328  0.3967
 8793TIP3    H150574   2.467   3.648   3.098  0.1785 -1.2992 -0.7825
 8793TIP3    H250575   2.613   3.645   3.057  0.6135  0.2371  0.5563
 8794TIP3   OH250576   4.862   6.372   2.360  0.2995  0.1126 -0.1457
 8794TIP3    H150577   4.819   6.406   2.439  0.2613  3.0228 -1.2632
 8794TIP3    H250578   4.942   6.424   2.352  1.0637 -1.1704 -1.2134
 8795TIP3   OH250579   1.292   0.013   3.714 -0.1143  0.3448 -0.0012
 8795TIP3    H150580   1.278   0.062   3.633  0.7151 -0.8092 -0.8635
 8795TIP3    H250581   1.385   0.023   3.733 -0.2809  0.5099  0.7465
 8796TIP3   OH250582   4.111   1.186   1.372 -0.0172  0.5281  0.1332
 8796TIP3    H150583   4.181   1.122   1.362 -0.6222 -0.2943  0.9541
 8796TIP3    H250584   4.053   1.169   1.297  0.7190  1.3113 -0.6300
 8797TIP3   OH250585   2.430   3.944   1.586  0.4522  0.2193 -0.5434
 8797TIP3    H150586   2.372   3.982   1.520 -3.0330 -2.9648  0.3251
 8797TIP3    H250587   2.482   3.880   1.538 -1.8696 -1.8832 -0.4510
 8798TIP3   OH250588   0.708   2.874   1.620 -0.0013  0.3907  0.1258
 8798TIP3    H150589   0.666   2.960   1.629  0.5861  0.5952  1.1453
 8798TIP3    H250590   0.636   2.811   1.623 -0.4872  0.8682 -1.2395
 8799TIP3   OH250591   1.050   0.529   2.666  0.4318  0.1852  0.0298
 8799TIP3    H150592   1.115   0.463   2.644  1.3908  1.4021 -0.8962
 8799TIP3    H250593   0.983   0.521   2.598  0.0263 -0.4933  0.4977
 8800TIP3   OH250594   0.094   6.765   2.650 -0.0535  0.1242 -0.2977
 8800TIP3    H150595   0.052   6.845   2.619  0.1149 -0.1042 -1.1377
 8800TIP3    H250596   0.022   6.702   2.657 -0.0416  0.0867 -0.5222
 8801TIP3   OH250597   2.058   4.445   1.028  0.4624 -0.2547  0.2671
 8801TIP3    H150598   1.993   4.451   0.959  0.3213  0.1440  0.4310
 8801TIP3    H250599   2.014   4.399   1.099  0.5825 -0.5948  0.1238
 8802TIP3   OH250600   0.370   1.407   1.804  0.5322 -0.4487 -0.0018
 8802TIP3    H150601   0.415   1.477   1.853  0.4350 -0.1936 -0.2715
 8802TIP3    H250602   0.350   1.341   1.870 -0.8844  0.5189  0.6020
 8803TIP3   OH250603   1.047   4.869   2.809 -0.1743  0.0355  0.8104
 8803TIP3    H150604   1.096   4.950   2.824 -0.4158  0.4579 -0.5195
 8803TIP3    H250605   1.108   4.813   2.760 -0.0693 -0.5250  1.5747
 8804TIP3   OH250606   4.929   1.354   2.068  0.1083  0.4356 -0.0384
 8804TIP3    H150607   4.983   1.416   2.019 -0.0242  0.9377  0.4340
 8804TIP3    H250608   4.948   1.374   2.160  1.4167 -1.4123  0.1523
 8805TIP3   OH250609   1.907   6.691   3.159  0.0705 -0.3574  0.1292
 8805TIP3    H150610   1.936   6.599   3.152  1.0027 -0.0639 -0.0527
 8805TIP3    H250611   1.983   6.741   3.129 -0.2582  0.4964  0.7172
 8806TIP3   OH250612   1.322   6.916   2.546  0.0771 -0.3018 -0.5530
 8806TIP3    H150613   1.308   6.871   2.463 -0.0004  0.5809 -1.0286
 8806TIP3    H250614   1.417   6.914   2.558  0.2092  0.6618 -1.3036
 8807TIP3   OH250615   1.389   1.381   2.470 -0.6964  0.1061  0.0681
 8807TIP3    H150616   1.452   1.393   2.541 -0.2895  1.1461 -0.4420
 8807TIP3    H250617   1.307   1.360   2.514 -0.1116 -0.8088  0.7671
 8808TIP3   OH250618   2.220   2.651   3.311  1.0582  0.4328  0.2041
 8808TIP3    H150619   2.161   2.616   3.379  2.7316 -0.8126  1.1030
 8808TIP3    H250620   2.244   2.738   3.343  0.3412  0.6345  0.2187
 8809TIP3   OH250621   5.115   7.298   1.239  0.4513  0.3449  0.5820
 8809TIP3    H150622   5.156   7.384   1.229  0.8163  0.3041  1.6123
 8809TIP3    H250623   5.034   7.304   1.188  1.1572  0.8176 -0.5243
 8810TIP3   OH250624   0.542   3.041   1.146  0.1231  0.7155  0.2981
 8810TIP3    H150625   0.492   2.991   1.081  1.0697  1.4811 -1.0817
 8810TIP3    H250626   0.510   3.010   1.231 -1.8821  0.3951 -0.5227
 8811TIP3   OH250627   4.798   5.701   2.007 -0.1999 -0.8257 -0.6419
 8811TIP3    H150628   4.798   5.752   2.087 -1.3273  0.6873 -1.5502
 8811TIP3    H250629   4.760   5.616   2.032  0.2768 -0.7010  0.5653
 8812TIP3   OH250630   5.093   7.102   0.980  0.2068  0.2033 -0.6324
 8812TIP3    H150631   5.086   7.039   0.908  2.1759  0.7203 -1.3301
 8812TIP3    H250632   5.139   7.177   0.943 -0.3816  1.2751  0.6973
 8813TIP3   OH250633   2.044   2.333   3.070  0.0937  0.0023  0.0337
 8813TIP3    H150634   2.131   2.368   3.089  0.0212  0.4943 -0.5123
 8813TIP3    H250635   1.984   2.394   3.114  0.0061 -0.0451 -0.0215
 8814TIP3   OH250636   6.981   2.188   0.874 -0.8556 -0.0879  0.1675
 8814TIP3    H150637   6.927   2.154   0.803 -0.9448  1.1565 -0.3925
 8814TIP3    H250638   7.010   2.111   0.922 -0.3434 -0.9993 -1.5540
 8815TIP3   OH250639   6.385   0.814   1.308  0.1824 -0.3632 -0.5061
 8815TIP3    H150640   6.397   0.895   1.356  0.7623 -0.7000 -0.0778
 8815TIP3    H250641   6.449   0.818   1.237  0.6207 -0.6990 -0.1398
 8816TIP3   OH250642   4.548   0.840   2.481 -0.5214  0.2332  0.4271
 8816TIP3    H150643   4.610   0.897   2.434  1.2282  0.0693  2.3984
 8816TIP3    H250644   4.465   0.852   2.434  0.2985  2.6543 -0.5984
 8817TIP3   OH250645   6.827   2.869   1.443 -0.1632  0.1010 -0.1202
 8817TIP3    H150646   6.796   2.778   1.438  1.0607 -0.2951 -3.5412
 8817TIP3    H250647   6.912   2.863   1.487 -0.0793 -0.4532 -0.3398
 8818TIP3   OH250648   1.061   4.287   0.550  0.0508 -0.2778  0.1400
 8818TIP3    H150649   0.987   4.309   0.493 -0.0203 -1.6108 -0.3222
 8818TIP3    H250650   1.126   4.355   0.533 -0.2971 -0.1934 -0.9366
 8819TIP3   OH250651   7.561   5.268   2.517  0.2766 -0.2523  0.9369
 8819TIP3    H150652   7.508   5.325   2.461 -1.3837 -1.7309  0.8811
 8819TIP3    H250653   7.576   5.319   2.596  0.3373  0.8876  0.2050
 8820TIP3   OH250654   3.439   3.075   0.958 -0.0752 -0.1974  0.1161
 8820TIP3    H150655   3.436   3.159   0.912  0.0832  0.5897  1.5007
 8820TIP3    H250656   3.514   3.030   0.919  0.1258  0.4892 -0.3125
 8821TIP3   OH250657   5.802   2.691   1.027  0.2057  0.3048  0.0347
 8821TIP3    H150658   5.739   2.736   1.083 -0.5379 -0.5377 -0.1100
 8821TIP3    H250659   5.798   2.737   0.943  0.7653  1.0881  0.4309
 8822TIP3   OH250660   2.850   6.536   2.721 -0.2355  0.2692  0.5592
 8822TIP3    H150661   2.848   6.562   2.813 -1.9421  0.9254  0.3781
 8822TIP3    H250662   2.765   6.562   2.687  0.7193  0.9665 -1.4738
 8823TIP3   OH250663   5.752   1.708   2.379 -0.4576  0.1362 -0.5753
 8823TIP3    H150664   5.834   1.683   2.337  0.1404  0.8727  0.1225
 8823TIP3    H250665   5.751   1.804   2.375 -1.1288  0.1486 -0.2865
 8824TIP3   OH250666   4.748   2.950   1.901  0.3430 -0.3953  0.0565
 8824TIP3    H150667   4.801   2.872   1.919  1.5561  0.0675 -1.3099
 8824TIP3    H250668   4.671   2.940   1.956  1.3606 -1.6281  1.3292
 8825TIP3   OH250669   3.390   5.700   2.977  0.2200  0.1016  0.0668
 8825TIP3    H150670   3.426   5.614   2.958  1.8650  0.6273  0.6042
 8825TIP3    H250671   3.385   5.704   3.073  0.4072  0.6969  0.0564
 8826TIP3   OH250672   2.236   4.166   2.222  0.7011 -0.0108 -0.3094
 8826TIP3    H150673   2.306   4.111   2.257 -0.8868 -0.5313  2.2714
 8826TIP3    H250674   2.172   4.105   2.187  0.4244  0.3600 -0.4564
 8827TIP3   OH250675   7.632   6.268   2.414 -0.2578  0.6139 -0.1693
 8827TIP3    H150676   7.598   6.355   2.392  0.4554  0.8930 -0.2015
 8827TIP3    H250677   7.706   6.285   2.472  1.4839  0.1760 -2.1766
 8828TIP3   OH250678   6.486   5.873   1.375  0.2749  0.4696 -0.2269
 8828TIP3    H150679   6.511   5.950   1.325  0.0466  0.2739 -0.6418
 8828TIP3    H250680   6.568   5.823   1.384  0.3670  0.6270 -0.1835
 8829TIP3   OH250681   3.525   3.068   2.529  0.0535 -0.1849 -0.0849
 8829TIP3    H150682   3.542   3.036   2.440  0.9677 -0.7813  0.2852
 8829TIP3    H250683   3.591   3.135   2.543 -0.5997  0.4835 -0.1293
 8830TIP3   OH250684   5.374   3.316   0.834  0.0265  0.4136 -0.3172
 8830TIP3    H150685   5.336   3.236   0.869 -1.6104  0.7660 -1.2059
 8830TIP3    H250686   5.350   3.383   0.898  0.6486  0.3639 -0.0193
 8831TIP3   OH250687   3.785   3.077   0.729 -0.5463 -0.0269  0.2865
 8831TIP3    H150688   3.823   3.120   0.806 -1.2334 -0.5854  0.9563
 8831TIP3    H250689   3.716   3.020   0.765 -0.8157 -0.3671 -0.7353
 8832TIP3   OH250690   6.902   5.798   2.074  0.2871  0.6913 -0.0110
 8832TIP3    H150691   6.972   5.779   2.137 -0.3178 -2.1636 -0.0376
 8832TIP3    H250692   6.945   5.847   2.004  2.1678 -0.4674  0.2451
 8833TIP3   OH250693   5.840   5.777   1.881 -0.3671  0.0409  0.0974
 8833TIP3    H150694   5.843   5.872   1.875  0.7434  0.0398  0.4301
 8833TIP3    H250695   5.845   5.758   1.975 -0.3887 -0.3553  0.0226
 8834TIP3   OH250696   7.157   5.120   1.647  1.0153 -0.3100  0.2035
 8834TIP3    H150697   7.238   5.103   1.598 -0.1088  0.0758 -1.9385
 8834TIP3    H250698   7.089   5.120   1.580 -0.8272 -0.9711  1.9899
 8835TIP3   OH250699   1.699   4.609   1.070 -0.8477 -0.1358  0.1915
 8835TIP3    H150700   1.626   4.667   1.094 -1.0964 -0.1972 -0.3849
 8835TIP3    H250701   1.772   4.637   1.125 -0.5348  1.7026 -1.0833
 8836TIP3   OH250702   3.391   1.714   1.710  0.0402 -0.3633  0.3640
 8836TIP3    H150703   3.354   1.635   1.749  1.3780 -0.7397  0.9250
 8836TIP3    H250704   3.399   1.776   1.783  1.1523 -0.5412  0.4039
 8837TIP3   OH250705   1.906   3.804   2.761 -0.0346  0.2113 -0.3070
 8837TIP3    H150706   1.855   3.789   2.840  0.2043 -0.9076 -0.3530
 8837TIP3    H250707   1.959   3.725   2.750  2.1985  1.5428  0.1001
 8838TIP3   OH250708   7.556   3.846   2.298 -0.9384 -0.1350  0.6347
 8838TIP3    H150709   7.647   3.870   2.318 -1.0742  1.8790 -0.8628
 8838TIP3    H250710   7.556   3.750   2.301  0.9094 -0.1631  1.9336
 8839TIP3   OH250711   4.459   2.625   2.211  0.0965 -0.1752 -0.3849
 8839TIP3    H150712   4.465   2.552   2.273  0.1802 -0.5551 -0.8277
 8839TIP3    H250713   4.403   2.591   2.140  1.5089 -0.4264 -1.4275
 8840TIP3   OH250714   7.157   6.948   2.730 -0.1876  0.4281 -0.5969
 8840TIP3    H150715   7.109   6.885   2.782  0.3487  1.0885  0.7453
 8840TIP3    H250716   7.245   6.910   2.720 -0.0310  0.7034 -0.2712
 8841TIP3   OH250717   1.317   4.999   2.716  0.0997 -0.2143 -0.2995
 8841TIP3    H150718   1.292   5.062   2.784 -0.9583 -0.6726 -0.2441
 8841TIP3    H250719   1.304   5.047   2.634  2.7482  0.8309 -0.2023
 8842TIP3   OH250720   2.887   6.213   1.528 -0.2397  0.2045 -0.3191
 8842TIP3    H150721   2.903   6.193   1.436  0.7972 -2.8035  0.4082
 8842TIP3    H250722   2.804   6.170   1.548 -0.1787  0.3434  0.2688
 8843TIP3   OH250723   4.159   0.364   1.253  0.3557  0.4601 -0.2761
 8843TIP3    H150724   4.091   0.336   1.192  0.7057  1.2043 -1.0125
 8843TIP3    H250725   4.140   0.314   1.333 -1.3334  0.9892 -0.3078
 8844TIP3   OH250726   2.213   3.022   2.380 -0.1912  0.3923 -0.1053
 8844TIP3    H150727   2.250   3.054   2.298  1.4707 -1.7428 -0.2927
 8844TIP3    H250728   2.138   2.969   2.352  0.4689 -0.4663 -0.3209
 8845TIP3   OH250729   5.150   7.134   2.719 -0.8344  0.3881  0.3847
 8845TIP3    H150730   5.144   7.039   2.727 -1.7380  0.4599  0.7189
 8845TIP3    H250731   5.154   7.165   2.810 -0.1403  0.6464  0.2672
 8846TIP3   OH250732   7.365   2.976   1.581 -0.3184 -0.5326  0.1269
 8846TIP3    H150733   7.278   2.952   1.551 -1.2286  1.0326  1.3982
 8846TIP3    H250734   7.373   2.939   1.668  0.2107 -0.4744  0.1119
 8847TIP3   OH250735   1.312   5.389   1.758  0.3175  0.2223 -0.5094
 8847TIP3    H150736   1.257   5.380   1.836  0.6472  1.0025 -0.1813
 8847TIP3    H250737   1.337   5.299   1.737 -1.3245 -0.1859 -0.8516
 8848TIP3   OH250738   5.642   1.555   1.057  0.0637 -0.4069  0.4873
 8848TIP3    H150739   5.583   1.512   0.994  0.2676  0.1358 -0.0770
 8848TIP3    H250740   5.627   1.508   1.139 -2.3095  0.6673  0.7679
 8849TIP3   OH250741   0.108   0.147   2.881  0.0316 -0.2256  0.0129
 8849TIP3    H150742   0.065   0.207   2.942 -0.3044 -1.6397  1.2591
 8849TIP3    H250743   0.151   0.083   2.938  0.0721 -1.3508 -1.2355
 8850TIP3   OH250744   1.090   1.089   3.619  0.6077  0.0681 -0.4048
 8850TIP3    H150745   1.014   1.108   3.564 -0.3839  1.9719  1.4859
 8850TIP3    H250746   1.060   1.019   3.678  0.8422 -0.2520 -0.6639
 8851TIP3   OH250747   0.763   5.905   1.252 -0.0976  0.3188  0.5020
 8851TIP3    H150748   0.836   5.903   1.315  0.8211  0.3828 -0.5384
 8851TIP3    H250749   0.716   5.985   1.273  0.0973  0.2590  1.2113
 8852TIP3   OH250750   2.035   0.089   2.085 -0.0333 -0.4351  0.0672
 8852TIP3    H150751   2.051   0.063   2.176 -0.0715 -0.5034  0.0542
 8852TIP3    H250752   2.016   0.183   2.091 -2.0828 -0.8098  0.3920
 8853TIP3   OH250753   6.158   2.777   2.765 -0.1971 -0.3998 -0.4678
 8853TIP3    H150754   6.198   2.710   2.709 -1.3670 -0.2122 -1.5670
 8853TIP3    H250755   6.132   2.847   2.704 -0.3625  0.3865  0.4742
 8854TIP3   OH250756   3.829   2.881   1.635  0.4419  0.0968 -0.0017
 8854TIP3    H150757   3.779   2.934   1.573 -0.5102 -0.5485  0.1830
 8854TIP3    H250758   3.782   2.797   1.637  1.4476 -0.4720  0.3130
 8855TIP3   OH250759   4.700   3.010   0.838  0.3496 -0.0114  0.2406
 8855TIP3    H150760   4.683   3.087   0.783  0.2006  1.0105  1.6681
 8855TIP3    H250761   4.650   3.026   0.918  1.1536 -1.0973  0.9902
 8856TIP3   OH250762   6.627   6.175   1.206 -0.0040  0.3204 -0.1606
 8856TIP3    H150763   6.635   6.089   1.164  0.2276  0.4195 -0.3203
 8856TIP3    H250764   6.532   6.187   1.217  0.0067 -0.5573  1.1235
 8857TIP3   OH250765   3.349   6.635   1.707  0.2056  0.3626 -0.1409
 8857TIP3    H150766   3.372   6.591   1.625 -0.8614  0.1995 -0.3606
 8857TIP3    H250767   3.377   6.726   1.695  2.8611 -0.2913  0.4910
 8858TIP3   OH250768   2.099   1.074   2.348 -0.4625 -0.1922  0.0269
 8858TIP3    H150769   2.113   1.123   2.267  0.0251 -1.7555 -0.8905
 8858TIP3    H250770   2.130   1.132   2.417  0.8700  0.4756 -1.0767
 8859TIP3   OH250771   5.412   7.414   1.693 -0.1882 -0.0854  0.2854
 8859TIP3    H150772   5.408   7.325   1.728 -0.5016 -0.6232 -1.0739
 8859TIP3    H250773   5.406   7.403   1.598 -0.6762  1.4138  0.1200
 8860TIP3   OH250774   0.099   2.893   1.275  0.1951 -0.3413  0.0500
 8860TIP3    H150775   0.175   2.914   1.221  1.4566 -3.5006  0.3870
 8860TIP3    H250776   0.024   2.905   1.217  0.9950  1.6761 -0.6564
 8861TIP3   OH250777   2.947   4.671   2.496  0.2030  0.2494  0.6994
 8861TIP3    H150778   2.862   4.714   2.501  1.4066  3.0147 -0.4378
 8861TIP3    H250779   2.930   4.591   2.446 -1.5518  1.2896 -0.4929
 8862TIP3   OH250780   6.683   0.861   2.917 -0.1543 -0.2153 -0.4217
 8862TIP3    H150781   6.601   0.906   2.895  0.5248  1.7023  0.7904
 8862TIP3    H250782   6.676   0.843   3.010  1.0363  0.4993 -0.1831
 8863TIP3   OH250783   3.912   1.609   0.793  0.3542 -0.4566 -0.2023
 8863TIP3    H150784   3.826   1.578   0.822 -0.0894 -1.5752 -2.4739
 8863TIP3    H250785   3.896   1.697   0.760  0.4194 -0.0490  0.8284
 8864TIP3   OH250786   2.256   2.744   1.132  0.1598  0.0896 -0.2742
 8864TIP3    H150787   2.249   2.699   1.047  0.4061  1.3521 -0.9854
 8864TIP3    H250788   2.181   2.804   1.133  0.9030  1.0321 -0.1900
 8865TIP3   OH250789   4.674   6.272   3.094  0.0696  0.8161  0.2152
 8865TIP3    H150790   4.639   6.248   3.009  2.0828  1.0585 -0.7474
 8865TIP3    H250791   4.768   6.252   3.088  0.1222 -0.1013  2.7219
 8866TIP3   OH250792   5.888   3.437   2.865 -0.1743 -0.1672 -0.0784
 8866TIP3    H150793   5.848   3.355   2.893  2.5923 -2.0242 -1.1122
 8866TIP3    H250794   5.960   3.410   2.808  0.8925  3.0076 -0.4215
 8867TIP3   OH250795   2.992   3.724   2.889 -0.3157 -0.2934 -0.5074
 8867TIP3    H150796   3.034   3.662   2.949 -1.1305 -2.2868 -1.8965
 8867TIP3    H250797   2.985   3.805   2.940  1.2149 -1.1657  1.2288
 8868TIP3   OH250798   5.454   2.188   1.066  0.1654  0.4360  0.2063
 8868TIP3    H150799   5.484   2.150   1.148  1.0100 -1.6567 -1.0085
 8868TIP3    H250800   5.369   2.228   1.087  1.3409  1.8912  2.5358
 8869TIP3   OH250801   3.549   6.193   1.673 -0.5277  0.2330 -0.0984
 8869TIP3    H150802   3.529   6.250   1.600 -1.7589  1.1348  0.8921
 8869TIP3    H250803   3.637   6.161   1.656  0.0707  2.1743 -0.8639
 8870TIP3   OH250804   4.525   2.408   2.391 -0.6389 -0.5777  0.0382
 8870TIP3    H150805   4.532   2.356   2.471  2.1021 -0.4091  0.0092
 8870TIP3    H250806   4.580   2.484   2.407 -0.5325 -0.2287 -1.7734
 8871TIP3   OH250807   3.031   5.507   1.516 -0.3997 -0.0715 -0.5663
 8871TIP3    H150808   2.965   5.439   1.522 -0.3722 -0.2508 -1.9974
 8871TIP3    H250809   2.995   5.570   1.454 -0.1667  0.9327  0.2985
 8872TIP3   OH250810   5.643   4.451   2.391  0.5587 -0.4262  0.2129
 8872TIP3    H150811   5.684   4.425   2.473  2.5813 -1.0490 -0.9283
 8872TIP3    H250812   5.711   4.438   2.325 -1.7021 -2.1372 -1.9296
 8873TIP3   OH250813   3.859   4.742   2.300 -0.0405  0.1818  0.7491
 8873TIP3    H150814   3.858   4.656   2.258  0.8555  0.9153 -0.8416
 8873TIP3    H250815   3.829   4.803   2.233  2.7190  1.5795  0.6308
 8874TIP3   OH250816   6.337   7.133   1.139 -0.0852 -0.1908  0.0730
 8874TIP3    H150817   6.420   7.181   1.138 -0.2259  0.0791  1.0429
 8874TIP3    H250818   6.359   7.049   1.097  0.2712  0.4971 -1.1836
 8875TIP3   OH250819   1.716   4.796   2.220 -0.3480  0.1351 -0.0486
 8875TIP3    H150820   1.670   4.722   2.260  0.7324 -1.0954 -1.0339
 8875TIP3    H250821   1.721   4.861   2.290 -1.8195 -0.4722  0.6675
 8876TIP3   OH250822   4.960   6.411   1.093 -0.0335  0.1822 -1.0089
 8876TIP3    H150823   5.023   6.339   1.094 -0.8878 -0.6288  1.2620
 8876TIP3    H250824   5.012   6.488   1.119  0.3352 -0.1581 -0.7295
 8877TIP3   OH250825   5.194   4.644   1.271  0.3794  0.1559  0.3292
 8877TIP3    H150826   5.248   4.712   1.230 -0.2710  0.8013  0.5445
 8877TIP3    H250827   5.212   4.565   1.219  0.1670  0.7790 -0.7157
 8878TIP3   OH250828   4.621   7.329   1.265 -0.3733 -0.4443 -0.0496
 8878TIP3    H150829   4.576   7.345   1.348 -0.2082  0.1181 -0.0637
 8878TIP3    H250830   4.585   7.246   1.234 -0.7446 -0.4486  0.3767
 8879TIP3   OH250831   7.133   4.642   2.455  0.0307  0.1363 -0.0297
 8879TIP3    H150832   7.160   4.660   2.365  0.4426 -0.2565  0.0108
 8879TIP3    H250833   7.214   4.619   2.501 -0.2880 -0.4941  0.2326
 8880TIP3   OH250834   7.459   2.022   0.729  0.4466 -0.5941 -0.0655
 8880TIP3    H150835   7.484   1.941   0.774  1.9937 -0.5410 -0.7474
 8880TIP3    H250836   7.376   2.002   0.687 -0.1310 -1.2142  1.2948
 8881TIP3   OH250837   0.452   2.273   0.544 -0.1581 -0.1423 -0.6150
 8881TIP3    H150838   0.359   2.278   0.566 -0.1630 -3.5588  0.7733
 8881TIP3    H250839   0.473   2.180   0.550  3.1874  0.3902 -1.7812
 8882TIP3   OH250840   5.023   1.192   0.970  0.0462 -0.0164 -0.1880
 8882TIP3    H150841   5.058   1.139   1.041 -1.0866 -0.2881  0.2005
 8882TIP3    H250842   5.094   1.198   0.906  0.8787 -0.2740  0.6866
 8883TIP3   OH250843   0.708   4.902   2.467  0.4323 -0.2249 -0.9367
 8883TIP3    H150844   0.744   4.982   2.504 -0.5575 -0.3344  0.3239
 8883TIP3    H250845   0.715   4.914   2.372 -0.7367  1.8699 -0.8239
 8884TIP3   OH250846   4.184   2.220   0.573 -0.0789  0.2253  0.4200
 8884TIP3    H150847   4.218   2.275   0.503  1.0381  1.7724  2.0721
 8884TIP3    H250848   4.260   2.200   0.627 -0.7649 -1.5844  0.8012
 8885TIP3   OH250849   5.802   0.472   1.068  0.0696 -0.4644  0.0045
 8885TIP3    H150850   5.851   0.521   1.002 -0.3487 -1.1798 -0.8570
 8885TIP3    H250851   5.749   0.410   1.018 -1.0158 -0.3508  0.9499
 8886TIP3   OH250852   1.091   6.875   0.549  0.1209 -0.3624  1.0613
 8886TIP3    H150853   1.168   6.822   0.531  1.1412  0.9872  1.2712
 8886TIP3    H250854   1.019   6.812   0.558  0.1259 -1.4832 -3.8843
 8887TIP3   OH250855   0.472   6.052   3.043  0.0448  0.3061 -0.3292
 8887TIP3    H150856   0.452   6.116   3.111 -0.4358 -0.4806  0.2884
 8887TIP3    H250857   0.525   5.986   3.088 -1.2409 -0.8202 -0.4040
 8888TIP3   OH250858   4.001   2.879   2.517 -0.1398 -0.2084 -0.5369
 8888TIP3    H150859   3.999   2.837   2.431  1.6333  0.8308 -1.1541
 8888TIP3    H250860   3.909   2.892   2.540 -0.6642 -1.4367 -1.7947
 8889TIP3   OH250861   0.734   4.990   2.201 -0.2451 -0.4409  0.2387
 8889TIP3    H150862   0.796   5.062   2.215 -0.2867 -0.6037  1.3886
 8889TIP3    H250863   0.653   5.033   2.173  0.7692 -0.3238 -2.9192
 8890TIP3   OH250864   5.855   3.676   2.121 -0.1259  0.3043  0.3357
 8890TIP3    H150865   5.803   3.609   2.078  1.2163  0.1181 -1.0587
 8890TIP3    H250866   5.887   3.634   2.201  0.1561 -0.4858 -0.1891
 8891TIP3   OH250867   5.644   4.621   1.781  0.4865 -0.1501  0.2327
 8891TIP3    H150868   5.586   4.626   1.705  0.7268  0.8339  0.1001
 8891TIP3    H250869   5.708   4.690   1.767  0.4061  0.1926  1.4464
 8892TIP3   OH250870   7.326   3.948   1.648  0.4936  0.8736  0.5557
 8892TIP3    H150871   7.280   3.899   1.716 -0.8779  2.6897  1.0077
 8892TIP3    H250872   7.392   3.998   1.696  2.1561 -0.7149  0.0533
 8893TIP3   OH250873   1.249   1.512   2.834  0.0964  0.2644 -0.3283
 8893TIP3    H150874   1.245   1.601   2.798 -0.0432  0.3685 -0.0630
 8893TIP3    H250875   1.337   1.481   2.812 -0.0716  0.2273 -0.9742
 8894TIP3   OH250876   2.811   3.915   2.030  0.4546 -0.3081 -0.2858
 8894TIP3    H150877   2.843   3.866   2.106 -0.4927 -0.1823  0.2113
 8894TIP3    H250878   2.880   3.978   2.011  0.9446 -0.7130  0.1214
 8895TIP3   OH250879   5.254   3.485   0.614  0.5940 -0.3246 -0.7266
 8895TIP3    H150880   5.299   3.568   0.633 -0.7665  0.1694  0.5321
 8895TIP3    H250881   5.306   3.419   0.658  1.0006  0.0246 -0.6736
 8896TIP3   OH250882   4.729   7.357   2.457 -0.5160  1.2528  0.8991
 8896TIP3    H150883   4.756   7.276   2.414  0.7214  2.3382 -0.4915
 8896TIP3    H250884   4.636   7.344   2.476 -1.2521  0.7131 -2.3836
 8897TIP3   OH250885   0.570   2.323   0.798 -0.1519 -0.0241 -0.2565
 8897TIP3    H150886   0.651   2.271   0.797 -0.6942 -0.9670  1.1970
 8897TIP3    H250887   0.524   2.296   0.719  0.7164  0.1328 -0.8277
 8898TIP3   OH250888   1.059   6.037   2.466  0.4158  0.2479 -0.0517
 8898TIP3    H150889   1.141   6.054   2.418  1.1483  0.9430  1.3924
 8898TIP3    H250890   0.993   6.085   2.417  1.0400  0.4614 -0.7128
 8899TIP3   OH250891   3.076   7.128   1.829  0.2285  0.4041  0.3294
 8899TIP3    H150892   3.005   7.119   1.893 -0.0175 -1.4030 -0.1592
 8899TIP3    H250893   3.031   7.149   1.747  0.3561  0.4164  0.2624
 8900TIP3   OH250894   3.553   2.691   2.095  0.2716  0.4334 -0.1831
 8900TIP3    H150895   3.640   2.702   2.056  1.1755  1.1046  1.8672
 8900TIP3    H250896   3.493   2.729   2.032  1.4867  0.1290 -1.5627
 8901TIP3   OH250897   1.792   4.952   1.111 -0.7396  0.2812  0.0104
 8901TIP3    H150898   1.830   4.903   1.038  0.9506 -1.2076  1.7603
 8901TIP3    H250899   1.820   5.043   1.096 -0.6807  0.0578 -1.3287
 8902TIP3   OH250900   1.058   5.414   2.200  0.4437 -0.2598 -0.3112
 8902TIP3    H150901   1.114   5.438   2.273  0.6078 -0.9404 -0.2074
 8902TIP3    H250902   1.004   5.492   2.184 -1.4918 -0.9285  2.2926
 8903TIP3   OH250903   2.547   4.688   2.866 -0.3691 -0.4012 -0.3415
 8903TIP3    H150904   2.536   4.612   2.810 -0.4135 -0.2587 -0.5282
 8903TIP3    H250905   2.468   4.740   2.852 -0.4832 -0.4724  0.0243
 8904TIP3   OH250906   2.007   1.056   1.155 -0.1071  0.0038  0.1902
 8904TIP3    H150907   1.968   0.969   1.165 -2.2849  1.0656  1.4787
 8904TIP3    H250908   2.023   1.064   1.060  1.2206 -2.1740  0.1466
 8905TIP3   OH250909   5.585   3.682   2.220 -0.1157 -0.4553 -0.8322
 8905TIP3    H150910   5.567   3.632   2.299 -1.3660  1.0846 -0.0935
 8905TIP3    H250911   5.676   3.662   2.199  0.2555 -0.8306  1.0196
 8906TIP3   OH250912   2.546   5.565   2.390 -0.0530  0.3660 -0.6446
 8906TIP3    H150913   2.598   5.640   2.419  1.2191 -0.1291 -1.5249
 8906TIP3    H250914   2.574   5.550   2.299 -0.5063 -0.9734 -0.5898
 8907TIP3   OH250915   3.600   1.286   3.399 -0.4753  0.1526  0.3775
 8907TIP3    H150916   3.550   1.332   3.331  1.2674  1.0017 -0.4047
 8907TIP3    H250917   3.611   1.352   3.468 -1.4634 -0.4240  1.1061
 8908TIP3   OH250918   7.031   7.524   1.857  0.2255  0.3976 -0.2393
 8908TIP3    H150919   7.058   7.553   1.944  0.6594 -1.3227  0.2215
 8908TIP3    H250920   7.098   7.462   1.830 -0.2120  0.4595 -1.5760
 8909TIP3   OH250921   2.821   3.405   1.987 -0.4987  0.0281 -0.7025
 8909TIP3    H150922   2.736   3.368   2.010  0.1970 -1.0865  0.2299
 8909TIP3    H250923   2.880   3.329   1.984  0.7281  0.9141  0.0186
 8910TIP3   OH250924   4.231   1.281   3.146 -0.9290 -0.1565 -0.3872
 8910TIP3    H150925   4.224   1.189   3.171  0.1953 -0.1059  0.1748
 8910TIP3    H250926   4.257   1.326   3.226  1.2244  0.2400 -1.2391
 8911TIP3   OH250927   6.630   2.623   1.204  0.0438  0.5336  0.0858
 8911TIP3    H150928   6.685   2.589   1.133  2.7271  2.8220  0.8488
 8911TIP3    H250929   6.661   2.577   1.282 -0.9224  0.0490  0.1932
 8912TIP3   OH250930   7.270   5.695   1.963 -0.1999  0.3498 -0.0757
 8912TIP3    H150931   7.314   5.705   1.879 -2.8486 -0.2758 -1.6278
 8912TIP3    H250932   7.226   5.779   1.977 -0.1222  0.2993  0.5147
 8913TIP3   OH250933   2.519   1.938   3.432  0.0106  0.2225 -0.4070
 8913TIP3    H150934   2.571   1.990   3.494  1.2159  0.2211 -1.3741
 8913TIP3    H250935   2.439   1.916   3.480  1.1218 -0.2246  1.3280
 8914TIP3   OH250936   1.106   3.828   0.457  0.6469 -0.0094  0.1330
 8914TIP3    H150937   1.116   3.896   0.524  2.6363 -0.7678  0.6488
 8914TIP3    H250938   1.186   3.832   0.405 -0.1365 -0.5620 -1.1842
 8915TIP3   OH250939   0.107   1.770   1.287 -0.1174  0.3781 -0.1720
 8915TIP3    H150940   0.045   1.817   1.343 -0.5059  0.1196 -0.3831
 8915TIP3    H250941   0.144   1.838   1.231  0.7998  0.7618  0.8555
 8916TIP3   OH250942   0.926   0.913   1.190 -0.4718  0.1638  0.3598
 8916TIP3    H150943   0.941   0.930   1.283  0.0408  1.1539  0.1058
 8916TIP3    H250944   0.859   0.845   1.189  0.1586 -0.5145  1.4670
 8917TIP3   OH250945   2.313   5.245   1.139  0.4054  0.3781 -0.3546
 8917TIP3    H150946   2.339   5.287   1.057  1.5618  1.4337  0.5159
 8917TIP3    H250947   2.320   5.151   1.121 -1.1257  0.5252 -1.9921
 8918TIP3   OH250948   6.720   1.719   2.383 -0.2434 -0.2590 -0.3768
 8918TIP3    H150949   6.656   1.790   2.374  1.1275  0.9393 -1.1378
 8918TIP3    H250950   6.695   1.673   2.463 -1.3747  0.8750 -0.0544
 8919TIP3   OH250951   1.700   1.686   1.880 -0.2273  0.2501 -0.4985
 8919TIP3    H150952   1.630   1.714   1.821 -0.1882  0.8646 -0.2550
 8919TIP3    H250953   1.721   1.596   1.852 -1.2827 -0.0294 -0.4062
 8920TIP3   OH250954   2.767   5.117   2.769  0.0903 -0.0309 -0.4219
 8920TIP3    H150955   2.724   5.038   2.801  1.6694 -0.4946  0.6198
 8920TIP3    H250956   2.804   5.159   2.847 -0.3631  1.5408 -1.0036
 8921TIP3   OH250957   1.904   2.409   3.889 -0.0662  0.2359 -0.8571
 8921TIP3    H150958   1.956   2.427   3.811  0.7921 -2.0264 -0.8730
 8921TIP3    H250959   1.968   2.408   3.960 -0.5277  0.2697 -0.4422
 8922TIP3   OH250960   5.614   7.042   2.624  0.2518  0.6117 -0.1553
 8922TIP3    H150961   5.685   7.102   2.645  1.6036 -0.8532 -0.3483
 8922TIP3    H250962   5.651   6.955   2.636 -1.1887 -0.2196 -1.2950
 8923TIP3   OH250963   1.159   4.694   0.653 -0.1050 -0.4696  0.8620
 8923TIP3    H150964   1.163   4.790   0.649  0.2670 -0.4842  0.9206
 8923TIP3    H250965   1.090   4.676   0.717 -1.5495 -0.2457 -0.5474
 8924TIP3   OH250966   5.821   5.053   1.176 -0.2023 -0.4179 -0.1783
 8924TIP3    H150967   5.888   5.015   1.118 -0.3908 -0.7989 -0.1535
 8924TIP3    H250968   5.753   5.083   1.116 -0.3067 -0.6294 -0.1665
 8925TIP3   OH250969   7.542   6.524   2.670 -0.2964 -0.0664 -0.4053
 8925TIP3    H150970   7.623   6.476   2.653 -0.1036  0.4673 -1.0489
 8925TIP3    H250971   7.502   6.479   2.744  0.5773 -0.3563 -0.0991
 8926TIP3   OH250972   0.083   1.567   1.918 -0.0365  0.5361 -0.6652
 8926TIP3    H150973   0.117   1.597   2.002 -0.2532 -0.8607 -0.0433
 8926TIP3    H250974   0.121   1.627   1.853  2.6085 -0.1907  0.1060
 8927TIP3   OH250975   3.402   7.246   2.211 -0.4032 -0.0111  0.3951
 8927TIP3    H150976   3.362   7.178   2.157 -0.2162  0.3224 -0.1751
 8927TIP3    H250977   3.495   7.242   2.189 -0.2059 -0.3970  1.2789
 8928TIP3   OH250978   6.824   5.441   1.886  0.1182  0.1818 -0.3857
 8928TIP3    H150979   6.822   5.429   1.981 -1.3233 -0.9303 -0.5116
 8928TIP3    H250980   6.912   5.473   1.867  0.8204 -0.7185  1.1888
 8929TIP3   OH250981   0.595   7.590   2.978  0.0563 -0.3188  0.4455
 8929TIP3    H150982   0.668   7.651   2.982  1.1368 -1.5618  0.3797
 8929TIP3    H250983   0.630   7.509   3.015 -0.4637 -1.7451 -1.9706
 8930TIP3   OH250984   6.697   6.195   2.761 -0.2363 -0.1839  0.2913
 8930TIP3    H150985   6.668   6.146   2.838 -0.3056 -0.3728  0.1446
 8930TIP3    H250986   6.728   6.278   2.796 -0.0830 -0.3481  0.5439
 8931TIP3   OH250987   1.080   0.155   3.524 -0.6985 -0.1512 -0.2069
 8931TIP3    H150988   1.091   0.250   3.518 -0.3361 -0.1704  0.1212
 8931TIP3    H250989   1.155   0.120   3.476 -0.3964 -0.2760  0.3557
 8932TIP3   OH250990   7.196   7.621   2.143 -0.2572 -0.2588  0.0738
 8932TIP3    H150991   7.242   7.696   2.106  0.8714 -0.4153  1.0963
 8932TIP3    H250992   7.137   7.658   2.209 -0.3101 -0.2156  0.0034
 8933TIP3   OH250993   7.432   7.189   2.962 -0.2725  0.1051 -0.4775
 8933TIP3    H150994   7.420   7.225   2.875  0.6635  0.0201 -0.6575
 8933TIP3    H250995   7.435   7.094   2.949  0.3733  0.1145 -0.4284
 8934TIP3   OH250996   3.471   2.474   1.627  0.0088 -0.1073 -0.0906
 8934TIP3    H150997   3.509   2.406   1.571 -0.5954 -0.4050 -0.1395
 8934TIP3    H250998   3.434   2.427   1.701 -1.2286  0.0736 -0.5745
 8935TIP3   OH250999   3.575   3.640   2.252 -0.0029 -0.3367  0.0412
 8935TIP3    H151000   3.630   3.564   2.270 -0.2363 -0.6953 -0.6925
 8935TIP3    H251001   3.498   3.628   2.308 -0.1096 -0.7326 -0.1797
 8936TIP3   OH251002   7.627   1.212   0.946 -0.5070 -0.5823 -0.5469
 8936TIP3    H151003   7.608   1.305   0.934 -1.2684 -0.9073 -2.0921
 8936TIP3    H251004   7.558   1.181   1.005 -0.5952 -0.3014 -0.4991
 8937TIP3   OH251005   2.586   0.094   2.445 -0.3129  0.1205  0.2196
 8937TIP3    H151006   2.677   0.119   2.463 -0.4207  0.9807 -0.3547
 8937TIP3    H251007   2.592   0.037   2.368 -0.4980  2.9290 -2.0070
 8938TIP3   OH251008   7.613   5.300   1.498 -0.9558  0.1911  0.5960
 8938TIP3    H151009   7.681   5.232   1.501  0.2431  1.2507 -0.8820
 8938TIP3    H251010   7.535   5.254   1.466 -0.2525 -0.5801 -0.0744
 8939TIP3   OH251011   3.211   1.819   3.021  0.0024  0.0824 -0.0757
 8939TIP3    H151012   3.252   1.749   3.072  0.6213  1.8732  2.0589
 8939TIP3    H251013   3.284   1.874   2.992 -0.3575 -0.7348 -2.8061
 8940TIP3   OH251014   4.089   2.024   1.984 -0.1998  0.7600  0.1740
 8940TIP3    H151015   4.091   2.117   2.007 -0.5903  0.9502 -0.5444
 8940TIP3    H251016   4.066   1.980   2.066 -0.3870  1.3207  0.4289
 8941TIP3   OH251017   5.304   3.087   1.877 -0.5426  0.2250 -0.3531
 8941TIP3    H151018   5.230   3.148   1.880 -1.1765 -0.5613  0.5707
 8941TIP3    H251019   5.375   3.134   1.919 -1.1343  0.2020  0.7095
 8942TIP3   OH251020   4.714   1.409   0.675  0.2037  0.0596  0.6303
 8942TIP3    H151021   4.679   1.497   0.664  0.2913  0.5047  3.1918
 8942TIP3    H251022   4.716   1.396   0.770 -0.9172 -3.1788  0.3310
 8943TIP3   OH251023   3.961   1.945   1.766  0.5310  0.2886  0.6236
 8943TIP3    H151024   3.999   1.975   1.849  0.0227  0.8423  0.6634
 8943TIP3    H251025   3.976   1.851   1.766 -2.8135 -0.4450  3.1925
 8944TIP3   OH251026   2.233   4.428   2.598  0.0231  0.1420 -0.2311
 8944TIP3    H151027   2.177   4.351   2.585  1.3504 -0.6210 -1.6799
 8944TIP3    H251028   2.283   4.435   2.517  1.0915  1.5926  0.5206
 8945TIP3   OH251029   0.905   1.217   2.566  0.3375 -0.8789 -0.0098
 8945TIP3    H151030   0.874   1.127   2.580 -1.4350 -0.5970 -1.7753
 8945TIP3    H251031   0.922   1.222   2.472  0.6681  0.5709  0.1022
 8946TIP3   OH251032   3.121   3.636   1.616  0.0549 -0.8543  0.0511
 8946TIP3    H151033   3.033   3.646   1.580  0.1834 -0.4606 -0.1629
 8946TIP3    H251034   3.174   3.604   1.543  0.5300  0.8905 -0.4079
 8947TIP3   OH251035   2.803   4.737   2.041  0.1058  0.4975 -0.4653
 8947TIP3    H151036   2.883   4.741   2.093 -0.4075  0.2852  0.3602
 8947TIP3    H251037   2.784   4.829   2.020  0.8257  0.5162 -1.1000
 8948TIP3   OH251038   3.172   2.777   1.423 -0.4973  0.3003  0.0176
 8948TIP3    H151039   3.189   2.821   1.340 -1.4351  1.7158  0.5372
 8948TIP3    H251040   3.177   2.684   1.402 -0.2164  0.6254 -1.5085
 8949TIP3   OH251041   4.270   5.744   1.400  0.2986  0.3549  0.3892
 8949TIP3    H151042   4.337   5.711   1.461 -0.5314 -1.7696  0.2427
 8949TIP3    H251043   4.187   5.721   1.441 -0.3012  0.5318 -0.6964
 8950TIP3   OH251044   3.741   0.900   2.098  0.2919 -0.3783 -0.4874
 8950TIP3    H151045   3.685   0.977   2.084  1.7064  1.1814  1.8453
 8950TIP3    H251046   3.698   0.851   2.168  1.0887  0.1070  0.3640
 8951TIP3   OH251047   0.349   4.849   3.177 -0.4171  0.0540  0.2891
 8951TIP3    H151048   0.421   4.909   3.197 -0.0210 -0.4748  0.4553
 8951TIP3    H251049   0.294   4.850   3.255  0.2489 -0.7428  0.7767
 8952TIP3   OH251050   2.384   5.137   3.489 -0.8987 -0.0118  0.3281
 8952TIP3    H151051   2.388   5.154   3.395 -0.6211  2.3185  0.7044
 8952TIP3    H251052   2.467   5.093   3.509 -0.7764 -0.1355 -0.4437
 8953TIP3   OH251053   1.745   4.523   1.822 -0.1526 -0.0342 -1.0789
 8953TIP3    H151054   1.709   4.505   1.735 -0.6099 -1.5782 -0.6162
 8953TIP3    H251055   1.702   4.604   1.850  0.1771  0.6058 -2.3665
 8954TIP3   OH251056   2.760   3.414   2.674 -0.1457 -0.3831 -0.5119
 8954TIP3    H151057   2.738   3.322   2.659 -1.4597 -0.1486 -0.1356
 8954TIP3    H251058   2.676   3.457   2.690  0.2744  1.1737 -2.1256
 8955TIP3   OH251059   5.574   0.213   2.235  0.6775  0.4405 -0.0417
 8955TIP3    H151060   5.631   0.260   2.296  0.7409 -0.2096  0.4047
 8955TIP3    H251061   5.586   0.121   2.257 -1.0303  0.3159  0.4926
 8956TIP3   OH251062   7.170   4.507   0.513  0.6825 -0.0124  0.0442
 8956TIP3    H151063   7.230   4.444   0.474  0.8669  0.0158  0.2809
 8956TIP3    H251064   7.222   4.551   0.580  0.6575  0.6291 -0.3425
 8957TIP3   OH251065   1.728   5.912   1.503 -0.2270  0.8598  0.3586
 8957TIP3    H151066   1.697   5.837   1.453  1.2114 -0.6741  1.6333
 8957TIP3    H251067   1.649   5.958   1.530 -1.0913  0.6105 -1.6080
 8958TIP3   OH251068   3.914   1.975   2.487  0.1745  0.5454  0.5665
 8958TIP3    H151069   3.993   1.999   2.438  0.9079 -0.5194  1.1767
 8958TIP3    H251070   3.939   1.988   2.579 -0.2107 -0.2173  0.7840
 8959TIP3   OH251071   4.534   3.982   1.760 -0.2739  0.1663 -0.0091
 8959TIP3    H151072   4.530   3.889   1.740  0.2524  0.3724 -1.1485
 8959TIP3    H251073   4.606   4.015   1.707 -1.4230  1.5030 -0.8331
 8960TIP3   OH251074   7.471   4.325   1.242  0.2498 -0.2258  0.1096
 8960TIP3    H151075   7.558   4.350   1.273  1.4288 -2.1135 -1.4835
 8960TIP3    H251076   7.456   4.238   1.279 -0.8208 -0.0827  0.0499
 8961TIP3   OH251077   0.719   7.143   2.527  0.1267  0.5993  0.5730
 8961TIP3    H151078   0.687   7.227   2.497 -1.8628 -0.1543  0.4233
 8961TIP3    H251079   0.685   7.135   2.617 -0.9345 -0.6057  0.0995
 8962TIP3   OH251080   6.091   4.985   2.030  0.3572  0.0041  0.0521
 8962TIP3    H151081   6.003   4.947   2.024  1.8188 -3.7826 -0.0467
 8962TIP3    H251082   6.106   4.997   2.123 -0.1485  0.5391  0.0770
 8963TIP3   OH251083   3.177   4.554   1.167  0.8220  0.0581  0.2718
 8963TIP3    H151084   3.241   4.542   1.237  1.2568 -1.5542 -0.3542
 8963TIP3    H251085   3.229   4.555   1.086  0.3137  1.6924 -0.0711
 8964TIP3   OH251086   6.375   5.656   1.537  0.0307 -0.0565  0.7634
 8964TIP3    H151087   6.430   5.720   1.491 -0.0912  0.9449  1.9412
 8964TIP3    H251088   6.293   5.703   1.554 -0.3207 -0.7608  1.0495
 8965TIP3   OH251089   1.262   4.489   1.227 -0.7276  0.2392  0.1109
 8965TIP3    H151090   1.187   4.434   1.247 -1.5908  0.9538 -1.0539
 8965TIP3    H251091   1.299   4.453   1.147 -0.0404  0.1119  0.4798
 8966TIP3   OH251092   2.772   6.913   0.346 -0.0941  0.0041 -0.0471
 8966TIP3    H151093   2.716   6.904   0.424 -0.1016 -0.8485 -0.1417
 8966TIP3    H251094   2.712   6.900   0.273  0.1948 -0.7490 -0.1527
 8967TIP3   OH251095   6.650   0.684   2.083 -0.6022  0.0924  0.0472
 8967TIP3    H151096   6.638   0.720   2.171 -0.1778 -0.5407  0.3789
 8967TIP3    H251097   6.628   0.756   2.024 -3.1673 -0.1276  0.6117
 8968TIP3   OH251098   6.082   2.709   1.643  0.2711  0.1694  0.2008
 8968TIP3    H151099   6.055   2.730   1.732 -1.2269  0.9708 -0.3877
 8968TIP3    H251100   6.088   2.614   1.641 -0.5281  0.0915  0.9366
 8969TIP3   OH251101   6.843   1.025   1.945 -0.6631 -0.4316 -0.0134
 8969TIP3    H151102   6.855   0.973   1.865  0.6504  0.1797 -0.2237
 8969TIP3    H251103   6.914   0.996   2.003  1.4506  2.5372 -0.9073
 8970TIP3   OH251104   6.737   4.315   2.772  0.3073  0.1699  0.5280
 8970TIP3    H151105   6.823   4.336   2.807  0.3901  0.3273  0.2356
 8970TIP3    H251106   6.755   4.272   2.688  0.0930  0.8063  0.1459
 8971TIP3   OH251107   1.187   4.073   1.391  0.0443  0.1661 -0.5838
 8971TIP3    H151108   1.167   4.153   1.439  0.4875  0.6403 -1.1674
 8971TIP3    H251109   1.124   4.072   1.319 -0.2329 -0.2241 -0.3302
 8972TIP3   OH251110   1.754   5.958   2.060 -0.2724  0.2684  0.1706
 8972TIP3    H151111   1.726   5.981   1.971 -2.0994 -1.1357  0.3184
 8972TIP3    H251112   1.790   5.870   2.052 -0.1683  0.2512  0.7778
 8973TIP3   OH251113   5.166   5.027   2.478 -0.4952  0.4121  0.0290
 8973TIP3    H151114   5.218   4.947   2.473  0.9122  1.3507 -1.0744
 8973TIP3    H251115   5.145   5.048   2.387 -2.0383  0.5757  0.3963
 8974TIP3   OH251116   1.467   3.616   1.332  0.2321  0.1643  0.2995
 8974TIP3    H151117   1.459   3.594   1.239  1.9187  0.6727 -0.0018
 8974TIP3    H251118   1.395   3.678   1.348 -1.0120 -1.0712 -0.2512
 8975TIP3   OH251119   6.370   5.786   2.495  0.2526  0.6453  0.7553
 8975TIP3    H151120   6.318   5.724   2.444  1.5066 -0.0204  0.2400
 8975TIP3    H251121   6.316   5.805   2.572 -2.2834  2.6612 -1.3109
 8976TIP3   OH251122   4.522   1.178   0.705  0.3277  0.1607 -0.0799
 8976TIP3    H151123   4.566   1.223   0.633 -0.4181 -0.6012 -1.0503
 8976TIP3    H251124   4.582   1.185   0.779  0.9130  1.3532 -0.6451
 8977TIP3   OH251125   3.125   2.499   1.064  0.3424 -0.2399 -0.2305
 8977TIP3    H151126   3.195   2.452   1.019 -0.5776 -0.5994 -1.3193
 8977TIP3    H251127   3.050   2.494   1.005 -0.4602  0.5970  0.6738
 8978TIP3   OH251128   0.167   1.512   2.460 -0.2543  0.0468  0.1036
 8978TIP3    H151129   0.246   1.469   2.428 -1.7393 -2.0988 -0.8761
 8978TIP3    H251130   0.147   1.469   2.543  0.0784  1.2298  0.8225
 8979TIP3   OH251131   7.255   5.604   1.417  0.0926 -0.4536 -0.1839
 8979TIP3    H151132   7.213   5.526   1.453  0.4100 -0.6555 -0.2463
 8979TIP3    H251133   7.258   5.588   1.322 -0.5416 -0.0219 -0.2867
 8980TIP3   OH251134   1.630   6.647   2.246 -0.1875  0.0143  0.4458
 8980TIP3    H151135   1.619   6.717   2.309 -1.4149  1.1105 -0.9416
 8980TIP3    H251136   1.724   6.625   2.251  0.3217  2.0559  0.5947
 8981TIP3   OH251137   1.409   3.915   0.411 -0.6148 -0.1931 -0.0537
 8981TIP3    H151138   1.483   3.883   0.360 -0.3092 -2.0088  1.4239
 8981TIP3    H251139   1.447   3.939   0.496 -1.3401  1.3360 -0.1339
 8982TIP3   OH251140   3.169   1.537   2.339 -0.4231 -0.3172  0.0715
 8982TIP3    H151141   3.087   1.558   2.295  0.5520  2.6805 -0.5209
 8982TIP3    H251142   3.201   1.621   2.373  3.1395 -1.0589 -1.0431
 8983TIP3   OH251143   6.692   5.129   1.568  0.2123  0.0545  0.3578
 8983TIP3    H151144   6.633   5.200   1.592 -0.4268 -0.7507  1.2632
 8983TIP3    H251145   6.650   5.050   1.602  1.3065 -0.6667  0.1054
 8984TIP3   OH251146   7.315   5.385   1.245 -0.3348  0.5385 -0.1779
 8984TIP3    H151147   7.302   5.423   1.158 -0.5749 -0.0304 -0.4017
 8984TIP3    H251148   7.227   5.380   1.283 -0.1739  1.2334  0.2970
 8985TIP3   OH251149   0.951   6.970   2.884  0.2839 -0.2016  0.6900
 8985TIP3    H151150   0.913   6.913   2.817  1.8793 -0.8555  0.3027
 8985TIP3    H251151   1.037   6.932   2.903  0.8052  1.2619  1.4723
 8986TIP3   OH251152   1.874   0.365   2.153  0.2127  0.6842  0.3663
 8986TIP3    H151153   1.812   0.325   2.093  0.3341  0.3848  0.4391
 8986TIP3    H251154   1.885   0.454   2.120  0.4027  0.4736 -0.1538
 8987TIP3   OH251155   5.763   2.863   2.456  0.3385 -0.4145  0.2023
 8987TIP3    H151156   5.848   2.828   2.483  0.6123  1.1700  1.5665
 8987TIP3    H251157   5.700   2.799   2.489  0.8144  0.2945  2.7009
 8988TIP3   OH251158   6.802   3.664   1.091 -0.2986 -0.0246 -0.1498
 8988TIP3    H151159   6.820   3.655   0.997 -0.2316  1.0379 -0.2527
 8988TIP3    H251160   6.741   3.593   1.110  0.3403 -0.7745 -0.8073
 8989TIP3   OH251161   0.866   6.956   2.423 -0.4926 -0.1421 -0.1536
 8989TIP3    H151162   0.954   6.992   2.437 -0.7179  0.7181 -0.8380
 8989TIP3    H251163   0.808   7.016   2.470 -0.6172 -1.6024  1.6545
 8990TIP3   OH251164   5.667   2.195   1.992  0.8675  0.0232 -0.0750
 8990TIP3    H151165   5.698   2.201   2.082  3.1655 -2.5235 -0.5575
 8990TIP3    H251166   5.666   2.286   1.960  1.3592  0.8299  2.0611
 8991TIP3   OH251167   0.217   2.700   1.614 -0.2474  0.3783 -0.0899
 8991TIP3    H151168   0.215   2.659   1.528  1.0005 -1.2026  0.5815
 8991TIP3    H251169   0.189   2.631   1.674 -0.6559  1.3165  0.8238
 8992TIP3   OH251170   5.576   0.930   0.886  0.1559 -0.0368  0.2910
 8992TIP3    H151171   5.660   0.884   0.888 -0.1668 -0.6231  0.3612
 8992TIP3    H251172   5.562   0.950   0.793  0.4554  0.2326  0.2977
 8993TIP3   OH251173   5.309   4.961   0.834  0.1410 -0.1945  0.6962
 8993TIP3    H151174   5.275   4.961   0.744  1.3450 -0.4014  0.2172
 8993TIP3    H251175   5.377   4.893   0.834  0.5439  0.1884  1.6109
 8994TIP3   OH251176   1.431   4.216   0.510  0.5941 -0.2371 -0.5014
 8994TIP3    H151177   1.454   4.285   0.571 -0.2720  0.5325 -1.0299
 8994TIP3    H251178   1.427   4.259   0.424  2.0943 -1.3514 -1.1868
 8995TIP3   OH251179   0.301   4.332   2.577 -0.3034 -0.5018 -0.4832
 8995TIP3    H151180   0.326   4.295   2.662 -0.3447  2.0071  0.7082
 8995TIP3    H251181   0.213   4.298   2.561 -0.3373 -0.9260  0.5333
 8996TIP3   OH251182   0.885   3.579   0.433  0.0109 -0.3267 -0.1930
 8996TIP3    H151183   0.945   3.575   0.507 -2.2957  0.3697  1.8320
 8996TIP3    H251184   0.927   3.639   0.371 -0.4870  3.8744  3.1095
 8997TIP3   OH251185   5.253   7.297   0.873 -0.0845  0.4273  0.1535
 8997TIP3    H151186   5.324   7.254   0.825 -0.5140 -0.4210  0.2595
 8997TIP3    H251187   5.280   7.389   0.878  1.3951 -0.0280  0.9358
 8998TIP3   OH251188   1.799   1.379   1.351 -0.1525  0.0099 -0.3702
 8998TIP3    H151189   1.865   1.312   1.369  0.4982  0.8951  0.7032
 8998TIP3    H251190   1.723   1.353   1.403  0.7924  1.1124  1.6940
 8999TIP3   OH251191   5.486   3.644   1.894  0.1400  0.3489 -0.6570
 8999TIP3    H151192   5.436   3.646   1.976  1.2475  1.1197  0.0446
 8999TIP3    H251193   5.439   3.583   1.838 -2.6222  2.3437 -0.7342
 9000TIP3   OH251194   0.010   7.552   1.680  0.0160 -0.4360 -0.3362
 9000TIP3    H151195  -0.079   7.516   1.680 -0.1851  0.0222 -1.4910
 9000TIP3    H251196   0.062   7.489   1.630 -0.3868  0.9056 -2.5726
 9001TIP3   OH251197   3.520   4.597   2.056 -0.0318  0.3546  0.1037
 9001TIP3    H151198   3.529   4.624   2.148 -1.0246  0.9048  0.0604
 9001TIP3    H251199   3.476   4.671   2.015 -0.2543 -0.1974 -0.6595
 9002TIP3   OH251200   4.403   5.178   0.864  0.1547 -0.2896  0.6658
 9002TIP3    H151201   4.308   5.177   0.854  0.1451  0.7003  0.5290
 9002TIP3    H251202   4.417   5.212   0.952  0.3620 -2.7538  1.6670
 9003TIP3   OH251203   2.159   0.633   1.010  0.9669 -0.6262  0.1108
 9003TIP3    H151204   2.223   0.695   0.977  1.5589 -1.7212 -0.8835
 9003TIP3    H251205   2.211   0.570   1.060  0.2252  0.3524  2.2231
 9004TIP3   OH251206   2.310   5.823   2.379 -0.2795 -0.0566  0.2734
 9004TIP3    H151207   2.296   5.738   2.423 -1.5184 -0.6423 -1.1757
 9004TIP3    H251208   2.337   5.799   2.290  2.4733  1.1089  0.6871
 9005TIP3   OH251209   3.293   3.404   0.433  0.5249 -0.4290 -0.1135
 9005TIP3    H151210   3.372   3.356   0.410  1.2938  0.3648  0.7381
 9005TIP3    H251211   3.260   3.439   0.350  1.5143 -0.1296 -0.3957
 9006TIP3   OH251212   6.093   7.594   1.701  1.1254  0.6492 -0.1457
 9006TIP3    H151213   6.118   7.672   1.652  1.9817  0.1670 -0.4933
 9006TIP3    H251214   6.141   7.601   1.783  1.0919  0.5588 -0.1185
 9007TIP3   OH251215   3.834   2.550   2.005  0.2559 -0.0891  0.1902
 9007TIP3    H151216   3.801   2.528   2.092 -1.4556 -0.8030 -0.5916
 9007TIP3    H251217   3.805   2.478   1.949  1.5246  0.2382 -0.9390
 9008TIP3   OH251218   3.079   6.719   0.638 -0.2121  0.0885  0.6772
 9008TIP3    H151219   3.171   6.728   0.664 -0.5711 -0.3509  2.2338
 9008TIP3    H251220   3.066   6.625   0.630 -0.4306  0.1706  0.0628
 9009TIP3   OH251221   6.489   7.328   2.013  0.7599 -0.4870 -0.6309
 9009TIP3    H151222   6.571   7.374   2.029  0.5495 -1.0555  2.6750
 9009TIP3    H251223   6.452   7.312   2.100 -1.9223 -1.9636 -1.9030
 9010TIP3   OH251224   1.230   3.046   3.338 -0.5073 -0.2114  0.0292
 9010TIP3    H151225   1.186   3.058   3.254 -0.4739  1.0574  0.1769
 9010TIP3    H251226   1.317   3.086   3.325 -0.6357  0.3266  0.7698
 9011TIP3   OH251227   4.202   7.489   2.535 -0.3266 -0.1123 -0.4284
 9011TIP3    H151228   4.269   7.542   2.580 -0.2932 -0.0530 -0.5481
 9011TIP3    H251229   4.242   7.467   2.451 -0.0895 -0.8512 -0.1367
 9012TIP3   OH251230   4.089   5.240   1.278 -0.2463  0.2544  0.0782
 9012TIP3    H151231   4.048   5.181   1.341 -0.1437 -0.8143 -0.8148
 9012TIP3    H251232   4.148   5.294   1.330  2.6859 -3.0461  0.5871
 9013TIP3   OH251233   2.048   4.381   2.243  0.1648 -0.6814 -0.0270
 9013TIP3    H151234   1.970   4.325   2.250 -0.1467 -0.3698 -0.9514
 9013TIP3    H251235   2.121   4.322   2.263 -0.4145 -0.4219  3.4492
 9014TIP3   OH251236   1.432   5.550   2.695  0.0714  0.2634  0.3661
 9014TIP3    H151237   1.433   5.607   2.618  1.1524 -0.3893 -0.1338
 9014TIP3    H251238   1.514   5.569   2.740 -0.2078  0.0970  0.9541
 9015TIP3   OH251239   6.154   4.330   2.705 -0.0547 -0.0085 -0.6274
 9015TIP3    H151240   6.154   4.420   2.673 -1.3587 -0.2506 -1.3564
 9015TIP3    H251241   6.074   4.323   2.757  1.6520  0.1809  2.2509
 9016TIP3   OH251242   6.762   0.022   1.116 -0.2384 -0.6244  0.0228
 9016TIP3    H151243   6.831  -0.041   1.139 -1.3257 -1.2637  1.7994
 9016TIP3    H251244   6.798   0.072   1.043  1.8077 -1.4076  0.4239
 9017TIP3   OH251245   0.070   6.451   2.173 -0.1172 -0.8184  0.2011
 9017TIP3    H151246   0.009   6.512   2.215 -0.4424 -2.2770  2.0115
 9017TIP3    H251247   0.014   6.391   2.124  0.0572 -0.7558 -0.0765
 9018TIP3   OH251248   1.435   5.265   3.182 -0.3524 -0.2412  0.2704
 9018TIP3    H151249   1.432   5.176   3.217 -0.1384  0.0834  1.1432
 9018TIP3    H251250   1.482   5.257   3.099  1.4519 -0.6683  1.2824
 9019TIP3   OH251251   1.543   0.974   1.183 -0.2421  0.5260  0.0106
 9019TIP3    H151252   1.461   1.021   1.170  0.2682  0.9164 -2.0784
 9019TIP3    H251253   1.611   1.035   1.153  0.6575 -0.5280 -0.1468
 9020TIP3   OH251254   6.720   3.329   0.481  0.2176 -0.3140 -0.1304
 9020TIP3    H151255   6.654   3.270   0.518  0.5734 -0.2686  0.5863
 9020TIP3    H251256   6.706   3.323   0.386 -0.4281 -0.7555 -0.0185
 9021TIP3   OH251257   3.030   3.917   2.666 -0.1430 -0.0611 -0.1056
 9021TIP3    H151258   2.992   3.829   2.667 -2.8099  0.9841 -0.3562
 9021TIP3    H251259   3.069   3.927   2.753 -0.1652 -1.3335  0.0761
 9022TIP3   OH251260   6.865   4.321   1.045 -0.3799  0.2500 -0.3151
 9022TIP3    H151261   6.820   4.380   1.107 -0.1049  1.7205 -1.4618
 9022TIP3    H251262   6.947   4.366   1.024  1.7638 -2.3682  1.7256
 9023TIP3   OH251263   3.066   3.739   0.524 -0.1594 -0.4085  0.4814
 9023TIP3    H151264   3.087   3.832   0.530 -1.2828 -0.1061 -0.0583
 9023TIP3    H251265   2.977   3.736   0.489  0.5257 -1.7223 -1.3184
 9024TIP3   OH251266   4.259   3.584   2.589  0.1978  0.4113 -0.1232
 9024TIP3    H151267   4.183   3.527   2.574 -0.1111  0.1302  2.1502
 9024TIP3    H251268   4.295   3.553   2.672  1.7367  1.7162 -0.2778
 9025TIP3   OH251269   0.224   1.754   2.614  0.9384 -0.6729 -0.5277
 9025TIP3    H151270   0.201   1.710   2.532 -0.2653 -0.3816 -0.3534
 9025TIP3    H251271   0.192   1.695   2.682  0.4736 -0.1329 -0.2828
 9026TIP3   OH251272   7.518   0.580   1.931 -0.3431 -0.1273 -0.2765
 9026TIP3    H151273   7.612   0.583   1.948 -0.3631  0.0849 -0.2032
 9026TIP3    H251274   7.506   0.633   1.852 -0.4373  0.0602 -0.1346
 9027TIP3   OH251275   3.657   5.861   1.498  0.6606 -0.2477  0.8845
 9027TIP3    H151276   3.618   5.777   1.520  1.2015 -0.6284  0.4122
 9027TIP3    H251277   3.694   5.893   1.580  1.9677 -1.2808  0.7274
 9028TIP3   OH251278   5.238   5.528   2.270 -0.2405 -0.1940 -0.3603
 9028TIP3    H151279   5.250   5.434   2.287  1.2040 -0.4264 -2.2777
 9028TIP3    H251280   5.143   5.539   2.263 -0.3777 -1.9660 -2.1941
 9029TIP3   OH251281   2.249   6.953   1.524 -0.1645 -0.5015  0.4049
 9029TIP3    H151282   2.317   6.948   1.591 -0.4957 -1.1187  0.7057
 9029TIP3    H251283   2.297   6.956   1.441  0.2329 -0.8091  0.6205
 9030TIP3   OH251284   4.656   3.190   1.223 -0.3555  0.0005  0.4720
 9030TIP3    H151285   4.698   3.144   1.296 -1.1778  0.7106  1.4168
 9030TIP3    H251286   4.717   3.260   1.201  0.8062 -1.3405 -0.8349
 9031TIP3   OH251287   5.579   2.725   0.541 -0.5585 -0.2830  0.3299
 9031TIP3    H151288   5.514   2.790   0.566 -0.1866 -0.1269  0.9386
 9031TIP3    H251289   5.558   2.649   0.595 -0.9981 -0.6751 -0.3864
 9032TIP3   OH251290   6.897   2.905   1.183 -0.4029 -0.5136 -0.4506
 9032TIP3    H151291   6.851   2.831   1.142 -1.1238  0.4405 -1.4119
 9032TIP3    H251292   6.847   2.923   1.263  0.3134 -1.6204  0.2825
 9033TIP3   OH251293   6.704   5.028   0.823  0.3971 -0.0911  0.2095
 9033TIP3    H151294   6.616   5.008   0.855  0.4195 -0.5425 -0.0025
 9033TIP3    H251295   6.733   4.947   0.781 -0.3208  0.9630 -2.5447
 9034TIP3   OH251296   0.716   0.770   1.134 -0.3129  0.0315 -0.0986
 9034TIP3    H151297   0.760   0.695   1.175  0.1195 -0.1276 -0.8262
 9034TIP3    H251298   0.702   0.743   1.044 -1.1872  0.4037 -0.0864
 9035TIP3   OH251299   7.131   0.703   2.047 -0.3727  0.1374  0.8792
 9035TIP3    H151300   7.043   0.739   2.057 -0.7026 -0.5890  0.6549
 9035TIP3    H251301   7.175   0.764   1.988 -1.2145 -0.3136 -0.2347
 9036TIP3   OH251302   4.246   5.456   2.464 -0.0342 -0.3578  0.2148
 9036TIP3    H151303   4.322   5.460   2.523 -1.3734 -1.7786  2.1836
 9036TIP3    H251304   4.269   5.388   2.400  0.5325 -0.4804  0.5385
 9037TIP3   OH251305   4.554   6.114   2.901  0.1553  0.0740  0.0109
 9037TIP3    H151306   4.581   6.056   2.831  0.4764  0.1171  0.1000
 9037TIP3    H251307   4.506   6.058   2.962  0.9819 -0.2219  0.3990
 9038TIP3   OH251308   5.882   2.232   1.523 -0.8933 -0.2924 -0.0060
 9038TIP3    H151309   5.842   2.263   1.442 -1.4264 -0.3221  0.2474
 9038TIP3    H251310   5.810   2.195   1.574 -0.5489 -0.3550  0.4467
 9039TIP3   OH251311   2.114   4.779   1.706  0.2190 -0.1300  0.6797
 9039TIP3    H151312   2.143   4.710   1.766 -0.3367 -0.5033  0.5259
 9039TIP3    H251313   2.195   4.817   1.672  0.5398  0.0111  1.5762
 9040TIP3   OH251314   5.754   2.363   1.782 -0.7064  0.2423 -0.5753
 9040TIP3    H151315   5.713   2.427   1.724 -3.1286  1.6532  2.4176
 9040TIP3    H251316   5.800   2.416   1.847  0.1454 -1.1839  0.0234
 9041TIP3   OH251317   6.801   7.168   2.512 -0.1262  0.1093 -0.3036
 9041TIP3    H151318   6.822   7.096   2.571  0.5990  0.5346 -0.0321
 9041TIP3    H251319   6.774   7.125   2.431  2.0505 -0.5061 -0.7774
 9042TIP3   OH251320   5.160   6.449   2.640 -0.4401  0.4661 -0.1850
 9042TIP3    H151321   5.086   6.508   2.652 -0.8967  0.5306 -2.8621
 9042TIP3    H251322   5.237   6.502   2.664 -1.1090  0.8329  1.2608
 9043TIP3   OH251323   0.745   0.880   3.026 -0.3350 -0.3558 -0.0882
 9043TIP3    H151324   0.781   0.939   3.092  0.2982  1.3141 -1.8450
 9043TIP3    H251325   0.816   0.867   2.963 -0.5912 -2.7119  0.0133
 9044TIP3   OH251326   6.556   0.312   0.624  0.5436  0.2394 -0.0178
 9044TIP3    H151327   6.518   0.390   0.585 -0.5229 -0.1413  0.2440
 9044TIP3    H251328   6.605   0.271   0.552 -0.4270  0.1737 -0.6548
 9045TIP3   OH251329   1.571   3.728   2.216 -0.0014  0.4864  0.5844
 9045TIP3    H151330   1.586   3.821   2.232  2.4667  0.6335 -1.7886
 9045TIP3    H251331   1.479   3.723   2.190 -0.4009  2.1060  1.5170
 9046TIP3   OH251332   4.888   4.108   2.643 -0.1653 -0.0314  0.2575
 9046TIP3    H151333   4.843   4.180   2.689  0.4792 -0.2135  1.2014
 9046TIP3    H251334   4.969   4.095   2.692  1.2530  0.6838 -1.7618
 9047TIP3   OH251335   6.873   6.844   2.158  0.6638 -0.5462  0.1303
 9047TIP3    H151336   6.915   6.803   2.233  0.6882 -0.0487  0.3937
 9047TIP3    H251337   6.872   6.938   2.179 -3.1346 -0.6973  1.4662
 9048TIP3   OH251338   6.029   7.453   2.081  0.6502  0.1020 -0.2714
 9048TIP3    H151339   6.096   7.392   2.111  0.0717  0.0138  0.8818
 9048TIP3    H251340   6.068   7.540   2.092  1.9266 -0.0252 -3.0133
 9049TIP3   OH251341   6.035   3.762   1.238 -0.4194 -0.5673  0.2848
 9049TIP3    H151342   6.117   3.713   1.243 -0.0463 -0.0576 -0.6164
 9049TIP3    H251343   6.062   3.854   1.232 -0.8705 -0.5275 -3.0233
 9050TIP3   OH251344   3.657   7.138   2.125  0.4408  0.5457 -0.1160
 9050TIP3    H151345   3.698   7.060   2.162 -0.7141 -0.9711 -1.8689
 9050TIP3    H251346   3.707   7.157   2.046 -1.3363 -0.6057 -1.6178
 9051TIP3   OH251347   3.063   1.774   1.181  0.1446  0.2464  0.3174
 9051TIP3    H151348   3.037   1.861   1.149  0.1069 -0.5655 -2.0152
 9051TIP3    H251349   3.112   1.735   1.109 -0.4494 -1.9460  1.0232
 9052TIP3   OH251350   0.044   5.055   2.070 -0.5982  0.2254 -0.2074
 9052TIP3    H151351   0.028   5.114   2.144  0.4984  0.0047  0.2222
 9052TIP3    H251352   0.065   4.971   2.110  1.1313  0.3795 -0.7071
 9053TIP3   OH251353   1.653   5.278   3.021 -0.3440 -0.5027  0.1775
 9053TIP3    H151354   1.593   5.287   2.947 -1.3559 -0.7012  0.9561
 9053TIP3    H251355   1.698   5.195   3.005 -1.0532 -0.8854  0.1312
 9054TIP3   OH251356   1.498   6.035   1.608 -0.6011  0.4710  0.5207
 9054TIP3    H151357   1.421   6.024   1.663 -1.4684 -1.6109 -0.9706
 9054TIP3    H251358   1.472   6.099   1.542 -2.2465 -2.2889 -1.7289
 9055TIP3   OH251359   0.607   5.423   3.557  0.7687 -0.5909  0.0075
 9055TIP3    H151360   0.614   5.508   3.601 -0.0786 -2.2608  3.7743
 9055TIP3    H251361   0.693   5.383   3.568  0.8443 -0.6727 -0.8026
 9056TIP3   OH251362   2.984   2.016   1.677 -0.0964 -0.0207  0.1839
 9056TIP3    H151363   3.025   2.088   1.629 -1.3749  1.3124  1.0263
 9056TIP3    H251364   2.910   1.989   1.622  1.4649 -2.0710 -1.0778
 9057TIP3   OH251365   0.635   1.052   1.976  0.0230 -0.1938  0.2129
 9057TIP3    H151366   0.552   1.005   1.963  0.7981 -1.0304 -2.3225
 9057TIP3    H251367   0.612   1.126   2.032 -2.2337 -0.9286  0.3642
 9058TIP3   OH251368   6.420   0.670   0.956  0.3862 -0.1388  0.5271
 9058TIP3    H151369   6.363   0.599   0.984  2.5218 -2.0914  0.1837
 9058TIP3    H251370   6.458   0.704   1.037 -1.6839  1.6723  0.8332
 9059TIP3   OH251371   1.588   6.457   2.043 -0.2389 -0.2226 -0.6478
 9059TIP3    H151372   1.592   6.524   2.112 -1.2989 -2.1556  1.3987
 9059TIP3    H251373   1.672   6.411   2.049 -0.5885 -0.8092 -0.1892
 9060TIP3   OH251374   2.547   2.484   0.566 -0.1564 -0.3264 -0.0820
 9060TIP3    H151375   2.470   2.533   0.537  1.9569  3.1291 -0.3931
 9060TIP3    H251376   2.544   2.491   0.662  1.0389  2.2081 -0.1465
 9061TIP3   OH251377   4.980   7.064   2.110  0.0528 -0.4849  0.5562
 9061TIP3    H151378   5.055   7.045   2.055  0.1692 -0.7276  0.7943
 9061TIP3    H251379   4.941   6.978   2.128 -0.5073 -0.3322  0.1195
 9062TIP3   OH251380   5.370   0.697   2.308  0.3541  0.2135 -0.3787
 9062TIP3    H151381   5.350   0.775   2.258  0.8908 -1.5971 -3.7292
 9062TIP3    H251382   5.466   0.688   2.302  0.4389 -0.0848  1.0145
 9063TIP3   OH251383   6.507   2.376   1.870  0.7532  0.1837  0.1868
 9063TIP3    H151384   6.482   2.284   1.882 -0.2126  0.3565 -0.3490
 9063TIP3    H251385   6.506   2.389   1.775  1.6106  0.5586  0.2246
 9064TIP3   OH251386   1.196   6.564   3.333 -0.0352  0.3939  0.9159
 9064TIP3    H151387   1.272   6.509   3.351 -1.1536 -0.9989  1.5040
 9064TIP3    H251388   1.186   6.617   3.412 -0.7872 -0.7772  1.6303
 9065TIP3   OH251389   0.231   1.365   0.725 -0.1598  0.3505 -0.1763
 9065TIP3    H151390   0.244   1.372   0.820 -0.4682 -1.4476  0.0218
 9065TIP3    H251391   0.137   1.352   0.714 -0.2715  1.5423 -0.8249
 9066TIP3   OH251392   0.797   5.492   2.390 -0.2327  0.0067  0.0709
 9066TIP3    H151393   0.824   5.573   2.345  0.8646 -0.9614 -1.1296
 9066TIP3    H251394   0.709   5.475   2.357  0.6755 -0.8738 -2.1380
 9067TIP3   OH251395   7.553   3.280   1.946 -0.1299  0.1196  0.2679
 9067TIP3    H151396   7.471   3.245   1.911 -0.6006  1.8242 -0.4985
 9067TIP3    H251397   7.621   3.224   1.909 -0.9197 -1.2588  0.8305
 9068TIP3   OH251398   6.745   1.541   1.764  0.3582 -0.2932  0.1388
 9068TIP3    H151399   6.752   1.447   1.778  0.9933 -0.6609 -2.1867
 9068TIP3    H251400   6.834   1.574   1.776  1.0546 -0.7104 -3.0164
 9069TIP3   OH251401   4.651   3.405   1.924  0.3571  0.9132 -1.1578
 9069TIP3    H151402   4.659   3.441   1.836 -1.3207 -1.7629 -2.5620
 9069TIP3    H251403   4.560   3.377   1.930  0.4439  0.9655  1.4501
 9070TIP3   OH251404   5.257   6.087   1.332 -0.0716  0.0266 -0.4084
 9070TIP3    H151405   5.331   6.045   1.376 -0.1809 -1.0426 -1.1978
 9070TIP3    H251406   5.269   6.180   1.350  1.5643 -0.0990 -0.6529
 9071TIP3   OH251407   3.168   6.922   1.527 -0.7149  0.5512  0.0151
 9071TIP3    H151408   3.157   6.832   1.496  0.3697  0.4279 -0.0266
 9071TIP3    H251409   3.222   6.964   1.460 -0.0571  0.8423  0.7160
 9072TIP3   OH251410   0.395   7.503   0.639 -0.1435  0.2179  0.6357
 9072TIP3    H151411   0.309   7.546   0.641 -0.3974 -0.1337 -0.9234
 9072TIP3    H251412   0.449   7.561   0.586  0.8292  0.7997  2.2062
 9073TIP3   OH251413   4.918   5.322   1.872 -0.0950  0.2411 -0.1518
 9073TIP3    H151414   4.940   5.409   1.837 -0.7889  0.5447  0.1491
 9073TIP3    H251415   4.957   5.322   1.960 -1.5124  0.9011  0.5075
 9074TIP3   OH251416   3.184   3.860   1.374  0.0343 -0.0425  0.1261
 9074TIP3    H151417   3.205   3.844   1.282 -1.9754  1.1708 -0.6028
 9074TIP3    H251418   3.116   3.796   1.395  0.8910 -0.7020  0.9788
 9075TIP3   OH251419   1.491   1.427   1.804 -0.0783  0.0766 -0.3953
 9075TIP3    H151420   1.427   1.359   1.823 -0.2743  0.7962  1.8316
 9075TIP3    H251421   1.487   1.486   1.879  2.0681  1.0258 -0.9350
 9076TIP3   OH251422   4.708   0.354   0.803  0.3849 -0.1467  0.4227
 9076TIP3    H151423   4.693   0.277   0.857  3.1799 -0.1769  1.3273
 9076TIP3    H251424   4.766   0.324   0.734 -0.6929  0.5890 -0.8400
 9077TIP3   OH251425   3.082   0.344   3.258  0.3688  0.1633 -0.0023
 9077TIP3    H151426   3.001   0.387   3.285 -0.5384 -1.2893 -0.2999
 9077TIP3    H251427   3.061   0.250   3.257  1.8696 -0.2070 -0.6998
 9078TIP3   OH251428   2.865   3.729   0.743  0.8029  0.5573 -0.3328
 9078TIP3    H151429   2.865   3.741   0.838  0.1061 -0.7790 -0.1263
 9078TIP3    H251430   2.825   3.643   0.731 -1.2998  1.6620 -1.9505
 9079TIP3   OH251431   1.724   0.935   2.303 -0.2789 -0.3131  0.4230
 9079TIP3    H151432   1.698   1.003   2.241 -0.9745 -2.2581 -1.5187
 9079TIP3    H251433   1.651   0.931   2.365 -1.1795 -0.6231 -0.6225
 9080TIP3   OH251434   4.320   2.467   1.982 -0.2610 -0.1958  0.1966
 9080TIP3    H151435   4.349   2.376   1.990  1.4412  0.4580  2.1507
 9080TIP3    H251436   4.361   2.498   1.901  0.0100 -0.8445  0.0734
 9081TIP3   OH251437   1.409   1.169   1.865 -0.0900  0.0006  0.0465
 9081TIP3    H151438   1.409   1.167   1.770 -0.2117  1.8878 -0.0316
 9081TIP3    H251439   1.484   1.115   1.891  1.4874  1.4838 -1.2090
 9082TIP3   OH251440   1.407   0.751   0.699 -0.2199 -0.4338  0.7262
 9082TIP3    H151441   1.396   0.822   0.762  0.9737 -1.5962  2.3320
 9082TIP3    H251442   1.486   0.705   0.728 -0.6557 -2.0979 -0.5556
 9083TIP3   OH251443   2.953   0.494   3.005  0.2809 -0.4874 -0.4262
 9083TIP3    H151444   2.917   0.583   3.009 -1.8489 -1.2399 -1.5453
 9083TIP3    H251445   3.046   0.506   3.025  0.6298  2.3387 -2.9143
 9084TIP3   OH251446   7.678   1.994   1.434  0.4429 -0.1601 -0.0416
 9084TIP3    H151447   7.654   2.082   1.405  1.3606  0.1901  0.2311
 9084TIP3    H251448   7.771   2.000   1.456  0.1456 -0.7868  1.5528
 9085TIP3   OH251449   1.307   0.650   3.083 -0.1998  0.0754 -0.2509
 9085TIP3    H151450   1.379   0.605   3.128  0.1436 -0.1082 -0.9695
 9085TIP3    H251451   1.231   0.635   3.140 -0.0761 -1.3600 -0.4250
 9086TIP3   OH251452   2.712   0.751   1.472 -0.0212 -0.2920 -0.3400
 9086TIP3    H151453   2.696   0.676   1.415 -1.7837  1.1433 -1.8668
 9086TIP3    H251454   2.634   0.755   1.528  0.7438 -0.4542  0.7488
 9087TIP3   OH251455   5.926   3.362   1.158  0.1012 -0.2927  0.8736
 9087TIP3    H151456   5.958   3.332   1.243 -1.1829 -0.2937  1.3787
 9087TIP3    H251457   5.924   3.283   1.104  1.2225 -0.2357  0.7310
 9088TIP3   OH251458   2.880   6.981   3.487  0.0458  0.2791  0.1449
 9088TIP3    H151459   2.961   6.967   3.437 -0.7369  1.1605 -1.4507
 9088TIP3    H251460   2.902   7.049   3.550  1.1749 -1.1590  1.3732
 9089TIP3   OH251461   6.025   1.093   2.145  0.7085  0.7153 -0.2390
 9089TIP3    H151462   5.956   1.131   2.090 -1.0659  2.2218  2.7641
 9089TIP3    H251463   6.073   1.168   2.179  0.2035  0.0720  2.0801
 9090TIP3   OH251464   4.732   3.888   0.792  0.2095  0.2926 -0.5517
 9090TIP3    H151465   4.780   3.808   0.812 -0.0103 -0.0194 -1.2483
 9090TIP3    H251466   4.648   3.858   0.757  0.1099  0.8242 -0.7794
 9091TIP3   OH251467   6.311   6.864   1.907 -0.3194 -0.1043 -0.1017
 9091TIP3    H151468   6.284   6.953   1.886 -0.0613 -0.4677 -2.1875
 9091TIP3    H251469   6.351   6.831   1.826 -1.9343 -2.6991  0.0380
 9092TIP3   OH251470   6.782   0.232   2.718  0.0867 -0.0003  0.1949
 9092TIP3    H151471   6.755   0.140   2.720  0.8019 -0.2647 -1.3762
 9092TIP3    H251472   6.862   0.235   2.771  0.6207 -0.4943 -0.5658
 9093TIP3   OH251473   3.830   6.539   1.449  0.5589  0.2494 -0.1172
 9093TIP3    H151474   3.841   6.444   1.456 -1.5651 -0.0793 -0.6066
 9093TIP3    H251475   3.780   6.562   1.527 -0.3610  0.6813 -0.8169
 9094TIP3   OH251476   4.251   1.836   0.680 -0.9145 -0.4293  0.0450
 9094TIP3    H151477   4.213   1.869   0.762 -1.3279  1.7335 -0.9337
 9094TIP3    H251478   4.180   1.786   0.639 -1.1716 -0.3445  0.3831
 9095TIP3   OH251479   4.673   6.793   2.051 -0.4562 -0.9206  0.0430
 9095TIP3    H151480   4.703   6.736   2.123 -0.3380 -1.4607 -0.4225
 9095TIP3    H251481   4.622   6.861   2.094  0.2876 -0.7713  0.7251
 9096TIP3   OH251482   2.138   5.546   1.559  0.4128  0.1089 -0.6147
 9096TIP3    H151483   2.222   5.581   1.530  0.8938 -1.0300 -0.6463
 9096TIP3    H251484   2.100   5.616   1.612  1.8862  0.2146  0.3506
 9097TIP3   OH251485   6.231   1.043   0.599  0.1987 -0.6376  0.1647
 9097TIP3    H151486   6.257   0.993   0.676 -1.0538 -2.0721 -0.2829
 9097TIP3    H251487   6.181   0.980   0.546  1.3493  0.1835 -2.0072
 9098TIP3   OH251488   0.282   7.066   1.105 -0.3947 -0.0091 -0.2832
 9098TIP3    H151489   0.328   7.149   1.122 -1.0246  0.0204  1.5360
 9098TIP3    H251490   0.344   6.998   1.131 -0.4655 -0.0461 -0.2087
 9099TIP3   OH251491   0.946   1.677   1.906 -0.2796 -0.6869 -0.1220
 9099TIP3    H151492   1.026   1.660   1.955 -0.6458 -1.3237  0.2755
 9099TIP3    H251493   0.976   1.713   1.823  0.3894 -0.4170  0.2262
 9100TIP3   OH251494   7.656   1.978   3.110 -0.3157  0.1430 -0.0222
 9100TIP3    H151495   7.637   2.036   3.037 -0.1439  0.1769 -0.0414
 9100TIP3    H251496   7.588   1.996   3.175  0.9298  1.9070  0.8793
 9101TIP3   OH251497   1.798   5.211   1.845 -0.1045 -0.3269 -0.1743
 9101TIP3    H151498   1.824   5.120   1.848  0.1670 -0.3649 -2.0601
 9101TIP3    H251499   1.866   5.254   1.792 -1.3263  0.4967 -1.1582
 9102TIP3   OH251500   7.322   4.096   0.802 -0.1875 -0.1536 -0.4012
 9102TIP3    H151501   7.338   4.097   0.707 -0.8226  1.2001 -0.5059
 9102TIP3    H251502   7.333   4.187   0.829 -2.1663 -0.1343  0.4531
 9103TIP3   OH251503   4.754   0.911   0.793 -0.0658  0.0201 -0.1564
 9103TIP3    H151504   4.845   0.881   0.786 -0.5928 -1.5582 -0.6812
 9103TIP3    H251505   4.704   0.832   0.813 -1.4616  0.6508 -1.0222
 9104TIP3   OH251506   3.874   0.947   1.480 -0.1441 -0.3231 -0.3486
 9104TIP3    H151507   3.875   0.967   1.387  0.6171  0.0700 -0.2623
 9104TIP3    H251508   3.959   0.907   1.497 -0.3800 -0.6312  0.1315
 9105TIP3   OH251509   0.410   7.594   2.156  0.3268  0.1848 -0.3928
 9105TIP3    H151510   0.401   7.499   2.144 -1.7504  0.3139 -0.1793
 9105TIP3    H251511   0.504   7.609   2.154  0.7970 -2.0675  0.8833
 9106TIP3   OH251512   3.204   5.818   0.631  0.1797  0.1539 -0.1787
 9106TIP3    H151513   3.223   5.735   0.586  0.1251  0.7087 -1.2459
 9106TIP3    H251514   3.129   5.798   0.687 -0.3466 -0.3221 -1.0333
 9107TIP3   OH251515   1.289   1.116   1.238 -0.1728 -0.4884 -0.2754
 9107TIP3    H151516   1.319   1.194   1.284 -1.1620 -0.8998  1.1072
 9107TIP3    H251517   1.259   1.149   1.153  0.1870  0.4999 -0.0333
 9108TIP3   OH251518   1.976   4.010   2.162 -0.1411 -0.1954 -0.1076
 9108TIP3    H151519   1.906   3.963   2.116 -1.3506  0.3942  1.0641
 9108TIP3    H251520   1.930   4.067   2.224  1.3125  1.6151 -0.6029
 9109TIP3   OH251521   6.060   4.519   2.147  0.4239 -0.0794 -0.4652
 9109TIP3    H151522   6.156   4.520   2.139  0.3965  1.0010 -0.7125
 9109TIP3    H251523   6.029   4.532   2.057  0.0505  0.2255 -0.2918
 9110TIP3   OH251524   4.348   1.571   0.945 -0.2709 -0.1020  0.4121
 9110TIP3    H151525   4.367   1.555   1.037  1.7842  1.6842  0.3918
 9110TIP3    H251526   4.433   1.563   0.902 -1.1791 -0.7872 -1.3421
 9111TIP3   OH251527   1.840   0.304   2.565 -0.6911  0.0576 -0.9229
 9111TIP3    H151528   1.817   0.212   2.561  1.1964 -0.6253  1.6244
 9111TIP3    H251529   1.908   0.315   2.499 -1.3463 -0.2127 -1.6504
 9112TIP3   OH251530   5.620   6.785   1.750 -0.3138  0.0243  0.5515
 9112TIP3    H151531   5.634   6.818   1.838 -0.6724 -0.8801  0.9542
 9112TIP3    H251532   5.527   6.764   1.746 -0.6798  1.6876 -0.6243
 9113TIP3   OH251533   7.040   5.519   1.017 -0.3023 -0.7328  0.6608
 9113TIP3    H151534   7.077   5.508   0.930  0.0945 -1.0391  0.8684
 9113TIP3    H251535   7.101   5.576   1.063  0.1254 -1.5500  1.1274
 9114TIP3   OH251536   6.255   0.508   0.604  0.2844 -0.0436 -0.0044
 9114TIP3    H151537   6.277   0.434   0.660 -0.0741 -0.1545 -0.0082
 9114TIP3    H251538   6.338   0.553   0.590  0.2180  0.6156  1.4975
 9115TIP3   OH251539   0.878   0.221   2.389  0.3462  0.3602  0.3818
 9115TIP3    H151540   0.889   0.142   2.441 -1.8683 -0.7066 -0.6378
 9115TIP3    H251541   0.960   0.231   2.342  0.5078 -1.6026  0.2023
 9116TIP3   OH251542   4.485   1.986   2.052 -0.0463  0.7337  0.1800
 9116TIP3    H151543   4.406   1.941   2.084  0.8249 -0.2635  0.9708
 9116TIP3    H251544   4.509   1.938   1.973  0.2845  0.4736  0.4399
 9117TIP3   OH251545   1.867   6.415   3.123  0.6154 -0.1296 -0.2529
 9117TIP3    H151546   1.787   6.371   3.093  0.8227  0.5533 -1.9088
 9117TIP3    H251547   1.909   6.351   3.181 -2.1854  0.2945  2.5088
 9118TIP3   OH251548   4.504   2.668   0.482  0.2534 -0.3393  0.2823
 9118TIP3    H151549   4.583   2.679   0.535  0.5632  0.3971 -0.3128
 9118TIP3    H251550   4.493   2.752   0.437  0.0262 -0.9469 -0.8530
 9119TIP3   OH251551   3.055   1.396   1.105 -0.2277  0.2943  0.8764
 9119TIP3    H151552   3.104   1.317   1.082 -2.0550 -0.3823 -1.1135
 9119TIP3    H251553   3.099   1.467   1.057  0.6690  0.2996  1.6753
 9120TIP3   OH251554   1.389   0.603   1.616 -0.3735 -0.3575 -0.1475
 9120TIP3    H151555   1.369   0.513   1.641  1.6301 -0.7143  0.3525
 9120TIP3    H251556   1.304   0.642   1.597 -1.2322 -2.6389 -1.4358
 9121TIP3   OH251557   2.697   3.864   3.247  0.4514 -0.0233 -0.3827
 9121TIP3    H151558   2.762   3.913   3.197  0.1414  0.2191 -0.5571
 9121TIP3    H251559   2.616   3.873   3.196  0.3059 -0.4037 -0.2212
 9122TIP3   OH251560   1.337   6.442   2.962  0.0074 -0.2917  0.0917
 9122TIP3    H151561   1.366   6.463   2.873  0.6685  0.0237  0.3705
 9122TIP3    H251562   1.287   6.361   2.953  0.2806 -0.3967 -0.5361
 9123TIP3   OH251563   3.029   1.073   0.677 -0.0060  0.1206  0.2920
 9123TIP3    H151564   3.063   1.155   0.714  1.3517 -0.9581  1.5096
 9123TIP3    H251565   2.983   1.031   0.750 -2.8053  0.8340 -0.9231
 9124TIP3   OH251566   1.471   2.401   1.132  0.1878  0.6260  0.0000
 9124TIP3    H151567   1.536   2.331   1.130 -0.2158  0.2269  0.6344
 9124TIP3    H251568   1.514   2.474   1.087  0.3291 -0.2511 -1.3657
 9125TIP3   OH251569   6.892   3.576   2.634  0.1570 -0.0477  0.2572
 9125TIP3    H151570   6.888   3.622   2.718 -2.3095  1.0650 -0.3653
 9125TIP3    H251571   6.968   3.519   2.642  0.0601  0.0505  3.2203
 9126TIP3   OH251572   0.774   1.769   1.599 -0.0425  0.6348 -0.0521
 9126TIP3    H151573   0.732   1.684   1.612 -0.2939  0.7597 -0.0241
 9126TIP3    H251574   0.716   1.815   1.537 -1.3766  1.7817  1.9360
 9127TIP3   OH251575   1.328   0.330   1.657  0.4727  0.4755  0.7629
 9127TIP3    H151576   1.410   0.283   1.639  0.2911  0.7210 -0.9215
 9127TIP3    H251577   1.262   0.282   1.606  0.1934  2.2253 -0.6168
 9128TIP3   OH251578   5.694   6.358   1.780 -0.3945 -0.0766  0.2279
 9128TIP3    H151579   5.745   6.284   1.813 -0.2620 -0.4031 -0.6646
 9128TIP3    H251580   5.654   6.396   1.857  1.2112  0.1928  0.9600
 9129TIP3   OH251581   4.496   1.808   0.569 -0.2798 -0.3343  0.4248
 9129TIP3    H151582   4.412   1.820   0.613  0.4779  1.4960  1.4823
 9129TIP3    H251583   4.475   1.807   0.476 -1.4282  0.8373  0.6474
 9130TIP3   OH251584   0.553   0.006   0.844 -0.1154  0.3155  0.0034
 9130TIP3    H151585   0.529   0.097   0.859 -0.8719  0.0081  0.8324
 9130TIP3    H251586   0.562  -0.002   0.749  0.8275  1.4444 -0.0245
 9131TIP3   OH251587   4.518   4.624   1.526 -1.0441 -0.7046 -0.1281
 9131TIP3    H151588   4.559   4.688   1.584 -1.3243 -0.2542 -0.4220
 9131TIP3    H251589   4.557   4.540   1.552  0.9694 -0.1720 -1.1625
 9132TIP3   OH251590   0.265   4.996   2.909  0.2111 -0.0686  0.7823
 9132TIP3    H151591   0.327   5.025   2.842  0.3925  2.2629  1.8688
 9132TIP3    H251592   0.320   4.962   2.980  0.0523 -1.6012  0.2083
 9133TIP3   OH251593   3.631   4.344   2.104  0.1467 -0.2012 -0.2562
 9133TIP3    H151594   3.602   4.290   2.031 -0.2013 -1.7020  0.9323
 9133TIP3    H251595   3.590   4.429   2.090 -0.6769 -0.7549 -1.2926
 9134TIP3   OH251596   3.350   3.385   2.359  0.6341  0.0098  0.3318
 9134TIP3    H151597   3.286   3.328   2.315  0.5963 -0.5637  1.0938
 9134TIP3    H251598   3.430   3.332   2.363  0.5915 -0.0133  1.0696
 9135TIP3   OH251599   1.615   5.425   1.321  0.1205 -0.0184 -0.1431
 9135TIP3    H151600   1.610   5.406   1.228  0.2547 -0.4349 -0.0683
 9135TIP3    H251601   1.688   5.372   1.352  2.2184  2.4771 -0.3993
 9136TIP3   OH251602   4.131   4.174   2.013 -0.1816 -0.0205 -0.6572
 9136TIP3    H151603   4.095   4.135   2.093  2.0649  3.1471  2.2012
 9136TIP3    H251604   4.065   4.239   1.986 -0.3898 -0.2105 -0.6084
 9137TIP3   OH251605   5.096   6.621   1.663  0.7839  0.7842 -0.1642
 9137TIP3    H151606   5.045   6.587   1.589  0.4614  2.1091 -0.5925
 9137TIP3    H251607   5.129   6.544   1.708  0.5365 -0.0627 -1.3926
 9138TIP3   OH251608   1.459   5.605   0.701 -0.1025  0.6289  0.3593
 9138TIP3    H151609   1.518   5.672   0.665 -0.0446  0.4839  0.1789
 9138TIP3    H251610   1.517   5.537   0.733 -0.1818 -0.2995 -1.3456
 9139TIP3   OH251611   4.624   0.921   1.592 -0.4278 -0.5174  0.0402
 9139TIP3    H151612   4.625   0.964   1.506  0.9125  0.3817  0.4812
 9139TIP3    H251613   4.716   0.901   1.610 -0.5246  0.4885  1.8477
 9140TIP3   OH251614   0.890   1.714   2.795  0.2288 -0.9909 -0.1320
 9140TIP3    H151615   0.926   1.714   2.707 -0.3070 -0.6262 -0.3540
 9140TIP3    H251616   0.889   1.806   2.820 -0.5150 -1.0046 -0.1112
 9141TIP3   OH251617   3.655   2.685   1.562  0.2667 -0.1914  0.2765
 9141TIP3    H151618   3.589   2.749   1.534  0.6507 -0.3563 -1.0801
 9141TIP3    H251619   3.620   2.601   1.533 -0.0203 -0.5541  1.6486
 9142TIP3   OH251620   2.240   3.656   1.825  0.1441 -0.8466  0.1904
 9142TIP3    H151621   2.221   3.577   1.876 -2.3733 -0.6818 -0.3790
 9142TIP3    H251622   2.217   3.729   1.883 -0.4144 -0.6096 -0.3159
 9143TIP3   OH251623   6.311   2.680   0.480  0.7015 -0.1356  0.2499
 9143TIP3    H151624   6.241   2.645   0.425  0.1389  1.4260 -0.0933
 9143TIP3    H251625   6.388   2.681   0.423  1.1826 -2.3350  0.7828
 9144TIP3   OH251626   1.235   6.818   2.099 -0.0094 -0.5340 -0.5879
 9144TIP3    H151627   1.266   6.901   2.061 -1.8912  0.0213 -1.0202
 9144TIP3    H251628   1.143   6.834   2.119  0.4497 -1.2880  2.8488
 9145TIP3   OH251629   5.042   3.307   0.840  0.1133 -0.0009  0.4721
 9145TIP3    H151630   5.009   3.358   0.765 -1.7491 -0.6046  0.8235
 9145TIP3    H251631   5.117   3.259   0.805 -0.1631  0.4271 -0.7652
 9146TIP3   OH251632   3.666   6.369   0.528 -0.4147  0.2067  0.7549
 9146TIP3    H151633   3.724   6.434   0.569  1.0563 -0.5873 -0.0084
 9146TIP3    H251634   3.723   6.295   0.508 -1.6074 -0.4242 -0.4528
 9147TIP3   OH251635   0.839   3.282   2.764 -0.4364 -0.2241  0.0073
 9147TIP3    H151636   0.897   3.355   2.786 -0.7993  0.5974 -1.5917
 9147TIP3    H251637   0.751   3.320   2.766 -0.8450 -1.1532  1.1830
 9148TIP3   OH251638   4.034   2.469   2.286  0.4069  0.2427 -0.2410
 9148TIP3    H151639   4.032   2.535   2.216  0.3239  1.3481  0.7606
 9148TIP3    H251640   3.946   2.473   2.324  0.7992  0.5269  0.6784
 9149TIP3   OH251641   0.508   3.451   1.328 -0.3104  0.3578 -0.5026
 9149TIP3    H151642   0.450   3.467   1.253 -0.3129  0.7614 -0.4135
 9149TIP3    H251643   0.470   3.502   1.399 -0.2450  0.0612 -0.2503
 9150TIP3   OH251644   0.854   7.443   0.650 -0.6258 -0.0629  0.3674
 9150TIP3    H151645   0.906   7.439   0.730 -2.4352  1.8062  1.7346
 9150TIP3    H251646   0.772   7.397   0.672 -0.4143 -1.2329 -1.0916
 9151TIP3   OH251647   5.419   1.098   1.447  0.4579 -0.2195 -0.9687
 9151TIP3    H151648   5.432   1.005   1.466 -0.2425 -0.2061 -0.3489
 9151TIP3    H251649   5.497   1.141   1.480  0.3321 -0.4815 -0.3114
 9152TIP3   OH251650   3.761   1.936   0.623  0.3214  0.4566 -0.5818
 9152TIP3    H151651   3.822   1.922   0.695  0.0823  0.9792 -0.2710
 9152TIP3    H251652   3.790   2.019   0.584  0.3327  0.2722 -0.9675
 9153TIP3   OH251653   3.262   0.364   1.452 -0.4885 -0.4314  0.1268
 9153TIP3    H151654   3.336   0.347   1.395 -0.7501  2.9046 -1.4837
 9153TIP3    H251655   3.189   0.318   1.412 -0.0433 -0.6053 -0.4978
 9154TIP3   OH251656   6.612   4.862   2.142 -0.0034 -0.2402 -0.2979
 9154TIP3    H151657   6.637   4.778   2.179 -2.3362 -1.9885 -2.2558
 9154TIP3    H251658   6.527   4.881   2.182 -0.3784  0.1672 -1.2485
 9155TIP3   OH251659   4.477   4.887   1.156 -0.0288  0.1516  0.3961
 9155TIP3    H151660   4.461   4.819   1.222 -1.9057  0.5705  0.4337
 9155TIP3    H251661   4.531   4.843   1.090  1.0223 -0.5691  1.6764
 9156TIP3   OH251662   6.491   5.635   2.118 -0.2827 -0.0973  0.0559
 9156TIP3    H151663   6.490   5.730   2.105  2.9647  0.2948  1.8100
 9156TIP3    H251664   6.490   5.623   2.213 -1.2085 -1.9027 -0.1248
 9157TIP3   OH251665   4.055   5.756   2.669  0.1631  0.2577 -0.3539
 9157TIP3    H151666   4.049   5.765   2.764 -1.0702  0.9505 -0.4714
 9157TIP3    H251667   4.077   5.844   2.638  0.2905  0.0956 -0.7294
 9158TIP3   OH251668   3.131   6.999   3.378 -0.1716  0.3142  0.1005
 9158TIP3    H151669   3.184   7.030   3.304 -2.0304  1.5480 -0.7693
 9158TIP3    H251670   3.194   6.991   3.450  1.8796 -1.6613 -1.7017
 9159TIP3   OH251671   4.947   6.151   3.063  0.1340  0.5234 -0.0461
 9159TIP3    H151672   4.974   6.241   3.047 -0.1884  0.6264 -0.0306
 9159TIP3    H251673   5.024   6.108   3.099  0.9900  0.1810 -2.1679
 9160TIP3   OH251674   2.138   6.114   2.036  0.0071  0.2218  0.9492
 9160TIP3    H151675   2.119   6.027   2.072 -0.0445  0.8995  2.6316
 9160TIP3    H251676   2.232   6.112   2.016  0.2855  0.1640  2.1754
 9161TIP3   OH251677   0.015   2.147   0.771  0.0448  0.1464 -0.4960
 9161TIP3    H151678  -0.068   2.103   0.755 -0.3070  1.3970 -2.2881
 9161TIP3    H251679   0.081   2.085   0.740 -0.2212 -0.5536  0.2832
 9162TIP3   OH251680   4.806   5.243   1.332 -0.0284  0.5553  0.2129
 9162TIP3    H151681   4.773   5.168   1.284 -0.8500  0.4251  0.9679
 9162TIP3    H251682   4.743   5.313   1.315  0.3870  0.8979  0.0372
 9163TIP3   OH251683   2.646   7.096   0.968 -0.1938  0.0247 -0.3546
 9163TIP3    H151684   2.622   7.017   1.017  0.0456  0.1372 -0.0553
 9163TIP3    H251685   2.720   7.070   0.914 -0.7967 -0.2483 -1.0770
 9164TIP3   OH251686   3.177   3.366   2.585 -0.1341  0.4673  0.4568
 9164TIP3    H151687   3.219   3.411   2.658  0.5361 -0.4870  0.6840
 9164TIP3    H251688   3.231   3.388   2.509  2.1518 -2.3458  1.0534
 9165TIP3   OH251689   4.711   5.041   2.673 -0.4434 -0.2756  0.2111
 9165TIP3    H151690   4.765   5.075   2.601 -1.2564 -1.3310 -0.9545
 9165TIP3    H251691   4.748   4.955   2.693  0.2303  0.3143  1.5971
 9166TIP3   OH251692   2.193   3.914   1.986  0.6754 -0.4915 -0.4246
 9166TIP3    H151693   2.115   3.891   2.037  0.0962  0.1439 -1.0001
 9166TIP3    H251694   2.158   3.947   1.903  1.5638 -0.2673 -0.7210
 9167TIP3   OH251695   7.167   2.819   1.280  0.0807  0.9838  0.4218
 9167TIP3    H151696   7.093   2.845   1.224  0.8406  0.8865 -0.6625
 9167TIP3    H251697   7.209   2.901   1.303 -0.0406  0.9987  0.5978
 9168TIP3   OH251698   3.053   4.610   2.180 -0.7916 -0.4913 -0.0371
 9168TIP3    H151699   3.055   4.552   2.104 -1.1043 -0.4264 -0.0941
 9168TIP3    H251700   3.018   4.556   2.251 -0.7941 -0.4602 -0.0146
 9169TIP3   OH251701   0.458   7.273   1.177  0.3028 -0.6267  0.1178
 9169TIP3    H151702   0.532   7.316   1.134  1.6713 -2.5939  0.3740
 9169TIP3    H251703   0.454   7.312   1.264 -1.0207  1.7288 -0.9159
 9170TIP3   OH251704   0.118   3.389   0.943 -0.3992 -0.2062  0.2248
 9170TIP3    H151705   0.200   3.340   0.951 -0.3311 -0.3685 -1.1557
 9170TIP3    H251706   0.051   3.321   0.935 -0.4080 -0.1029 -0.7636
 9171TIP3   OH251707   7.408   0.517   1.672  0.0872  0.1213  0.3002
 9171TIP3    H151708   7.412   0.612   1.682 -0.5475  0.1231  0.5682
 9171TIP3    H251709   7.418   0.503   1.577 -0.9507  0.5269  0.1192
 9172TIP3   OH251710   2.423   5.771   1.271 -0.7637 -0.1607 -0.1975
 9172TIP3    H151711   2.402   5.801   1.359 -2.2217 -0.6279 -0.3499
 9172TIP3    H251712   2.508   5.810   1.252 -1.5115  1.9538  0.4774
 9173TIP3   OH251713   4.418   5.153   1.334  0.8523 -0.2114  0.3199
 9173TIP3    H151714   4.445   5.062   1.329  0.3419 -0.3159 -0.7286
 9173TIP3    H251715   4.406   5.180   1.243 -0.6407  0.4007  0.6669
 9174TIP3   OH251716   2.589   4.629   1.536  0.0985  0.3677 -0.2233
 9174TIP3    H151717   2.671   4.587   1.561  1.3648  2.7176 -0.1898
 9174TIP3    H251718   2.549   4.656   1.619  0.7529  1.7675 -0.3347
 9175TIP3   OH251719   2.072   2.985   2.009  0.0781  0.2837  0.1759
 9175TIP3    H151720   2.021   2.945   2.079  0.6121 -3.1019 -1.1792
 9175TIP3    H251721   2.007   3.017   1.947 -0.3631  1.3131  1.1338
 9176TIP3   OH251722   2.913   6.665   2.436 -0.0678 -0.0716 -0.0495
 9176TIP3    H151723   2.904   6.650   2.530  1.4420  2.2066  0.5359
 9176TIP3    H251724   2.949   6.583   2.402 -1.0968 -1.0938  1.2522
 9177TIP3   OH251725   3.467   1.294   1.132 -0.1158 -0.1728  0.9344
 9177TIP3    H151726   3.550   1.246   1.128  0.8378  1.3206  1.9228
 9177TIP3    H251727   3.462   1.326   1.221 -1.9510 -0.4890  0.9929
 9178TIP3   OH251728   7.240   0.287   2.311 -0.5326 -0.2624  0.2711
 9178TIP3    H151729   7.199   0.330   2.236 -0.3507 -2.3935 -1.1269
 9178TIP3    H251730   7.174   0.228   2.345  0.4013 -1.6599 -0.2477
 9179TIP3   OH251731   6.965   1.632   1.936  0.3795 -0.2625 -0.3819
 9179TIP3    H151732   7.049   1.592   1.955  0.4879 -1.0391 -2.3089
 9179TIP3    H251733   6.944   1.683   2.015  2.5138 -0.2388  0.2125
 9180TIP3   OH251734   0.906   0.111   3.711  0.2485  0.3272 -0.4453
 9180TIP3    H151735   0.951   0.133   3.630 -1.0444  1.9636 -0.7842
 9180TIP3    H251736   0.862   0.192   3.736 -1.6608 -0.9071  0.4013
 9181TIP3   OH251737   3.921   1.280   3.157 -0.5479 -0.0506  0.2300
 9181TIP3    H151738   3.962   1.193   3.157 -3.6234 -1.6392  0.3410
 9181TIP3    H251739   3.945   1.318   3.242 -0.0546 -1.2580  0.6515
 9182TIP3   OH251740   7.623   3.188   1.275 -0.2812 -0.4361 -0.3795
 9182TIP3    H151741   7.645   3.144   1.358 -1.6272  1.2815  0.9797
 9182TIP3    H251742   7.658   3.277   1.286  1.9352 -0.8777 -2.8364
 9183TIP3   OH251743   7.139   7.365   2.060  0.0496 -0.1554  0.3619
 9183TIP3    H151744   7.174   7.448   2.091 -1.2591  1.3508 -1.8582
 9183TIP3    H251745   7.048   7.364   2.090  0.3163 -1.2740  1.1941
 9184TIP3   OH251746   1.466   5.926   2.149 -0.0986  0.3886  0.0530
 9184TIP3    H151747   1.556   5.955   2.155  0.8453 -2.1704 -0.2382
 9184TIP3    H251748   1.472   5.838   2.111 -2.6512 -0.1286  0.6521
 9185TIP3   OH251749   4.024   3.432   2.580  0.5746  0.8350 -0.0432
 9185TIP3    H151750   3.954   3.408   2.641 -0.1013  1.0504 -0.7161
 9185TIP3    H251751   4.059   3.349   2.550 -0.6576  0.6712 -1.1158
 9186TIP3   OH251752   3.955   4.406   1.959 -0.4123 -0.2226  0.2051
 9186TIP3    H151753   3.943   4.482   2.016 -0.9337 -1.2038  1.4470
 9186TIP3    H251754   3.898   4.423   1.884  0.0772  0.9599  0.0908
 9187TIP3   OH251755   0.778   2.246   2.345 -0.6388 -0.1423  0.0372
 9187TIP3    H151756   0.778   2.235   2.249 -0.6856 -0.6842  0.0950
 9187TIP3    H251757   0.844   2.313   2.362 -0.6111 -0.0623 -0.3761
 9188TIP3   OH251758   3.932   6.036   0.901  0.1980 -0.5171  0.0588
 9188TIP3    H151759   4.003   5.995   0.951  0.1928  0.5839  1.0054
 9188TIP3    H251760   3.853   5.989   0.930  0.0619  0.7418  1.8767
 9189TIP3   OH251761   5.171   1.783   0.970  0.1418  0.2000  0.1597
 9189TIP3    H151762   5.112   1.827   0.909 -1.8278  0.6969  2.2870
 9189TIP3    H251763   5.113   1.747   1.037  2.1831 -0.3513  1.7149
 9190TIP3   OH251764   1.282   6.202   3.773  0.9229  0.3144 -0.5082
 9190TIP3    H151765   1.205   6.218   3.827 -0.3712 -1.5842 -1.6372
 9190TIP3    H251766   1.332   6.283   3.776 -1.3367  1.7692 -0.0664
 9191TIP3   OH251767   0.391   2.631   1.932  0.7595  0.2749  0.5410
 9191TIP3    H151768   0.334   2.563   1.895  1.2868 -0.4682  1.0704
 9191TIP3    H251769   0.478   2.609   1.899  0.9864  0.4995  0.9866
 9192TIP3   OH251770   2.624   5.906   1.183 -0.8125  0.0428 -0.1564
 9192TIP3    H151771   2.607   5.981   1.126 -1.9865  0.2070  0.3637
 9192TIP3    H251772   2.715   5.882   1.165 -1.0968  0.1837 -1.9579
 9193TIP3   OH251773   4.920   2.022   1.171  0.0003 -0.0767 -0.3485
 9193TIP3    H151774   4.837   2.068   1.184 -0.8585 -1.8323  0.6550
 9193TIP3    H251775   4.977   2.087   1.128 -0.4541  2.5824  2.7348
 9194TIP3   OH251776   2.776   2.672   0.585  0.7091 -0.2849 -0.2656
 9194TIP3    H151777   2.697   2.620   0.567  1.4002 -0.9190 -1.5635
 9194TIP3    H251778   2.836   2.650   0.514  1.6047  1.1329  0.0219
 9195TIP3   OH251779   6.136   2.571   1.317  0.1708 -0.6455 -0.0676
 9195TIP3    H151780   6.106   2.650   1.362  1.7308 -0.1052  0.0769
 9195TIP3    H251781   6.101   2.580   1.228 -0.0443 -0.0159  0.0743
 9196TIP3   OH251782   7.305   5.703   0.823  0.6204  0.1297  0.5455
 9196TIP3    H151783   7.338   5.648   0.752  1.3455  0.9954  0.1912
 9196TIP3    H251784   7.305   5.792   0.787 -1.3202  0.2928  0.8210
 9197TIP3   OH251785   6.349   0.226   2.391  0.3186 -0.0362 -0.0692
 9197TIP3    H151786   6.357   0.131   2.400  1.1743  0.1625  1.9506
 9197TIP3    H251787   6.433   0.260   2.425  0.9418  1.3990 -2.7530
 9198TIP3   OH251788   2.117   3.630   2.651  0.3163  0.3719  0.2943
 9198TIP3    H151789   2.141   3.716   2.617 -3.0114  1.6774  0.8464
 9198TIP3    H251790   2.052   3.598   2.589  2.1264 -2.2786 -0.3996
 9199TIP3   OH251791   3.709   7.063   0.953  0.0984  0.1181 -0.3066
 9199TIP3    H151792   3.774   7.004   0.991 -0.4854 -0.2605  0.1130
 9199TIP3    H251793   3.626   7.016   0.960 -0.5300  1.3260  0.8608
 9200TIP3   OH251794   0.515   3.492   1.720 -0.4222  0.2939  0.3004
 9200TIP3    H151795   0.590   3.433   1.713 -0.8128 -0.3557  1.3780
 9200TIP3    H251796   0.553   3.579   1.730  0.1610  0.2218 -1.0226
 9201TIP3   OH251797   3.900   7.572   0.943 -0.2446  0.5102 -0.3318
 9201TIP3    H151798   3.865   7.496   0.988 -1.0854  1.1130  0.0645
 9201TIP3    H251799   3.853   7.575   0.860  0.6202 -0.0557 -0.8508
 9202TIP3   OH251800   2.490   1.407   1.381 -0.2231 -0.1664  0.0133
 9202TIP3    H151801   2.512   1.350   1.454 -0.8294 -0.9415 -0.3879
 9202TIP3    H251802   2.455   1.487   1.421 -0.0044 -0.3537  0.5729
 9203TIP3   OH251803   0.444   0.898   2.768 -0.5464  0.2144  0.2844
 9203TIP3    H151804   0.400   0.979   2.743  1.3764  1.2220 -0.0358
 9203TIP3    H251805   0.466   0.857   2.684  3.3873  2.2008  0.0881
 9204TIP3   OH251806   2.658   4.274   1.689  0.9343  0.2691  0.2702
 9204TIP3    H151807   2.611   4.344   1.735  0.9366 -0.7030  1.8545
 9204TIP3    H251808   2.590   4.209   1.669  1.2348 -0.1607  0.6205
 9205TIP3   OH251809   5.443   2.795   1.550  0.0253 -0.2280  0.2281
 9205TIP3    H151810   5.456   2.878   1.504  0.3076 -0.7691 -0.6895
 9205TIP3    H251811   5.418   2.733   1.482  2.5124 -1.5587  0.3831
 9206TIP3   OH251812   5.636   4.817   0.688  0.1417 -0.3326  0.1030
 9206TIP3    H151813   5.673   4.729   0.687 -0.1403 -0.6399  3.7031
 9206TIP3    H251814   5.706   4.873   0.722 -0.0360  0.6947 -1.1195
 9207TIP3   OH251815   3.835   6.179   1.695  0.2776  0.2116 -0.1412
 9207TIP3    H151816   3.830   6.210   1.786  0.0866 -0.4552  0.0798
 9207TIP3    H251817   3.928   6.162   1.680  0.4514  1.3569 -0.4272
 9208TIP3   OH251818   5.182   6.991   1.952 -0.1161 -0.3542 -0.0969
 9208TIP3    H151819   5.175   6.954   1.864  1.8809 -1.1192  0.0263
 9208TIP3    H251820   5.222   7.077   1.938 -0.0875 -0.3464  0.0350
 9209TIP3   OH251821   5.293   4.213   0.678 -0.0603 -0.0909 -0.2796
 9209TIP3    H151822   5.315   4.209   0.771 -0.0244  0.0405 -0.2829
 9209TIP3    H251823   5.376   4.234   0.635  0.0436 -0.6949 -0.3912
 9210TIP3   OH251824   2.371   2.190   2.808 -0.6794 -0.2999 -0.1273
 9210TIP3    H151825   2.400   2.217   2.721  0.2871 -1.8666 -0.3244
 9210TIP3    H251826   2.293   2.244   2.824 -0.3795  0.6411 -1.5779
 9211TIP3   OH251827   4.713   3.920   2.523  0.1353 -0.0055  0.1489
 9211TIP3    H151828   4.754   3.957   2.601  0.8295 -0.2222 -0.1076
 9211TIP3    H251829   4.719   3.989   2.457  1.2870 -0.4930 -0.2815
 9212TIP3   OH251830   0.509   3.600   0.436  0.8252 -0.0209  0.1295
 9212TIP3    H151831   0.502   3.505   0.442  1.6263 -0.0035  1.9611
 9212TIP3    H251832   0.474   3.633   0.519  2.4322  1.1393  0.4081
 9213TIP3   OH251833   6.032   0.052   1.166  0.1034 -0.0971  0.0987
 9213TIP3    H151834   6.023   0.058   1.261  1.3495  1.6217  0.1461
 9213TIP3    H251835   5.948   0.017   1.136 -1.0705  1.2199  1.6556
 9214TIP3   OH251836   2.117   7.306   3.434  0.1415 -0.1321  0.0516
 9214TIP3    H151837   2.038   7.263   3.466 -0.9035  1.5569 -0.1609
 9214TIP3    H251838   2.171   7.234   3.401 -1.6905 -1.2545 -0.6842
 9215TIP3   OH251839   7.118   1.259   3.136  0.1886 -0.2201 -0.1885
 9215TIP3    H151840   7.027   1.253   3.106 -0.2069  0.2764  0.8935
 9215TIP3    H251841   7.157   1.176   3.107 -0.3066  0.0035 -1.5922
 9216TIP3   OH251842   0.823   3.278   3.097  0.3054 -0.1669 -0.2196
 9216TIP3    H151843   0.853   3.206   3.153  0.1531 -0.8979 -1.0364
 9216TIP3    H251844   0.902   3.311   3.056  0.4200  0.3866  0.4389
 9217TIP3   OH251845   3.487   4.228   2.358  0.4442  0.1580 -0.2359
 9217TIP3    H151846   3.404   4.194   2.326 -0.0873  0.9196  0.3057
 9217TIP3    H251847   3.490   4.318   2.326  0.5317  0.4956  0.6830
 9218TIP3   OH251848   3.079   4.829   2.668  0.4547  0.1005  0.3911
 9218TIP3    H151849   3.035   4.912   2.651  0.0379 -0.4516 -1.4582
 9218TIP3    H251850   3.034   4.766   2.611  2.1888 -0.9403  0.1120
 9219TIP3   OH251851   1.189   7.223   2.755 -1.1379 -0.0890 -0.0819
 9219TIP3    H151852   1.268   7.176   2.781 -0.4057  0.2048 -1.6433
 9219TIP3    H251853   1.136   7.228   2.834  1.1933  1.3240  1.4882
 9220TIP3   OH251854   4.650   3.990   1.063  0.4728  0.0612 -0.9085
 9220TIP3    H151855   4.656   3.946   0.978 -0.8645  3.2166 -2.8099
 9220TIP3    H251856   4.560   3.973   1.092  0.6251 -0.2017 -0.5818
 9221TIP3   OH251857   5.440   4.839   0.506  0.3777 -1.0612  0.2039
 9221TIP3    H151858   5.405   4.758   0.544  3.6809 -2.0552  1.5516
 9221TIP3    H251859   5.515   4.861   0.562  0.5524  2.1040 -1.0484
 9222TIP3   OH251860   5.867   3.219   1.968  0.1674 -0.1126 -0.2992
 9222TIP3    H151861   5.922   3.276   1.913 -2.2366  1.7488 -0.9938
 9222TIP3    H251862   5.814   3.170   1.905 -0.3599 -0.3574  0.3278
 9223TIP3   OH251863   0.327   6.129   0.798 -0.6517 -0.5072 -0.0282
 9223TIP3    H151864   0.279   6.199   0.754  0.1414 -0.8189 -1.4488
 9223TIP3    H251865   0.271   6.052   0.790 -0.9372 -0.3447  0.3719
 9224TIP3   OH251866   5.061   5.804   0.848  0.2234  0.1045 -0.1953
 9224TIP3    H151867   5.117   5.733   0.816  0.1134  0.3929 -1.0464
 9224TIP3    H251868   5.025   5.844   0.769  0.5661  1.3387  0.2410
 9225TIP3   OH251869   6.537   7.124   1.793  0.0933 -0.0264  0.1026
 9225TIP3    H151870   6.528   7.155   1.883  0.6694  2.0228 -0.5079
 9225TIP3    H251871   6.589   7.043   1.802 -0.8826 -0.5412  1.6778
 9226TIP3   OH251872   1.712   1.212   2.249  0.2386 -0.1574  0.6654
 9226TIP3    H151873   1.631   1.252   2.219  1.9897  1.9548 -1.7384
 9226TIP3    H251874   1.734   1.259   2.330 -1.1197 -1.1417  1.6593
 9227TIP3   OH251875   5.062   2.055   2.589  0.0364  0.5918 -0.0893
 9227TIP3    H151876   5.014   2.053   2.671  0.6659  0.6038  0.2837
 9227TIP3    H251877   4.999   2.025   2.523 -0.9491  2.0420  0.1442
 9228TIP3   OH251878   2.827   6.688   1.461  0.1018 -0.3779  0.4754
 9228TIP3    H151879   2.918   6.701   1.433  0.6091 -0.6786  1.8847
 9228TIP3    H251880   2.802   6.604   1.422 -0.2940  0.6634 -1.6045
 9229TIP3   OH251881   7.093   2.422   0.950  0.0240 -0.3685 -0.3481
 9229TIP3    H151882   7.024   2.467   0.996 -0.1103 -0.7171 -0.2034
 9229TIP3    H251883   7.056   2.336   0.929  0.6800 -0.8570  0.4368
 9230TIP3   OH251884   1.742   4.492   3.126  0.6205  0.3915  0.3147
 9230TIP3    H151885   1.725   4.502   3.220  0.4896  0.3702  0.2945
 9230TIP3    H251886   1.721   4.578   3.089 -2.1719 -0.3510 -0.0962
 9231TIP3   OH251887   4.717   1.289   2.696  0.8268  0.0137  0.2054
 9231TIP3    H151888   4.804   1.249   2.695  1.0313  0.4313  0.5381
 9231TIP3    H251889   4.721   1.352   2.769  0.4896  0.5599 -0.2380
 9232TIP3   OH251890   5.156   6.191   1.114 -0.3438  0.6906 -0.1118
 9232TIP3    H151891   5.238   6.208   1.068 -0.3344  0.1454 -0.2937
 9232TIP3    H251892   5.183   6.154   1.198 -0.4312 -1.2737 -0.8972
 9233TIP3   OH251893   3.054   6.772   2.735  0.1598 -0.1755  0.2481
 9233TIP3    H151894   3.051   6.825   2.814  0.2857  0.3113 -0.0681
 9233TIP3    H251895   2.964   6.770   2.704  0.4234  1.4207 -0.7484
 9234TIP3   OH251896   2.545   1.060   3.301 -0.3805  0.2660  0.3184
 9234TIP3    H151897   2.463   1.105   3.324 -0.5093  0.0446  0.2976
 9234TIP3    H251898   2.530   0.969   3.327 -0.7101 -0.0974 -1.0583
 9235TIP3   OH251899   4.930   4.282   2.379  0.1702  0.1433  0.1020
 9235TIP3    H151900   5.007   4.291   2.323  0.5732  0.2414  0.6635
 9235TIP3    H251901   4.956   4.323   2.462 -0.2541 -0.4134  0.5147
 9236TIP3   OH251902   0.436   1.592   1.244 -0.3289 -0.6165 -0.7831
 9236TIP3    H151903   0.501   1.528   1.216 -0.3666 -0.5842 -0.9440
 9236TIP3    H251904   0.386   1.547   1.312  1.0646 -0.0136  0.7012
 9237TIP3   OH251905   0.436   4.796   2.560  0.1344  0.3152  0.0175
 9237TIP3    H151906   0.396   4.743   2.490  1.1292 -0.6020  0.1083
 9237TIP3    H251907   0.523   4.818   2.526  0.3685  0.4345  0.6862
 9238TIP3   OH251908   4.195   3.474   1.775 -0.2816 -0.4284  0.5856
 9238TIP3    H151909   4.178   3.487   1.682  1.3058 -0.4532  0.2760
 9238TIP3    H251910   4.117   3.510   1.818 -0.2286  1.3040 -0.6611
 9239TIP3   OH251911   6.357   0.761   2.688  0.6532  0.0152 -0.1268
 9239TIP3    H151912   6.311   0.714   2.757 -0.9484  1.7459  0.0521
 9239TIP3    H251913   6.408   0.827   2.734  0.5077  0.4088 -0.5280
 9240TIP3   OH251914   3.399   2.334   1.292 -0.1138 -0.0542  0.1729
 9240TIP3    H151915   3.388   2.308   1.200 -2.4295 -0.0216  0.3876
 9240TIP3    H251916   3.416   2.253   1.339 -4.1187 -0.9308  0.3872
 9241TIP3   OH251917   0.542   3.039   2.483 -0.0664 -0.0871 -0.2345
 9241TIP3    H151918   0.513   3.070   2.569 -0.5983 -0.3456 -0.3180
 9241TIP3    H251919   0.494   2.958   2.469  1.3889 -1.0215  0.0180
 9242TIP3   OH251920   7.092   1.501   2.305 -0.2327 -0.0934  0.5552
 9242TIP3    H151921   7.089   1.494   2.210 -1.0676 -2.4166  0.6817
 9242TIP3    H251922   7.119   1.592   2.322  2.2092 -0.2434 -1.8697
 9243TIP3   OH251923   0.624   5.106   1.349 -0.8568 -0.0090 -0.5491
 9243TIP3    H151924   0.552   5.169   1.343 -2.6318 -1.7393  0.8723
 9243TIP3    H251925   0.583   5.028   1.387  1.5262 -1.5417 -0.9427
 9244TIP3   OH251926   6.728   2.441   0.735 -0.2129 -0.1671 -0.1493
 9244TIP3    H151927   6.649   2.466   0.687 -0.1455 -0.0740 -0.2113
 9244TIP3    H251928   6.701   2.363   0.785 -0.2271 -0.3964 -0.5045
 9245TIP3   OH251929   3.308   7.072   0.816  0.0610 -0.1767 -0.3869
 9245TIP3    H151930   3.274   7.096   0.730 -0.3041  1.9059  0.2766
 9245TIP3    H251931   3.255   7.123   0.878  0.3124 -1.6153  1.0818
 9246TIP3   OH251932   5.131   7.141   3.007  0.5549  0.1290  0.1838
 9246TIP3    H151933   5.128   7.231   3.039  0.7737  0.4162 -0.6106
 9246TIP3    H251934   5.058   7.098   3.053 -0.8084  1.1862 -0.8856
 9247TIP3   OH251935   7.545   1.265   0.440  0.1413  0.0099 -0.3544
 9247TIP3    H151936   7.502   1.200   0.496  1.2436 -1.6725 -1.3788
 9247TIP3    H251937   7.517   1.243   0.351 -0.8943  2.1038 -0.5983
 9248TIP3   OH251938   2.603   3.516   0.958 -0.0936 -0.3720  0.0614
 9248TIP3    H151939   2.630   3.607   0.976 -0.5605 -0.0238 -0.9542
 9248TIP3    H251940   2.642   3.496   0.873 -0.1818 -1.0539  0.1800
 9249TIP3   OH251941   2.688   2.248   2.033  0.4881  0.6683 -0.4453
 9249TIP3    H151942   2.597   2.222   2.050  0.2404  1.8202  0.0487
 9249TIP3    H251943   2.682   2.310   1.961  1.1374 -0.9757 -2.0169
 9250TIP3   OH251944   0.089   5.225   2.913  0.3342  0.4102  0.1397
 9250TIP3    H151945  -0.003   5.199   2.910 -0.2622  1.9077 -5.0675
 9250TIP3    H251946   0.138   5.142   2.910 -1.0050 -0.3768 -0.9400
 9251TIP3   OH251947   0.108   5.976   1.299  0.0535  0.3299  0.0438
 9251TIP3    H151948   0.018   5.948   1.313 -0.0876  1.3091  1.3525
 9251TIP3    H251949   0.100   6.061   1.255  0.2098  1.3440  1.8327
 9252TIP3   OH251950   4.105   6.745   1.327 -0.2007 -0.1739  0.0357
 9252TIP3    H151951   4.038   6.706   1.272  1.4476 -0.0175 -2.2246
 9252TIP3    H251952   4.146   6.671   1.372  0.3612 -0.6683 -1.2511
 9253TIP3   OH251953   0.738   6.877   3.066  0.3230  0.2341 -0.6594
 9253TIP3    H151954   0.719   6.971   3.067  0.5940  0.2889 -0.6844
 9253TIP3    H251955   0.806   6.867   3.000 -0.4118 -0.1193 -1.3718
 9254TIP3   OH251956   2.676   5.018   3.499 -0.3853 -0.6607  0.5441
 9254TIP3    H151957   2.678   4.989   3.408  0.0855 -1.8611  0.9195
 9254TIP3    H251958   2.745   5.085   3.504  0.1279 -1.1519  0.1923
 9255TIP3   OH251959   3.786   6.483   1.009  0.3638  0.4082  0.4911
 9255TIP3    H151960   3.810   6.393   1.034  1.6925  0.1925 -1.3766
 9255TIP3    H251961   3.862   6.515   0.961 -0.7437  1.9719 -0.2758
 9256TIP3   OH251962   6.656   1.714   0.955 -0.2053  0.2750 -0.0308
 9256TIP3    H151963   6.721   1.781   0.935  0.1487 -0.6163 -2.1589
 9256TIP3    H251964   6.572   1.761   0.954 -0.1416  0.5601 -2.9978
 9257TIP3   OH251965   5.390   1.355   1.565  0.2254 -0.2448  0.2008
 9257TIP3    H151966   5.479   1.324   1.550 -0.4608 -1.7985 -0.9889
 9257TIP3    H251967   5.383   1.437   1.516  0.7054 -0.6631 -0.5839
 9258TIP3   OH251968   2.809   5.244   3.422 -0.2276  0.1517  0.2024
 9258TIP3    H151969   2.766   5.281   3.344  0.8058 -1.8235 -1.4094
 9258TIP3    H251970   2.892   5.292   3.429  0.1062 -0.3057 -0.5169
 9259TIP3   OH251971   4.596   6.524   1.925  0.4376 -0.0463 -0.1396
 9259TIP3    H151972   4.558   6.453   1.873  1.7697 -1.3438  0.5851
 9259TIP3    H251973   4.581   6.497   2.016  2.0375 -0.0317  0.1515
 9260TIP3   OH251974   1.516   1.679   2.966  0.0786  0.7351 -0.0803
 9260TIP3    H151975   1.479   1.649   3.049 -0.7492  2.4355  0.2130
 9260TIP3    H251976   1.497   1.608   2.904 -1.1247  0.3259  0.7312
 9261TIP3   OH251977   2.875   1.673   1.522 -0.6007  0.3333 -0.0990
 9261TIP3    H151978   2.914   1.596   1.479  1.4710  1.4251 -0.3182
 9261TIP3    H251979   2.949   1.716   1.564 -1.8174  1.9143  0.4982
 9262TIP3   OH251980   5.922   0.425   2.694  0.3117 -0.5874  0.2605
 9262TIP3    H151981   5.888   0.468   2.616 -1.2226 -1.1822  0.5622
 9262TIP3    H251982   5.982   0.488   2.732  0.0729  0.2402 -0.6846
 9263TIP3   OH251983   2.055   7.154   2.510  0.2972  0.1524 -0.2401
 9263TIP3    H151984   2.151   7.159   2.513  0.3646  0.1740 -1.8084
 9263TIP3    H251985   2.037   7.074   2.461 -0.5384 -0.9062  1.6577
 9264TIP3   OH251986   7.199   1.757   2.060 -0.1979  0.3431 -0.5778
 9264TIP3    H151987   7.231   1.690   2.000  0.2496 -0.4658  0.5111
 9264TIP3    H251988   7.273   1.773   2.119 -1.4771 -1.0039  1.5306
 9265TIP3   OH251989   2.749   3.082   1.052  0.2296 -0.1886 -0.1245
 9265TIP3    H151990   2.844   3.094   1.046  0.0912  0.2487 -1.7370
 9265TIP3    H251991   2.718   3.159   1.100  0.7826 -0.9027  1.4505
 9266TIP3   OH251992   3.615   0.095   3.522  0.1365  0.1538  0.0357
 9266TIP3    H151993   3.593   0.002   3.521  0.9138 -0.0553 -1.9953
 9266TIP3    H251994   3.709   0.097   3.541 -0.0021  0.5937  0.7408
 9267TIP3   OH251995   5.644   6.906   2.002  0.2056 -0.5976 -0.3137
 9267TIP3    H151996   5.620   6.998   2.004  1.0299 -0.3374 -1.4451
 9267TIP3    H251997   5.582   6.863   2.061 -1.0547  0.4732 -0.8221
 9268TIP3   OH251998   3.243   0.518   3.063 -0.3962 -0.6658  0.1968
 9268TIP3    H151999   3.337   0.531   3.075  0.0016 -0.7091 -2.2883
 9268TIP3    H252000   3.213   0.481   3.146  1.4817  0.6930  1.5681
 9269TIP3   OH252001   2.462   3.371   2.513 -0.0247 -0.2687 -0.0710
 9269TIP3    H152002   2.386   3.384   2.456  0.0891 -1.0308 -0.4178
 9269TIP3    H252003   2.426   3.330   2.592 -0.1462  0.5400  0.2932
 9270TIP3   OH252004   1.913   5.878   0.840  0.5616 -0.2233 -0.0142
 9270TIP3    H152005   1.970   5.955   0.830  0.7300 -0.3355  0.0933
 9270TIP3    H252006   1.938   5.820   0.768 -0.3922  0.3400 -0.8307
 9271TIP3   OH252007   3.450   2.726   2.395  0.2219 -0.4085 -0.1709
 9271TIP3    H152008   3.497   2.767   2.323 -0.8074  1.0596 -0.0503
 9271TIP3    H252009   3.459   2.632   2.380  0.7201 -0.1309 -1.7304
 9272TIP3   OH252010   3.956   1.095   1.897 -0.0139  0.2788 -0.2806
 9272TIP3    H152011   3.865   1.078   1.872 -0.6016  0.7549  1.4173
 9272TIP3    H252012   3.998   1.126   1.817 -1.1788 -0.5421 -1.2351
 9273TIP3   OH252013   7.445   7.468   1.690  0.3297 -0.3436  0.3243
 9273TIP3    H152014   7.375   7.443   1.750 -1.1086  1.8768 -0.3240
 9273TIP3    H252015   7.418   7.433   1.606  0.2253  0.1301  0.1605
 9274TIP3   OH252016   1.455   4.886   2.918 -0.1553  0.1970  0.5515
 9274TIP3    H152017   1.397   4.893   2.994  0.3326  1.5086  0.8220
 9274TIP3    H252018   1.400   4.911   2.844 -0.9256 -2.0735  0.2835
 9275TIP3   OH252019   2.447   3.908   1.904  0.3008  0.1517 -0.1291
 9275TIP3    H152020   2.375   3.886   1.962  0.4172 -3.4473 -1.1554
 9275TIP3    H252021   2.406   3.927   1.820  0.4353  0.8763 -0.0460
 9276TIP3   OH252022   1.620   1.395   3.264 -0.3828  0.0098  0.6783
 9276TIP3    H152023   1.541   1.410   3.315 -1.3404 -0.1388 -0.7317
 9276TIP3    H252024   1.659   1.482   3.253 -0.3304  0.0793  1.3918
 9277TIP3   OH252025   7.380   3.682   1.609  0.3719  0.2091 -0.4447
 9277TIP3    H152026   7.381   3.777   1.617  0.9089  0.1547  0.2071
 9277TIP3    H252027   7.421   3.650   1.689 -0.9474 -0.6198 -0.0504
 9278TIP3   OH252028   1.339   0.469   2.185  0.3849  0.4603  0.1995
 9278TIP3    H152029   1.356   0.439   2.095  0.2052  0.7512  0.0679
 9278TIP3    H252030   1.336   0.564   2.178  2.7550  0.6441  0.9086
 9279TIP3   OH252031   4.233   0.538   1.927 -0.0929  0.3995  0.2022
 9279TIP3    H152032   4.203   0.572   2.011 -1.1378  0.6338 -0.2575
 9279TIP3    H252033   4.236   0.615   1.869 -1.0421 -0.0286 -0.4389
 9280TIP3   OH252034   0.804   7.655   0.955 -0.1231 -0.1425 -0.0466
 9280TIP3    H152035   0.743   7.654   0.882  0.3111 -0.1711 -0.4130
 9280TIP3    H252036   0.884   7.695   0.920  0.1257 -0.2526  0.3779
 9281TIP3   OH252037   3.867   6.234   1.088 -0.0355 -0.1013 -0.1917
 9281TIP3    H152038   3.927   6.217   1.161 -2.1398 -1.6720  1.2899
 9281TIP3    H252039   3.908   6.192   1.013  0.5617 -1.4456  0.8514
 9282TIP3   OH252040   3.313   5.449   1.460  0.2502  0.0366 -0.2748
 9282TIP3    H152041   3.236   5.493   1.495 -0.7221 -3.5728  2.7383
 9282TIP3    H252042   3.280   5.395   1.388  0.3596  0.0186 -0.3125
 9283TIP3   OH252043   1.143   3.470   2.095 -0.4177 -0.1850 -0.4031
 9283TIP3    H152044   1.118   3.537   2.159 -3.0955  0.7808 -2.2668
 9283TIP3    H252045   1.164   3.393   2.147  2.0946  1.7665  1.8034
 9284TIP3   OH252046   6.785   5.550   1.105  0.2620  0.2030 -0.3204
 9284TIP3    H152047   6.807   5.551   1.198  0.5378 -1.4853 -0.3417
 9284TIP3    H252048   6.870   5.548   1.060  0.1276 -0.2718 -0.5631
 9285TIP3   OH252049   1.523   2.168   1.715  0.6289  0.5673  0.6365
 9285TIP3    H152050   1.505   2.099   1.779 -0.8761  1.3841  1.1481
 9285TIP3    H252051   1.616   2.159   1.695  0.9687 -0.1623  2.3781
 9286TIP3   OH252052   1.053   3.396   1.856 -0.4314  0.7511  0.4801
 9286TIP3    H152053   1.108   3.409   1.933 -2.0254  1.7445  1.4934
 9286TIP3    H252054   1.005   3.315   1.874 -2.4819  2.1548  1.6317
 9287TIP3   OH252055   1.532   7.389   2.777  0.4597  0.7046 -0.0966
 9287TIP3    H152056   1.479   7.425   2.707 -0.5570  1.6222  1.1054
 9287TIP3    H252057   1.498   7.300   2.790  0.9500  0.3659 -1.0307
 9288TIP3   OH252058   1.228   1.184   2.069 -0.0376 -0.2144  0.0001
 9288TIP3    H152059   1.307   1.193   2.016  0.6060 -0.9748  0.8065
 9288TIP3    H252060   1.158   1.173   2.004  0.7970 -1.6138 -0.7139
 9289TIP3   OH252061   0.819   1.969   1.773 -0.0062 -0.2363  0.2206
 9289TIP3    H152062   0.801   1.895   1.715 -0.1755  0.2763 -0.3820
 9289TIP3    H252063   0.766   1.951   1.851  0.5186 -1.1183  0.3819
 9290TIP3   OH252064   1.086   2.425   1.922 -0.1413  0.4064  0.4611
 9290TIP3    H152065   1.128   2.446   1.838  1.8890 -0.3312  1.2322
 9290TIP3    H252066   1.017   2.362   1.899  0.0499  0.5950 -0.7031
 9291TIP3   OH252067   1.837   6.213   1.844 -0.1955 -0.6185  0.1007
 9291TIP3    H152068   1.803   6.223   1.933 -0.5113  0.8849 -0.1724
 9291TIP3    H252069   1.804   6.128   1.815 -0.8689 -0.7014  1.0707
 9292TIP3   OH252070   7.254   6.393   1.499  0.2061 -0.2189  0.4720
 9292TIP3    H152071   7.290   6.305   1.488  0.0161 -0.4362  1.4708
 9292TIP3    H252072   7.284   6.420   1.586  1.1375  1.1262 -0.2460
 9293TIP3   OH252073   3.468   4.517   1.297 -0.2580  0.1860  0.2619
 9293TIP3    H152074   3.420   4.510   1.380 -1.6410  0.4500 -0.4863
 9293TIP3    H252075   3.473   4.428   1.264  1.5484 -0.1451  1.2581
 9294TIP3   OH252076   2.243   6.511   0.861 -0.1587  0.3515  0.0500
 9294TIP3    H152077   2.179   6.471   0.920  0.7602 -2.2969 -0.6000
 9294TIP3    H252078   2.192   6.542   0.787 -0.9763  0.8576  0.8115
 9295TIP3   OH252079   2.053   6.864   1.798  0.2071 -0.3620  0.2687
 9295TIP3    H152080   2.043   6.959   1.801 -0.7995 -0.4715  0.6128
 9295TIP3    H252081   2.030   6.841   1.708 -0.3717 -0.3645  0.4149
 9296TIP3   OH252082   2.062   3.791   0.658 -0.4871  0.5344 -0.1635
 9296TIP3    H152083   2.008   3.788   0.580 -1.2229 -0.1926  0.3567
 9296TIP3    H252084   2.022   3.728   0.718  1.4344 -0.7010 -0.0702
 9297TIP3   OH252085   2.573   2.919   2.840 -0.1494 -0.5214 -0.4814
 9297TIP3    H152086   2.523   2.851   2.794  0.6218 -0.4424 -1.4876
 9297TIP3    H252087   2.645   2.940   2.780 -0.1477  0.9098 -0.0131
 9298TIP3   OH252088   1.629   4.361   1.051  0.0983 -0.6138  0.3261
 9298TIP3    H152089   1.655   4.453   1.056  2.0430 -1.0443 -0.9987
 9298TIP3    H252090   1.533   4.363   1.048  0.1072  1.3541  0.3089
 9299TIP3   OH252091   3.461   4.925   1.276  0.3031 -0.4615  0.4667
 9299TIP3    H152092   3.421   4.863   1.337 -0.1643  1.1769  1.8978
 9299TIP3    H252093   3.528   4.873   1.230 -0.2540 -2.0754  1.3883
 9300TIP3   OH252094   5.955   6.128   2.133 -0.2128  0.2817  0.1467
 9300TIP3    H152095   5.864   6.119   2.160  0.5153 -3.6367  2.1591
 9300TIP3    H252096   5.964   6.072   2.056  0.5496  0.2248  0.2617
 9301TIP3   OH252097   2.459   4.409   3.535  0.3464  0.0321  0.2005
 9301TIP3    H152098   2.377   4.412   3.487  0.4643 -1.1742 -0.1153
 9301TIP3    H252099   2.453   4.481   3.598 -1.4836 -0.7475  1.0076
 9302TIP3   OH252100   2.008   7.592   1.241 -0.3277  0.2561 -0.1891
 9302TIP3    H152101   1.981   7.674   1.282  2.5083  0.7250  0.9812
 9302TIP3    H252102   1.979   7.524   1.303 -4.0628  0.0937 -1.8929
 9303TIP3   OH252103   2.942   5.387   2.227 -0.0894 -0.6108  0.2370
 9303TIP3    H152104   2.968   5.438   2.150  0.8017  0.4881  1.2115
 9303TIP3    H252105   2.994   5.425   2.299  0.0414 -2.4235  1.1539
 9304TIP3   OH252106   4.684   1.128   1.240  0.3416 -0.2324 -0.4684
 9304TIP3    H152107   4.612   1.066   1.239 -0.4504  0.5053 -4.3090
 9304TIP3    H252108   4.643   1.211   1.264  0.2716 -0.1681 -0.8044
 9305TIP3   OH252109   4.453   5.451   1.655 -0.6276  0.1129 -0.2708
 9305TIP3    H152110   4.446   5.406   1.739 -0.5711  1.6332  0.5815
 9305TIP3    H252111   4.530   5.507   1.665 -1.2973  1.1674 -0.9151
 9306TIP3   OH252112   4.770   0.511   2.034  0.3783  0.8925  0.0639
 9306TIP3    H152113   4.720   0.544   1.960  2.5198  0.2450 -1.7683
 9306TIP3    H252114   4.861   0.512   2.005  1.5544  2.0909  3.2526
 9307TIP3   OH252115   1.325   0.310   3.081 -0.2535 -0.4517  1.0489
 9307TIP3    H152116   1.235   0.308   3.112  0.6636 -0.8635  3.9321
 9307TIP3    H252117   1.369   0.372   3.138  1.1666  0.3396 -0.8099
 9308TIP3   OH252118   6.332   3.417   1.734  0.5969 -0.5089 -0.4983
 9308TIP3    H152119   6.406   3.359   1.749  1.2788  0.5717  0.4632
 9308TIP3    H252120   6.367   3.505   1.747 -1.2203 -0.0182  1.8217
 9309TIP3   OH252121   6.761   4.610   2.205  0.1640  0.4912  0.4796
 9309TIP3    H152122   6.765   4.541   2.139  1.1738 -0.0135  1.0416
 9309TIP3    H252123   6.736   4.564   2.286 -0.7617  1.0509  0.5231
 9310TIP3   OH252124   6.553   5.458   1.431  0.0895  0.3160 -0.5394
 9310TIP3    H152125   6.643   5.477   1.455  0.2928  1.3014 -1.9688
 9310TIP3    H252126   6.500   5.503   1.496  0.6156  0.6149 -0.3164
 9311TIP3   OH252127   4.275   0.209   3.349  0.3062 -0.3689  0.1544
 9311TIP3    H152128   4.312   0.147   3.412  2.5304  0.5648 -0.1550
 9311TIP3    H252129   4.195   0.166   3.318  1.2580 -2.6511  0.6461
 9312TIP3   OH252130   0.133   6.945   1.794  0.0615  0.5171  0.4870
 9312TIP3    H152131   0.040   6.924   1.803 -0.1798  1.4368  0.2330
 9312TIP3    H252132   0.134   7.025   1.741  1.1798 -1.5653 -2.8715
 9313TIP3   OH252133   6.793   0.966   0.692  0.1141 -0.3569  0.3939
 9313TIP3    H152134   6.727   1.006   0.748 -1.6631 -1.5392 -0.7506
 9313TIP3    H252135   6.869   0.953   0.750 -0.5095  1.3173  1.6696
 9314TIP3   OH252136   6.230   5.779   1.252 -0.8412  0.0610 -0.3379
 9314TIP3    H152137   6.213   5.874   1.248 -0.2005  0.2208  0.4484
 9314TIP3    H252138   6.323   5.773   1.273 -1.3152 -0.7128  1.6822
 9315TIP3   OH252139   7.352   6.015   0.379 -0.8954  0.2164  0.1524
 9315TIP3    H152140   7.387   6.098   0.411 -1.0255  0.6355 -0.7507
 9315TIP3    H252141   7.375   6.014   0.286 -0.7529 -0.8400  0.1799
 9316TIP3   OH252142   1.148   2.879   2.758  0.0991  1.0817 -0.0095
 9316TIP3    H152143   1.162   2.799   2.809  1.9465  0.8702 -0.7632
 9316TIP3    H252144   1.066   2.914   2.791 -0.9845 -1.3389  0.0713
 9317TIP3   OH252145   5.800   1.803   1.043 -0.6269 -0.1958  0.3207
 9317TIP3    H152146   5.761   1.822   0.957  1.3888 -1.6481 -1.0242
 9317TIP3    H252147   5.758   1.721   1.070 -0.6542 -0.1805  0.3247
 9318TIP3   OH252148   2.993   0.796   2.756  0.1278  0.0795 -0.3660
 9318TIP3    H152149   3.048   0.786   2.678  2.0317 -2.0652  1.1039
 9318TIP3    H252150   3.026   0.875   2.798  0.2105  0.3312 -0.8933
 9319TIP3   OH252151   0.212   5.831   2.365  0.2078  0.4538 -0.2499
 9319TIP3    H152152   0.194   5.741   2.395  0.8708 -0.0632 -1.3379
 9319TIP3    H252153   0.128   5.862   2.331  0.1039  0.0126 -0.4076
 9320TIP3   OH252154   3.685   6.787   3.364  0.3191 -0.1526 -0.2866
 9320TIP3    H152155   3.748   6.717   3.345  0.1856 -0.0449 -1.1530
 9320TIP3    H252156   3.693   6.847   3.291  0.0440  0.4742  0.1879
 9321TIP3   OH252157   0.060   3.064   2.154 -0.3809 -0.4110 -0.1560
 9321TIP3    H152158   0.137   3.017   2.186 -0.6986 -0.3051  0.7843
 9321TIP3    H252159   0.095   3.146   2.120 -0.0651 -0.4182  0.1427
 9322TIP3   OH252160   6.521   1.072   1.427 -0.0412 -1.0444  0.4255
 9322TIP3    H152161   6.499   1.088   1.336 -1.5986 -2.0994  0.5631
 9322TIP3    H252162   6.546   1.158   1.462 -1.1676 -0.2859 -0.5609
 9323TIP3   OH252163   0.390   1.445   2.302 -0.0576  0.3647  0.6380
 9323TIP3    H152164   0.406   1.468   2.211 -1.3812  2.2485  0.8234
 9323TIP3    H252165   0.464   1.482   2.350  0.6865 -0.7068  0.3575
 9324TIP3   OH252166   1.305   2.425   2.796 -0.2186  0.2612  0.3876
 9324TIP3    H152167   1.395   2.394   2.783  0.4486  2.6368 -1.3827
 9324TIP3    H252168   1.307   2.470   2.880 -0.0124 -0.4814  0.7865
 9325TIP3   OH252169   7.083   0.299   3.146  0.0140 -0.1009 -0.2023
 9325TIP3    H152170   7.122   0.377   3.185  1.3422 -0.2523 -1.1685
 9325TIP3    H252171   6.994   0.326   3.123  0.4444  1.1403 -0.5022
 9326TIP3   OH252172   1.025   0.101   2.165  0.0112 -0.7451 -0.2988
 9326TIP3    H152173   1.115   0.129   2.182  0.6657 -0.5503 -3.5972
 9326TIP3    H252174   1.031   0.006   2.151 -0.3621 -0.7744 -0.2751
 9327TIP3   OH252175   0.984   2.987   0.910  0.4159 -0.6117 -0.2031
 9327TIP3    H152176   0.895   3.014   0.933  0.6271 -0.3272  0.2988
 9327TIP3    H252177   1.021   2.955   0.992  1.9935  2.6306  0.5291
 9328TIP3   OH252178   3.809   2.167   3.449  0.3093  0.1002 -0.0937
 9328TIP3    H152179   3.762   2.244   3.479  0.6864  1.1416 -2.0388
 9328TIP3    H252180   3.740   2.109   3.415  0.2539  1.2430 -2.1124
 9329TIP3   OH252181   2.001   7.102   1.887  0.2139 -0.5968  0.2440
 9329TIP3    H152182   2.004   7.197   1.900  1.4674 -0.7079  0.8717
 9329TIP3    H252183   1.918   7.076   1.927 -0.3531  0.2821 -0.3197
 9330TIP3   OH252184   1.407   2.710   2.860  0.1671  0.2414 -0.0382
 9330TIP3    H152185   1.500   2.715   2.882  0.4058  0.9948 -1.1169
 9330TIP3    H252186   1.361   2.747   2.935  0.8248  1.0787 -0.0451
 9331TIP3   OH252187   0.971   4.223   1.034 -0.2096 -0.0229  0.7612
 9331TIP3    H152188   1.033   4.241   0.964 -2.0415  2.1412 -0.4467
 9331TIP3    H252189   0.900   4.173   0.993 -0.9806  0.6789  1.1880
 9332TIP3   OH252190   4.482   1.510   2.873 -0.0121 -0.7635  0.0696
 9332TIP3    H152191   4.576   1.509   2.885  0.0154 -1.2664 -0.1674
 9332TIP3    H252192   4.455   1.598   2.900  0.4545 -0.7828  0.6029
 9333TIP3   OH252193   6.629   6.832   1.812 -0.2677  0.2929 -0.1555
 9333TIP3    H152194   6.657   6.837   1.721  0.6050 -0.2398  0.0714
 9333TIP3    H252195   6.569   6.757   1.814  0.4199 -0.2687 -0.1277
 9334TIP3   OH252196   3.617   0.379   3.235 -0.8640 -0.5808  0.3852
 9334TIP3    H152197   3.567   0.369   3.316  0.4826 -2.3857  1.0540
 9334TIP3    H252198   3.575   0.453   3.190 -2.6099 -0.5241  1.9847
 9335TIP3   OH252199   1.657   6.256   0.510 -0.2211 -0.3534  0.6897
 9335TIP3    H152200   1.628   6.331   0.457 -1.1909 -1.2786 -0.1356
 9335TIP3    H252201   1.722   6.293   0.570 -0.3405  1.0580 -0.0037
 9336TIP3   OH252202   5.771   7.264   1.154  0.4545 -0.2575 -0.0114
 9336TIP3    H152203   5.676   7.254   1.146  0.4213 -0.2808  0.4003
 9336TIP3    H252204   5.807   7.194   1.099  0.2314 -0.5470  0.2082
 9337TIP3   OH252205   6.315   1.100   1.660 -0.4613  0.2474  0.0410
 9337TIP3    H152206   6.380   1.067   1.597 -0.3637  1.5461 -0.5757
 9337TIP3    H252207   6.298   1.026   1.719  0.7954 -0.4397 -0.4276
 9338TIP3   OH252208   7.100   7.640   2.531  0.3221 -0.6375 -0.1629
 9338TIP3    H152209   7.037   7.583   2.575 -0.6128  0.6600  0.2672
 9338TIP3    H252210   7.179   7.635   2.586 -0.1595 -0.5880  0.5509
 9339TIP3   OH252211   1.460   5.400   1.990  0.1325 -0.1297  0.0521
 9339TIP3    H152212   1.424   5.394   1.901  0.6451  1.6254 -0.2979
 9339TIP3    H252213   1.389   5.369   2.046 -1.0429  0.9233 -0.8041
 9340TIP3   OH252214   4.638   4.843   1.692 -0.1192  0.1165 -0.1913
 9340TIP3    H152215   4.733   4.835   1.682  0.3106  3.6750 -0.2138
 9340TIP3    H252216   4.621   4.813   1.781  0.7827 -1.8623 -0.6447
 9341TIP3   OH252217   7.112   1.795   1.585  0.1955 -0.1273 -0.0455
 9341TIP3    H152218   7.150   1.834   1.664  0.8931  1.1346 -0.9719
 9341TIP3    H252219   7.095   1.704   1.609  2.0491 -0.2420  1.0071
 9342TIP3   OH252220   0.946   2.009   2.391 -0.1721  0.3858  0.6804
 9342TIP3    H152221   0.999   2.026   2.313 -0.6234 -1.6028 -0.1228
 9342TIP3    H252222   0.885   2.082   2.395  0.0764  0.6884 -0.6435
 9343TIP3   OH252223   0.210   2.169   3.180  0.2559  0.0190  0.0694
 9343TIP3    H152224   0.181   2.246   3.130  1.2382 -0.0971 -0.7098
 9343TIP3    H252225   0.147   2.100   3.156 -0.5824  0.5397  0.7127
 9344TIP3   OH252226   4.564   4.710   2.911 -0.2673  0.6042  0.0371
 9344TIP3    H152227   4.622   4.671   2.845  1.0587  0.3210  1.3245
 9344TIP3    H252228   4.623   4.754   2.972 -1.5158  1.4898  0.6423
 9345TIP3   OH252229   5.815   0.185   2.410  0.1287  0.3349 -0.3411
 9345TIP3    H152230   5.770   0.143   2.483 -1.2519  0.1850 -1.2373
 9345TIP3    H252231   5.908   0.177   2.431 -0.1484 -1.7747  0.2748
 9346TIP3   OH252232   1.016   3.468   1.384 -0.0039 -0.4520  0.3367
 9346TIP3    H152233   0.924   3.486   1.402 -0.2419 -2.1032  0.9387
 9346TIP3    H252234   1.023   3.372   1.387  1.6359 -0.3830 -0.1807
 9347TIP3   OH252235   5.321   7.545   3.289 -0.4757  0.9827 -0.3642
 9347TIP3    H152236   5.286   7.608   3.226 -0.1170 -0.5752 -2.1821
 9347TIP3    H252237   5.410   7.576   3.307 -0.2038  0.8489 -1.4519
 9348TIP3   OH252238   7.005   5.450   2.611 -0.2299 -0.6179 -0.4327
 9348TIP3    H152239   6.930   5.509   2.622  0.3025 -0.0706  0.3456
 9348TIP3    H252240   7.078   5.508   2.590  0.6666 -0.7838  1.9340
 9349TIP3   OH252241   1.177   1.612   1.434 -0.0318 -0.9291 -0.0172
 9349TIP3    H152242   1.103   1.634   1.377 -0.2310 -0.1638  0.5254
 9349TIP3    H252243   1.150   1.641   1.521 -0.3074 -3.3393  0.7775
 9350TIP3   OH252244   4.905   5.366   1.560  0.1565  0.8145 -0.0351
 9350TIP3    H152245   4.859   5.335   1.482  0.1069  1.0311 -0.0918
 9350TIP3    H252246   4.901   5.291   1.621  0.8599  0.3775 -0.5184
 9351TIP3   OH252247   1.342   5.757   0.943 -0.4638 -0.1672 -0.0249
 9351TIP3    H152248   1.300   5.836   0.912  0.4772  0.2341 -0.3193
 9351TIP3    H252249   1.385   5.720   0.866 -0.7722 -0.8915  0.1374
 9352TIP3   OH252250   3.728   0.125   1.601 -0.6521 -0.0910  0.0654
 9352TIP3    H152251   3.811   0.080   1.585 -0.9041 -1.1718  1.6013
 9352TIP3    H252252   3.753   0.211   1.633 -0.0896 -0.6597  1.2083
 9353TIP3   OH252253   1.767   3.319   1.526 -0.3294 -0.5319  0.1901
 9353TIP3    H152254   1.798   3.229   1.532 -1.4327 -0.8809  0.8942
 9353TIP3    H252255   1.675   3.312   1.499 -0.4075  0.3731  0.1681
 9354TIP3   OH252256   6.935   6.086   2.438  0.4686  0.1164  0.2510
 9354TIP3    H152257   6.883   6.104   2.360 -0.7779  3.0160  1.5970
 9354TIP3    H252258   6.986   6.166   2.451  0.7809 -0.3722  2.2679
 9355TIP3   OH252259   2.989   2.694   2.495 -0.0764 -0.4934 -0.3217
 9355TIP3    H152260   3.071   2.716   2.452  0.6537 -1.4070  0.5690
 9355TIP3    H252261   2.947   2.631   2.437 -0.6040  0.6622 -1.2319
 9356TIP3   OH252262   1.100   1.156   1.523  0.1659 -0.4161 -0.4455
 9356TIP3    H152263   1.126   1.248   1.528 -0.8797 -0.0466 -1.4355
 9356TIP3    H252264   1.022   1.156   1.467 -0.4983 -1.7717  0.4274
 9357TIP3   OH252265   5.076   2.610   0.943  0.0738  0.6508 -0.6462
 9357TIP3    H152266   5.038   2.559   0.872 -1.7329  1.3832 -0.2588
 9357TIP3    H252267   5.020   2.688   0.950  0.0077  0.4644  1.7493
 9358TIP3   OH252268   5.609   3.596   0.831 -0.0502  0.1134  0.0476
 9358TIP3    H152269   5.619   3.566   0.921  1.6272 -0.6281 -0.3415
 9358TIP3    H252270   5.560   3.678   0.837 -0.6118 -0.3116  1.5525
 9359TIP3   OH252271   3.369   6.774   0.686  0.4766 -0.2746 -0.0085
 9359TIP3    H152272   3.395   6.841   0.622 -0.5205 -0.7112 -0.8983
 9359TIP3    H252273   3.399   6.692   0.648  0.7032 -0.4455  0.5381
 9360TIP3   OH252274   1.796   6.988   3.161 -0.2176 -0.6684 -0.0487
 9360TIP3    H152275   1.853   7.054   3.200 -0.8260  0.0997 -0.4289
 9360TIP3    H252276   1.826   6.905   3.198  4.0390 -0.9637 -3.4292
 9361TIP3   OH252277   5.306   2.775   0.937  0.1282 -0.3081  0.0243
 9361TIP3    H152278   5.388   2.729   0.957  0.5564 -0.2072 -1.4372
 9361TIP3    H252279   5.238   2.720   0.977  0.9276  0.0098  1.9395
 9362TIP3   OH252280   2.340   6.669   1.792 -0.3186  0.1917 -0.4121
 9362TIP3    H152281   2.259   6.718   1.780 -0.2864  0.4886  0.4736
 9362TIP3    H252282   2.343   6.651   1.886  0.2933 -0.4301 -0.5425
 9363TIP3   OH252283   7.307   0.369   1.127 -0.2932 -0.6627 -0.1527
 9363TIP3    H152284   7.263   0.284   1.116  0.3420 -1.0599  0.2765
 9363TIP3    H252285   7.382   0.364   1.067 -1.3052  0.3704 -1.5747
 9364TIP3   OH252286   2.682   7.478   2.857 -0.0910 -0.1993 -0.0894
 9364TIP3    H152287   2.641   7.518   2.781 -0.1189 -2.1218 -1.1707
 9364TIP3    H252288   2.741   7.545   2.891 -0.3868  0.8596 -1.5646
 9365TIP3   OH252289   2.562   0.891   1.985 -0.3610 -0.0663 -0.3540
 9365TIP3    H152290   2.470   0.870   1.970  0.1240 -1.1690 -2.1344
 9365TIP3    H252291   2.580   0.861   2.074 -1.4520 -0.8725 -0.3941
 9366TIP3   OH252292   2.902   2.805   3.242  0.3376  0.5888  0.2534
 9366TIP3    H152293   2.864   2.803   3.154 -1.7247  2.8073  0.9931
 9366TIP3    H252294   2.993   2.777   3.229 -0.1865 -0.1763 -2.3971
 9367TIP3   OH252295   1.844   6.306   0.750  0.5976  0.4374  0.2109
 9367TIP3    H152296   1.922   6.337   0.795  1.1325  0.7103 -0.8829
 9367TIP3    H252297   1.778   6.298   0.819  2.3879 -2.8746  1.8031
 9368TIP3   OH252298   5.816   3.130   0.745 -1.0861  0.4236 -0.0241
 9368TIP3    H152299   5.777   3.212   0.713  1.0024  2.1189  1.4638
 9368TIP3    H252300   5.856   3.091   0.668  0.1107  2.1956 -0.3642
 9369TIP3   OH252301   1.538   1.731   1.631  0.2315 -0.0854 -0.1474
 9369TIP3    H152302   1.546   1.821   1.599 -0.4635 -0.5549 -1.7485
 9369TIP3    H252303   1.454   1.701   1.596  0.7743 -1.5835 -0.2254
 9370TIP3   OH252304   5.506   1.951   1.235  0.3288  0.6939  0.3210
 9370TIP3    H152305   5.495   1.878   1.175  0.9474 -1.1250  2.2913
 9370TIP3    H252306   5.418   1.968   1.268  0.0873  1.2919 -0.5822
 9371TIP3   OH252307   4.797   3.394   3.116 -0.1292 -0.5881  0.0554
 9371TIP3    H152308   4.841   3.419   3.035 -0.9972 -0.1297 -0.2827
 9371TIP3    H252309   4.726   3.337   3.089 -1.4676  0.9041  0.2986
 9372TIP3   OH252310   6.019   4.499   1.460  0.3857 -0.4198 -0.0603
 9372TIP3    H152311   6.047   4.522   1.548  0.4961 -2.3664  0.4525
 9372TIP3    H252312   6.026   4.581   1.410 -2.3239  1.4540  2.3396
 9373TIP3   OH252313   5.073   2.238   0.759  0.7632 -0.2765 -0.5821
 9373TIP3    H152314   4.998   2.297   0.747  0.2982 -0.3865  1.3994
 9373TIP3    H252315   5.129   2.255   0.683 -0.9366  0.2765 -1.8000
 9374TIP3   OH252316   7.049   2.929   2.088  0.0861 -0.2786 -0.2524
 9374TIP3    H152317   7.136   2.949   2.124  0.3594 -0.7814 -0.6297
 9374TIP3    H252318   7.046   2.976   2.005 -0.6616  1.1306  0.5319
 9375TIP3   OH252319   1.772   3.863   1.719 -0.1829 -0.2807 -0.0252
 9375TIP3    H152320   1.685   3.904   1.724 -0.7881 -1.5939  0.5133
 9375TIP3    H252321   1.760   3.789   1.660  0.8650  0.1996 -0.8614
 9376TIP3   OH252322   3.449   0.123   1.571  0.1184 -0.3411  0.3032
 9376TIP3    H152323   3.454   0.153   1.480 -2.3127  1.3789  0.6256
 9376TIP3    H252324   3.538   0.134   1.605  0.4713  1.7782 -1.0997
 9377TIP3   OH252325   1.649   5.697   2.837  0.2567  0.6779  0.7407
 9377TIP3    H152326   1.698   5.757   2.781  0.9765 -1.2726 -0.8533
 9377TIP3    H252327   1.716   5.637   2.871 -0.5730  0.0706  1.3438
 9378TIP3   OH252328   2.989   2.770   2.098 -0.0283 -0.0313  0.4754
 9378TIP3    H152329   3.004   2.698   2.159 -0.8370 -0.9656 -0.3937
 9378TIP3    H252330   3.064   2.828   2.111  0.3457 -0.7271  1.6034
 9379TIP3   OH252331   7.284   3.800   0.596 -0.6319 -0.5595 -0.8055
 9379TIP3    H152332   7.304   3.714   0.632  1.8604  0.5849  0.8400
 9379TIP3    H252333   7.215   3.835   0.653  0.3270 -0.4060  0.2932
 9380TIP3   OH252334   4.788   2.540   0.475 -0.1133 -0.2080 -0.6465
 9380TIP3    H152335   4.806   2.584   0.558  0.4881  0.0669 -0.9165
 9380TIP3    H252336   4.823   2.599   0.408  1.9887 -1.6924 -0.9579
 9381TIP3   OH252337   1.868   1.691   2.286 -0.6648  0.2558  0.1062
 9381TIP3    H152338   1.903   1.665   2.201  1.0751 -0.0000  0.8551
 9381TIP3    H252339   1.794   1.748   2.266 -2.2342 -2.1778 -1.5845
 9382TIP3   OH252340   5.292   2.010   0.750  0.3721 -0.4853  0.2047
 9382TIP3    H152341   5.243   2.089   0.772  1.1838  0.3706 -0.9305
 9382TIP3    H252342   5.236   1.938   0.779 -0.4322  0.4997  1.1550
 9383TIP3   OH252343   2.084   1.622   1.757  0.2978 -0.2374 -0.3571
 9383TIP3    H152344   2.144   1.625   1.682 -0.1886  1.2933 -0.7110
 9383TIP3    H252345   1.998   1.610   1.719  0.0451  0.5718 -0.0558
 9384TIP3   OH252346   1.651   2.612   1.014  0.7389 -0.2570  0.4812
 9384TIP3    H152347   1.604   2.673   1.072 -2.0594 -1.0858 -0.7451
 9384TIP3    H252348   1.677   2.666   0.939 -0.7325 -0.3080 -0.0854
 9385TIP3   OH252349   6.058   2.378   0.916 -0.1637 -0.1960 -0.4128
 9385TIP3    H152350   5.978   2.345   0.957 -0.7699  1.5905 -0.0833
 9385TIP3    H252351   6.126   2.318   0.947 -1.1226 -0.8294  0.5692
 9386TIP3   OH252352   1.661   4.763   1.921  0.3961  0.2661 -0.1920
 9386TIP3    H152353   1.672   4.761   2.016 -0.0609 -0.0637 -0.1456
 9386TIP3    H252354   1.577   4.807   1.907  0.5030  0.3923 -0.4504
 9387TIP3   OH252355   3.976   0.761   2.089 -0.0926 -0.0907 -0.8476
 9387TIP3    H152356   3.951   0.738   2.000  0.1492  0.6059 -1.1000
 9387TIP3    H252357   3.939   0.849   2.103 -2.6778 -1.2864  0.7666
 9388TIP3   OH252358   0.206   6.363   0.704  0.0311 -0.1618  0.2567
 9388TIP3    H152359   0.220   6.427   0.635 -1.0700  0.7476  0.8254
 9388TIP3    H252360   0.115   6.335   0.692 -0.0162 -0.3623  1.0299
 9389TIP3   OH252361   3.113   3.832   0.850 -0.0079  0.2545  0.0200
 9389TIP3    H152362   3.147   3.898   0.790  0.1506  0.8822  0.7790
 9389TIP3    H252363   3.083   3.761   0.794  1.3176  0.2682 -0.7224
 9390TIP3   OH252364   6.297   4.129   0.922  0.0770 -0.4030 -0.1632
 9390TIP3    H152365   6.386   4.163   0.931 -0.3456  0.7065 -0.0522
 9390TIP3    H252366   6.291   4.103   0.830  0.1242  0.6883 -0.4853
 9391TIP3   OH252367   1.137   0.886   1.848  0.4897  0.3223 -0.3442
 9391TIP3    H152368   1.139   0.847   1.760 -1.0823  2.1644 -1.2822
 9391TIP3    H252369   1.223   0.865   1.885  0.6077 -1.8615 -1.6852
 9392TIP3   OH252370   4.738   2.605   1.763 -0.3166  0.1313  0.7756
 9392TIP3    H152371   4.834   2.605   1.765 -0.1862 -1.9008 -1.5194
 9392TIP3    H252372   4.713   2.524   1.808 -0.7980 -0.5786 -0.7072
 9393TIP3   OH252373   4.527   2.947   1.690  0.9145 -0.1729  0.0086
 9393TIP3    H152374   4.473   2.905   1.757  0.0992  0.6895 -0.0898
 9393TIP3    H252375   4.613   2.958   1.731  0.5233  0.0234  0.7767
 9394TIP3   OH252376   4.791   4.944   1.275 -0.0424 -0.5743 -0.1564
 9394TIP3    H152377   4.848   4.880   1.317 -0.4527 -1.8028 -1.3791
 9394TIP3    H252378   4.706   4.931   1.318 -0.2347 -1.1929 -0.6961
 9395TIP3   OH252379   6.501   7.056   0.909  0.7296 -0.0897 -0.4234
 9395TIP3    H152380   6.522   6.969   0.873  1.0122  0.6136 -2.0555
 9395TIP3    H252381   6.586   7.092   0.935  0.8322  0.3211 -1.2799
 9396TIP3   OH252382   3.217   0.637   2.809  0.3603  0.4275 -0.5237
 9396TIP3    H152383   3.151   0.707   2.812  0.8540  0.9270 -1.1147
 9396TIP3    H252384   3.224   0.606   2.899 -2.3827 -1.2506 -0.7533
 9397TIP3   OH252385   0.307   4.400   1.068  0.2441  0.1318 -0.2457
 9397TIP3    H152386   0.248   4.327   1.085  0.4641  0.1264  0.5308
 9397TIP3    H252387   0.251   4.477   1.072  0.0897  0.0406 -0.6331
 9398TIP3   OH252388   6.529   5.655   1.147  0.6734  0.8179  0.1380
 9398TIP3    H152389   6.617   5.621   1.130  1.2684  1.9752  0.7069
 9398TIP3    H252390   6.480   5.580   1.180  1.6740  0.3239  0.5520
 9399TIP3   OH252391   2.740   2.814   3.475 -0.7076  0.2750  0.0716
 9399TIP3    H152392   2.734   2.910   3.483 -1.2243  0.3674 -1.2450
 9399TIP3    H252393   2.810   2.800   3.411  0.3533 -0.2956  1.2999
 9400TIP3   OH252394   4.449   1.983   1.027  0.3732  0.0736 -0.6230
 9400TIP3    H152395   4.363   1.943   1.034  0.5460 -0.2152 -0.1162
 9400TIP3    H252396   4.480   1.958   0.940 -0.5965  1.2800 -1.3514
 9401TIP3   OH252397   5.303   2.475   2.746  0.6244  0.3502 -0.1904
 9401TIP3    H152398   5.365   2.538   2.781  1.9236 -1.9403  1.9348
 9401TIP3    H252399   5.224   2.485   2.800 -0.3319  2.0861 -1.7900
 9402TIP3   OH252400   4.476   7.564   2.647  0.3401 -0.0456 -0.2456
 9402TIP3    H152401   4.523   7.570   2.730  1.0631  0.6644 -0.6885
 9402TIP3    H252402   4.539   7.595   2.582 -0.3703 -0.1557 -1.0006
 9403TIP3   OH252403   1.307   7.378   2.241  0.2021  0.2914  0.7713
 9403TIP3    H152404   1.303   7.343   2.330 -0.2627 -2.0684 -0.1122
 9403TIP3    H252405   1.298   7.302   2.185  2.8360  1.3901 -1.3650
 9404TIP3   OH252406   3.176   0.825   2.017 -0.1570 -0.3407  0.2652
 9404TIP3    H152407   3.244   0.820   1.950 -0.4584 -0.1412 -0.0596
 9404TIP3    H252408   3.131   0.740   2.011 -0.8353  0.0514 -0.4955
 9405TIP3   OH252409   0.853   3.397   1.018 -0.4522 -0.2519  0.1936
 9405TIP3    H152410   0.791   3.440   0.959  0.1968 -2.0235 -1.9352
 9405TIP3    H252411   0.799   3.343   1.076 -0.9955 -0.9282 -0.9093
 9406TIP3   OH252412   1.516   0.131   1.982  0.5782  0.2281  0.2414
 9406TIP3    H152413   1.440   0.080   1.954  1.8894 -0.7713 -1.8149
 9406TIP3    H252414   1.546   0.087   2.062 -0.2435 -0.1584  0.3473
 9407TIP3   OH252415   5.741   5.266   2.745 -0.3113  0.0332 -0.1067
 9407TIP3    H152416   5.789   5.343   2.777 -1.1237  0.3592  0.3438
 9407TIP3    H252417   5.793   5.191   2.774  1.1651  0.4158 -1.6086
 9408TIP3   OH252418   3.116   4.399   3.043  0.5609 -0.0521 -0.7555
 9408TIP3    H152419   3.201   4.403   2.999  0.6826  0.1969 -0.5033
 9408TIP3    H252420   3.096   4.306   3.048 -0.0308 -0.0489 -2.4215
 9409TIP3   OH252421   4.010   4.730   1.154 -0.2373 -0.6317  0.0931
 9409TIP3    H152422   4.076   4.774   1.100  2.0362 -2.8432  0.8484
 9409TIP3    H252423   3.972   4.664   1.096 -1.0185 -0.1087 -0.0089
 9410TIP3   OH252424   2.796   7.540   2.537 -0.0640  0.1579  0.4611
 9410TIP3    H152425   2.846   7.489   2.601  1.3035  1.4178  0.4327
 9410TIP3    H252426   2.806   7.631   2.565  0.1275  0.6983 -1.2362
 9411TIP3   OH252427   0.126   4.824   1.394  0.4863 -0.6756 -0.6222
 9411TIP3    H152428   0.037   4.796   1.369  0.0572 -0.2803  0.4037
 9411TIP3    H252429   0.180   4.746   1.382 -0.6345 -1.9639  1.9465
 9412TIP3   OH252430   4.576   1.650   1.677 -0.4172 -0.4564  0.3049
 9412TIP3    H152431   4.594   1.727   1.731 -1.3075 -0.9759  1.3768
 9412TIP3    H252432   4.482   1.655   1.659 -0.1430 -0.3213 -1.1658
 9413TIP3   OH252433   3.434   7.663   2.172  0.1675  0.0135 -0.4550
 9413TIP3    H152434   3.527   7.650   2.158  1.0165  1.4262  2.9208
 9413TIP3    H252435   3.402   7.580   2.207  0.3629 -0.2064 -0.8068
 9414TIP3   OH252436   2.165   5.698   1.849  0.2030 -0.0864 -0.1143
 9414TIP3    H152437   2.243   5.751   1.835  1.3017 -1.1484  1.6223
 9414TIP3    H252438   2.094   5.762   1.858  0.8428  0.8883 -1.6783
 9415TIP3   OH252439   2.849   7.136   2.004  0.2274 -0.1133  0.3805
 9415TIP3    H152440   2.824   7.083   2.080 -1.1014  1.0313  0.7954
 9415TIP3    H252441   2.800   7.097   1.931  0.0231 -0.0626  0.4898
 9416TIP3   OH252442   4.446   0.121   1.003  0.2134 -0.0103  0.2273
 9416TIP3    H152443   4.423   0.092   0.914  1.0994  1.4215 -0.5060
 9416TIP3    H252444   4.385   0.193   1.020 -0.4154 -0.7235  1.0880
 9417TIP3   OH252445   3.329   4.216   0.797  0.4192  0.0532  0.1741
 9417TIP3    H152446   3.281   4.287   0.755  0.2952 -0.6811 -0.9681
 9417TIP3    H252447   3.273   4.189   0.870  0.9386  1.7715  1.2659
 9418TIP3   OH252448   6.186   0.197   1.665  0.1173  0.5730  0.3610
 9418TIP3    H152449   6.159   0.214   1.755  2.0851 -2.8728  1.7890
 9418TIP3    H252450   6.281   0.213   1.665  0.1706  0.4083 -1.0852
 9419TIP3   OH252451   2.640   5.501   0.962 -0.6087 -0.5852  0.0479
 9419TIP3    H152452   2.646   5.505   1.057  0.1405 -1.5060  0.0594
 9419TIP3    H252453   2.553   5.534   0.941 -0.2184  1.1179  0.9308
 9420TIP3   OH252454   1.156   5.698   1.967 -0.3262  0.2563 -0.3396
 9420TIP3    H152455   1.184   5.790   1.972 -1.1341  0.4797  0.1988
 9420TIP3    H252456   1.149   5.680   1.873  2.0481  0.0462 -0.5509
 9421TIP3   OH252457   0.536   7.411   1.879 -0.2499 -0.0456 -0.0030
 9421TIP3    H152458   0.502   7.493   1.843  0.0858  1.1611  2.2858
 9421TIP3    H252459   0.631   7.424   1.884 -0.3638  0.3308  2.3194
 9422TIP3   OH252460   5.448   3.477   1.375 -0.2706 -0.7146 -0.3983
 9422TIP3    H152461   5.524   3.523   1.410 -1.8126  2.2742 -0.7142
 9422TIP3    H252462   5.378   3.542   1.376 -2.5666 -3.0297 -1.1359
 9423TIP3   OH252463   6.275   4.074   2.661 -0.0296 -0.1023 -0.1759
 9423TIP3    H152464   6.224   4.036   2.589  0.6257  1.0739 -1.3189
 9423TIP3    H252465   6.214   4.131   2.706 -0.1933 -0.0748 -0.4272
 9424TIP3   OH252466   3.924   2.903   0.552 -0.6326  0.1179 -0.1479
 9424TIP3    H152467   3.979   2.957   0.495  1.1164 -1.3567  0.0475
 9424TIP3    H252468   3.887   2.965   0.615 -0.2631  1.3529 -1.0954
 9425TIP3   OH252469   4.025   4.729   2.647 -0.6970  0.5287  0.4091
 9425TIP3    H152470   4.031   4.652   2.590 -2.3217  0.2322  0.6090
 9425TIP3    H252471   4.113   4.737   2.684 -0.1646 -0.4869 -0.5660
 9426TIP3   OH252472   0.426   6.886   2.831  0.2428 -0.4908 -0.1266
 9426TIP3    H152473   0.439   6.978   2.810  0.5715 -0.6233 -0.5259
 9426TIP3    H252474   0.382   6.850   2.754 -0.1081 -0.6152  0.1301
 9427TIP3   OH252475   3.779   5.648   0.466 -0.1089 -0.3013  0.5585
 9427TIP3    H152476   3.766   5.728   0.415  1.4910  0.1846  0.8639
 9427TIP3    H252477   3.731   5.663   0.547  2.3607  1.5441  1.7828
 9428TIP3   OH252478   2.498   7.349   3.199 -0.2150 -0.2560 -0.2530
 9428TIP3    H152479   2.508   7.396   3.282  2.0454  0.2694 -0.7672
 9428TIP3    H252480   2.475   7.260   3.225  1.2463 -0.3103  1.0143
 9429TIP3   OH252481   1.652   6.717   3.312 -0.2216  0.0902  0.6578
 9429TIP3    H152482   1.745   6.722   3.290 -0.7325  1.3543 -1.3935
 9429TIP3    H252483   1.635   6.623   3.320  0.8818 -0.2464 -0.5797
 9430TIP3   OH252484   4.499   4.632   2.599  0.0082 -0.1345  0.0718
 9430TIP3    H152485   4.581   4.601   2.636  1.0197  1.5157 -0.6661
 9430TIP3    H252486   4.487   4.581   2.519  0.5708 -0.0576 -0.0650
 9431TIP3   OH252487   6.577   7.572   1.815  0.4414 -0.2550 -0.4811
 9431TIP3    H152488   6.602   7.613   1.898  0.6576  1.5367 -1.3995
 9431TIP3    H252489   6.655   7.522   1.789  1.4815  1.5651 -1.0304
 9432TIP3   OH252490   1.424   0.621   2.450  0.5087  0.2768  0.2725
 9432TIP3    H152491   1.402   0.528   2.458 -0.3808  0.5963  1.9964
 9432TIP3    H252492   1.512   0.628   2.487  0.9851 -0.0120 -0.7720
 9433TIP3   OH252493   0.583   3.751   1.690  0.6137 -0.1913 -0.5504
 9433TIP3    H152494   0.631   3.822   1.649 -1.3412  0.1976 -2.3095
 9433TIP3    H252495   0.563   3.783   1.778 -0.8955  1.8019 -1.5590
 9434TIP3   OH252496   3.260   1.292   3.237  0.0352 -0.3911 -0.2091
 9434TIP3    H152497   3.196   1.345   3.189  0.0477  0.9253  1.1470
 9434TIP3    H252498   3.345   1.331   3.214  0.0003  0.6458  1.2786
 9435TIP3   OH252499   3.002   5.814   2.793  0.2139 -0.0687 -0.3565
 9435TIP3    H152500   2.972   5.904   2.795  0.5794  0.0537  1.1080
 9435TIP3    H252501   2.950   5.771   2.725 -1.7118  0.6422  0.6231
 9436TIP3   OH252502   0.916   5.921   1.634 -0.3497 -0.2593 -0.2926
 9436TIP3    H152503   0.967   5.840   1.641 -1.1410 -0.8904 -1.3581
 9436TIP3    H252504   0.895   5.944   1.724  0.6608 -0.7363  0.0778
 9437TIP3   OH252505   4.936   5.454   2.309  0.1993 -0.3438  0.6768
 9437TIP3    H152506   4.935   5.521   2.376 -2.8175 -1.0013  1.4428
 9437TIP3    H252507   4.858   5.471   2.256  1.8421 -0.5473 -1.9927
 9438TIP3   OH252508   2.836   6.481   3.646  0.1751 -0.3334 -0.4700
 9438TIP3    H152509   2.792   6.520   3.721  0.9194  1.1576 -0.7655
 9438TIP3    H252510   2.818   6.387   3.653 -1.0332 -0.0403  0.7083
 9439TIP3   OH252511   4.426   6.367   2.801  0.0423  0.2564  0.5557
 9439TIP3    H152512   4.477   6.299   2.844  1.2745  0.6924 -0.1635
 9439TIP3    H252513   4.365   6.399   2.869 -0.2629 -1.2426  1.0145
 9440TIP3   OH252514   5.409   7.216   2.652 -0.6845 -0.0130  0.1611
 9440TIP3    H152515   5.475   7.147   2.641  0.3441  0.7114  1.4931
 9440TIP3    H252516   5.332   7.170   2.684  0.3913 -0.4520  2.3137
 9441TIP3   OH252517   7.269   1.609   0.650 -0.9295 -0.4617 -0.0191
 9441TIP3    H152518   7.237   1.532   0.604 -1.8593 -0.5719  0.7779
 9441TIP3    H252519   7.340   1.643   0.595 -3.5348  0.8467 -2.8236
 9442TIP3   OH252520   7.427   3.522   2.420 -0.3124 -0.9463  0.0556
 9442TIP3    H152521   7.428   3.436   2.460 -1.6701 -1.4563 -0.9365
 9442TIP3    H252522   7.503   3.522   2.361 -0.7042 -1.7469 -0.4649
 9443TIP3   OH252523   1.443   1.924   3.243 -0.1013  0.3709  0.4531
 9443TIP3    H152524   1.509   1.904   3.309 -0.7463 -2.1492  0.4337
 9443TIP3    H252525   1.424   1.839   3.202 -0.8779  1.5869 -1.8716
 9444TIP3   OH252526   2.694   2.256   1.311  0.1465 -0.1115  0.3022
 9444TIP3    H152527   2.614   2.221   1.272  0.2778  1.4123 -1.4504
 9444TIP3    H252528   2.665   2.301   1.390 -0.5860 -0.4250  0.2184
 9445TIP3   OH252529   6.703   2.699   2.010  0.0465 -0.5816 -0.2931
 9445TIP3    H152530   6.738   2.760   1.945 -2.0916 -0.3598 -1.3279
 9445TIP3    H252531   6.752   2.618   1.994  1.7693  0.3405  0.0047
 9446TIP3   OH252532   4.354   4.237   2.169 -0.2436  0.2254 -0.3328
 9446TIP3    H152533   4.422   4.232   2.102 -0.3674  0.2275 -0.4585
 9446TIP3    H252534   4.272   4.239   2.120 -0.2780  2.1630 -0.2735
 9447TIP3   OH252535   2.330   1.783   1.310  0.1267 -0.2584 -0.2712
 9447TIP3    H152536   2.250   1.752   1.267 -0.7614  0.4978  0.7724
 9447TIP3    H252537   2.401   1.751   1.254 -0.9240 -0.2605 -1.6737
 9448TIP3   OH252538   5.141   3.345   2.140 -0.3092 -0.5044 -0.6229
 9448TIP3    H152539   5.144   3.412   2.209 -1.3381 -2.0570  1.0330
 9448TIP3    H252540   5.200   3.277   2.171 -1.3492 -1.5553 -0.8674
 9449TIP3   OH252541   3.663   1.992   3.282  0.1034 -0.0710 -0.4049
 9449TIP3    H152542   3.725   1.919   3.282  0.1916 -0.0535  1.3551
 9449TIP3    H252543   3.578   1.952   3.301  0.1515  0.2545  0.5697
 9450TIP3   OH252544   2.550   5.474   3.271  0.2599 -0.0620  0.0194
 9450TIP3    H152545   2.624   5.441   3.221  0.4726  2.0638 -1.2054
 9450TIP3    H252546   2.481   5.409   3.259  0.4749  0.1166 -2.7058
 9451TIP3   OH252547   1.896   2.542   1.368  0.3696 -0.0934 -0.1200
 9451TIP3    H152548   1.941   2.535   1.284 -2.2242  1.5851 -1.8105
 9451TIP3    H252549   1.858   2.629   1.367 -2.6871 -1.2744  1.1496
 9452TIP3   OH252550   4.180   3.026   2.671 -0.3064  0.1165  0.1370
 9452TIP3    H152551   4.157   2.964   2.603 -1.1678 -0.1638  0.6678
 9452TIP3    H252552   4.112   3.016   2.737 -0.2659  1.3737  0.3973
 9453TIP3   OH252553   1.289   3.302   1.092  0.0569  0.3985 -0.0101
 9453TIP3    H152554   1.344   3.227   1.113  1.9271  1.5425 -0.6251
 9453TIP3    H252555   1.257   3.284   1.003  1.4580  0.8490 -0.6214
 9454TIP3   OH252556   0.900   0.999   2.788  0.0375  0.0771 -0.1913
 9454TIP3    H152557   0.947   0.945   2.852 -0.9125 -0.7715 -0.1665
 9454TIP3    H252558   0.870   0.936   2.722 -2.3535  0.2736  0.5942
 9455TIP3   OH252559   1.260   6.055   1.071  0.2148  0.6963  0.2422
 9455TIP3    H152560   1.194   5.985   1.071 -0.2210  1.0999  0.3754
 9455TIP3    H252561   1.255   6.091   0.982  0.3588  0.6396  0.2100
 9456TIP3   OH252562   4.697   6.063   0.516 -0.5011  0.1814 -0.0804
 9456TIP3    H152563   4.657   6.000   0.457  0.9191 -0.1093 -0.7801
 9456TIP3    H252564   4.628   6.127   0.533 -0.3866  1.6234 -3.9664
 9457TIP3   OH252565   4.779   4.166   0.763 -0.0659 -0.3012  0.2856
 9457TIP3    H152566   4.739   4.080   0.749  1.2976 -1.3888  2.4691
 9457TIP3    H252567   4.860   4.163   0.711  0.0209 -0.3947  0.4230
 9458TIP3   OH252568   0.624   1.500   2.668  0.3005 -0.0970 -0.3182
 9458TIP3    H152569   0.652   1.488   2.577  3.0706 -0.5101  0.4912
 9458TIP3    H252570   0.698   1.467   2.720 -1.7408 -1.1345  2.1056
 9459TIP3   OH252571   5.244   3.887   1.025  0.3970 -0.3357  0.5468
 9459TIP3    H152572   5.184   3.961   1.041  0.4930 -0.1918  0.2483
 9459TIP3    H252573   5.188   3.819   0.988  0.2055 -0.6086  1.3045
 9460TIP3   OH252574   6.298   7.570   1.394  0.1010  0.0683 -0.1110
 9460TIP3    H152575   6.323   7.566   1.302 -0.1140 -1.6389 -0.1319
 9460TIP3    H252576   6.211   7.609   1.393  0.2512  0.4024 -0.5970
 9461TIP3   OH252577   0.715   5.581   1.974 -0.3526  0.3167 -0.3427
 9461TIP3    H152578   0.799   5.608   2.011 -0.4244 -2.4533  2.3139
 9461TIP3    H252579   0.727   5.487   1.956 -3.2624 -0.5968  1.7360
 9462TIP3   OH252580   6.942   0.398   1.060 -0.6549 -0.4414  0.2157
 9462TIP3    H152581   6.959   0.421   0.969  1.5550 -0.6690  0.5044
 9462TIP3    H252582   6.857   0.436   1.080 -1.2013 -0.4334 -1.9473
 9463TIP3   OH252583   1.877   4.940   1.819  0.1275 -0.2563 -0.4222
 9463TIP3    H152584   1.809   4.877   1.842  2.1103 -1.9395  1.2007
 9463TIP3    H252585   1.952   4.886   1.794  1.6409  1.4684  0.1903
 9464TIP3   OH252586   3.168   3.867   1.753 -0.2506 -0.1053  0.0236
 9464TIP3    H152587   3.153   3.780   1.715 -0.0835 -0.7584  1.4135
 9464TIP3    H252588   3.263   3.872   1.765 -0.4033 -0.4020  1.4666
 9465TIP3   OH252589   0.129   4.757   2.183  0.3022 -0.1495  0.3715
 9465TIP3    H152590   0.037   4.751   2.208  0.2455  0.5963  0.3607
 9465TIP3    H252591   0.161   4.667   2.187 -0.3637 -0.3795  0.6171
 9466TIP3   OH252592   0.466   5.340   0.593 -0.1217  0.0928  0.0294
 9466TIP3    H152593   0.528   5.288   0.543  0.1032  0.3668  0.0200
 9466TIP3    H252594   0.520   5.397   0.648 -0.3647 -0.0427  0.4172
 9467TIP3   OH252595   3.587   2.418   0.744 -0.8613  0.2263 -0.3327
 9467TIP3    H152596   3.541   2.428   0.660 -0.0565 -1.5692 -1.0268
 9467TIP3    H252597   3.524   2.372   0.800 -1.2922  1.1728 -0.0144
 9468TIP3   OH252598   2.436   2.005   1.426  0.2374 -0.3682  0.2734
 9468TIP3    H152599   2.364   1.949   1.398  0.0011 -0.2518  0.6252
 9468TIP3    H252600   2.515   1.957   1.404  0.0564 -0.3609 -0.3972
 9469TIP3   OH252601   2.588   3.886   2.664 -0.5869  0.6951  0.1831
 9469TIP3    H152602   2.649   3.815   2.683  1.3069  1.6656 -1.8061
 9469TIP3    H252603   2.590   3.942   2.742  0.7024  0.4281  0.3522
 9470TIP3   OH252604   2.839   5.307   1.563 -0.2996 -0.1188  0.1659
 9470TIP3    H152605   2.770   5.289   1.500  0.4287 -1.4161 -0.3055
 9470TIP3    H252606   2.908   5.244   1.541  1.3950  1.6803  0.0712
 9471TIP3   OH252607   2.535   4.738   1.814  0.5874  0.8298 -0.0824
 9471TIP3    H152608   2.609   4.682   1.839  0.0574 -0.4200 -1.2029
 9471TIP3    H252609   2.483   4.746   1.894  1.3693  0.8531  0.4386
 9472TIP3   OH252610   5.315   3.531   1.012 -0.2113  0.8820  0.0615
 9472TIP3    H152611   5.405   3.556   1.036  0.5424 -2.9177  1.8227
 9472TIP3    H252612   5.266   3.537   1.094 -1.1004  1.0126 -0.4734
 9473TIP3   OH252613   4.194   5.825   0.575  0.2688 -0.1264 -0.3269
 9473TIP3    H152614   4.160   5.869   0.652  0.4345 -0.6174  0.0376
 9473TIP3    H252615   4.141   5.857   0.503 -2.3237 -2.3192  0.4654
 9474TIP3   OH252616   1.519   4.595   2.249 -0.3976  0.4571 -0.2696
 9474TIP3    H152617   1.440   4.556   2.287 -1.7563  2.0902 -1.2703
 9474TIP3    H252618   1.547   4.532   2.182  1.0624 -1.6436  2.1116
 9475TIP3   OH252619   6.030   0.665   2.391  0.5009  0.1269 -0.0857
 9475TIP3    H152620   6.125   0.674   2.396  0.8754 -2.6357 -0.7061
 9475TIP3    H252621   6.001   0.743   2.344  2.4003  1.1529  0.3399
 9476TIP3   OH252622   0.591   4.755   1.036  0.1380 -0.0978 -0.1924
 9476TIP3    H152623   0.613   4.783   0.947 -1.0059  0.7792 -0.2256
 9476TIP3    H252624   0.664   4.699   1.062 -0.1106 -1.4420 -2.1549
 9477TIP3   OH252625   1.928   6.513   1.183 -0.0191  0.3778 -0.3142
 9477TIP3    H152626   1.972   6.543   1.263 -0.5333  0.1747  0.0557
 9477TIP3    H252627   1.844   6.477   1.214 -0.5372  0.9400 -1.0101
 9478TIP3   OH252628   0.153   4.721   0.628  0.3079  0.4975 -0.2056
 9478TIP3    H152629   0.083   4.701   0.690 -0.1298  0.1172 -0.8136
 9478TIP3    H252630   0.166   4.816   0.635 -0.0529  0.5192  0.1337
 9479TIP3   OH252631   2.114   3.883   1.323  0.1135  0.1803  0.0497
 9479TIP3    H152632   2.058   3.943   1.275 -0.6801 -0.6009 -0.0320
 9479TIP3    H252633   2.093   3.899   1.415 -0.2290 -0.0875  0.0207
 9480TIP3   OH252634   6.565   6.801   2.749 -0.8135 -0.1508  0.4967
 9480TIP3    H152635   6.527   6.717   2.724  0.0144 -0.3829 -0.0455
 9480TIP3    H252636   6.490   6.861   2.753 -1.5417 -1.1063  1.8322
 9481TIP3   OH252637   2.528   6.830   2.055 -0.2818 -0.0120 -0.1820
 9481TIP3    H152638   2.477   6.749   2.050 -0.7329  0.2300  0.4762
 9481TIP3    H252639   2.619   6.801   2.061 -0.5664 -0.5827  2.7872
 9482TIP3   OH252640   5.500   6.189   2.561  0.3995 -0.0447  0.3709
 9482TIP3    H152641   5.414   6.205   2.523  0.5328  0.4171  0.2492
 9482TIP3    H252642   5.500   6.240   2.642 -0.0068 -1.2941  1.1670
 9483TIP3   OH252643   2.510   3.608   3.580 -0.5602 -0.7810  0.3034
 9483TIP3    H152644   2.595   3.585   3.616  0.0782 -1.9046 -1.7456
 9483TIP3    H252645   2.525   3.691   3.534 -1.1769  0.2294  1.8452
 9484TIP3   OH252646   1.162   7.125   1.766 -0.1683 -0.3135  0.0045
 9484TIP3    H152647   1.143   7.180   1.842 -3.4239  2.0288 -2.2207
 9484TIP3    H252648   1.084   7.072   1.753  0.4369 -0.9243 -1.5082
 9485TIP3   OH252649   2.475   0.327   3.058 -0.0563 -0.2003  0.0137
 9485TIP3    H152650   2.561   0.352   3.091 -0.5859  0.4345  0.9820
 9485TIP3    H252651   2.432   0.286   3.133 -0.8995  0.2667 -0.1973
 9486TIP3   OH252652   2.165   6.012   2.475 -0.3638  0.0067  0.0203
 9486TIP3    H152653   2.116   5.982   2.552  0.2192 -1.4874 -0.1738
 9486TIP3    H252654   2.199   5.933   2.435  0.4613  0.8679 -1.0490
 9487TIP3   OH252655   1.625   6.749   0.511 -0.3708 -0.2183  0.0634
 9487TIP3    H152656   1.566   6.819   0.538  1.6535  1.3530  0.6841
 9487TIP3    H252657   1.691   6.745   0.580  1.7538 -0.0342 -1.8417
 9488TIP3   OH252658   6.197   6.436   1.941  0.6566  0.6594 -0.0490
 9488TIP3    H152659   6.194   6.509   2.003  0.2969  1.2927 -0.7971
 9488TIP3    H252660   6.174   6.475   1.857 -0.4877 -0.4777 -0.2997
 9489TIP3   OH252661   4.664   5.649   1.729 -0.2259 -0.1759 -0.3908
 9489TIP3    H152662   4.751   5.661   1.690 -0.1534 -1.1120 -0.5406
 9489TIP3    H252663   4.678   5.664   1.822 -0.1702  0.9551 -0.5740
 9490TIP3   OH252664   1.306   6.907   1.234 -0.4153  0.2209 -0.1508
 9490TIP3    H152665   1.316   6.929   1.327  0.3707  0.1770 -0.2164
 9490TIP3    H252666   1.315   6.991   1.189  0.6955  0.0612 -0.2727
 9491TIP3   OH252667   2.475   2.229   1.162  0.2866 -0.4589  0.0968
 9491TIP3    H152668   2.437   2.169   1.098 -1.8283  0.8646  0.0218
 9491TIP3    H252669   2.435   2.314   1.143 -0.5437 -0.0186  3.1744
 9492TIP3   OH252670   7.001   0.553   2.843  0.0082 -0.4498 -0.2425
 9492TIP3    H152671   6.909   0.539   2.864  0.0009 -1.2546 -0.7838
 9492TIP3    H252672   7.009   0.648   2.834 -0.3807 -0.2003  1.5418
 9493TIP3   OH252673   2.014   4.052   1.135 -0.2501 -0.6265 -0.2384
 9493TIP3    H152674   1.975   4.139   1.131  0.8111 -0.1111  0.1715
 9493TIP3    H252675   2.042   4.034   1.045  3.6495  1.4770  0.3065
 9494TIP3   OH252676   1.494   1.559   2.061 -0.4197  0.1813  0.3196
 9494TIP3    H152677   1.508   1.489   2.125 -0.2836 -0.1575 -0.0769
 9494TIP3    H252678   1.555   1.627   2.087  0.0800 -0.2094  0.1783
 9495TIP3   OH252679   6.065   2.024   1.807  0.4777  0.3302 -0.3587
 9495TIP3    H152680   6.130   1.966   1.848  1.5472  1.0578 -0.9900
 9495TIP3    H252681   6.098   2.038   1.718 -0.5987  0.6502 -0.7209
 9496TIP3   OH252682   6.616   1.553   1.377 -0.8055 -0.6519  0.4290
 9496TIP3    H152683   6.566   1.599   1.444  0.0343 -1.6163  1.7601
 9496TIP3    H252684   6.697   1.603   1.369 -0.7876 -0.6971  0.3223
 9497TIP3   OH252685   2.822   0.689   1.015 -0.5697  0.0550 -0.0836
 9497TIP3    H152686   2.748   0.696   0.954 -0.5888 -0.9554 -0.1982
 9497TIP3    H252687   2.898   0.713   0.963 -0.6600 -0.2172 -0.3473
 9498TIP3   OH252688   5.265   3.965   0.526  0.5900  0.0268 -0.0229
 9498TIP3    H152689   5.200   3.967   0.457  1.3652  0.2304 -0.7629
 9498TIP3    H252690   5.262   4.052   0.566  0.6175  0.1314 -0.2516
 9499TIP3   OH252691   2.807   3.566   3.072 -0.3256 -0.0379 -0.4801
 9499TIP3    H152692   2.856   3.591   2.993 -0.4280 -2.1189 -1.2504
 9499TIP3    H252693   2.864   3.592   3.144  1.0123 -0.5234 -1.3102
 9500TIP3   OH252694   6.132   2.927   2.270  0.3470 -0.2627 -0.2829
 9500TIP3    H152695   6.183   2.933   2.189  0.8179 -0.0197  0.0298
 9500TIP3    H252696   6.195   2.946   2.340  0.2670 -1.7885  0.2438
 9501TIP3   OH252697   7.534   3.606   1.844 -0.1289 -0.1298 -0.3591
 9501TIP3    H152698   7.614   3.569   1.880  0.7846  3.2968  1.6271
 9501TIP3    H252699   7.465   3.572   1.900  0.2368 -1.1483 -0.5078
 9502TIP3   OH252700   5.942   7.106   0.974  0.3154 -0.0171 -0.1886
 9502TIP3    H152701   6.005   7.107   0.902 -0.7864 -2.1838 -1.3020
 9502TIP3    H252702   5.987   7.061   1.045 -0.0162 -1.9196 -1.1138
 9503TIP3   OH252703   0.852   0.029   2.993 -0.1822  0.2470 -0.8936
 9503TIP3    H152704   0.890   0.001   3.076  1.5281  1.4521 -1.2005
 9503TIP3    H252705   0.810   0.112   3.012 -0.4298  0.1686 -1.0894
 9504TIP3   OH252706   0.320   3.084   3.473  0.3885 -0.2844  0.7097
 9504TIP3    H152707   0.254   3.066   3.407 -1.3794  0.8573  2.0576
 9504TIP3    H252708   0.303   3.020   3.543  0.8301 -0.1040  0.9912
 9505TIP3   OH252709   4.355   3.215   0.382 -0.6605  0.1341 -0.1372
 9505TIP3    H152710   4.400   3.283   0.432 -0.0763  0.6918 -1.3899
 9505TIP3    H252711   4.394   3.219   0.295 -1.8138 -0.6667 -0.7162
 9506TIP3   OH252712   4.730   6.540   1.115 -0.5547 -0.3836  0.3930
 9506TIP3    H152713   4.675   6.468   1.085 -0.2115 -0.1865 -0.7746
 9506TIP3    H252714   4.819   6.506   1.112 -0.3642  0.1538 -0.4151
 9507TIP3   OH252715   2.472   3.799   2.315 -0.2413  0.6876 -0.1345
 9507TIP3    H152716   2.383   3.778   2.343  0.1740  2.9602  3.4347
 9507TIP3    H252717   2.462   3.877   2.260 -0.4865  0.4578 -0.4195
 9508TIP3   OH252718   1.673   4.648   0.810 -0.2987  0.1434  0.1301
 9508TIP3    H152719   1.683   4.650   0.905  0.9486  0.8167  0.0108
 9508TIP3    H252720   1.707   4.733   0.781 -2.2898  0.6780 -0.7851
 9509TIP3   OH252721   4.017   6.905   2.233 -0.0897 -0.0022  0.4027
 9509TIP3    H152722   4.070   6.936   2.160  0.4291  0.4815  0.9731
 9509TIP3    H252723   4.078   6.855   2.288 -0.7789 -1.5766 -0.1939
 9510TIP3   OH252724   4.506   4.239   2.520  0.1744 -0.0234 -0.3599
 9510TIP3    H152725   4.595   4.250   2.554  0.9513 -0.4894 -2.1149
 9510TIP3    H252726   4.495   4.311   2.458  0.1733 -1.1941 -1.7719
 9511TIP3   OH252727   3.023   1.827   0.598  0.4671 -0.4080  0.0421
 9511TIP3    H152728   3.108   1.852   0.634 -0.0111  1.1738  0.1543
 9511TIP3    H252729   2.965   1.902   0.618 -0.4205 -0.5220 -1.8701
 9512TIP3   OH252730   3.393   7.360   1.303 -0.1490 -0.7081  0.0500
 9512TIP3    H152731   3.374   7.289   1.242 -0.8845  0.1601 -0.7602
 9512TIP3    H252732   3.320   7.421   1.292 -0.9399 -1.0414  2.6296
 9513TIP3   OH252733   5.580   1.736   0.732 -0.4276  0.0462  0.6032
 9513TIP3    H152734   5.513   1.681   0.773 -0.7891 -0.1759 -0.2618
 9513TIP3    H252735   5.530   1.806   0.689  0.0625  1.7417  2.5975
 9514TIP3   OH252736   7.123   6.235   2.722  0.0146 -0.2409 -0.0046
 9514TIP3    H152737   7.043   6.244   2.774 -1.5680 -0.6502 -2.2264
 9514TIP3    H252738   7.144   6.324   2.695 -1.7477 -0.4036 -2.2067
 9515TIP3   OH252739   3.529   3.606   3.020 -0.1446 -0.1539 -0.3788
 9515TIP3    H152740   3.547   3.522   2.978  0.1470 -0.9817  1.3114
 9515TIP3    H252741   3.598   3.664   2.988 -0.5933 -0.4031 -1.8913
 9516TIP3   OH252742   5.874   1.322   0.578  0.0093  0.2757  0.1543
 9516TIP3    H152743   5.819   1.289   0.649 -0.4700  1.1872  0.2246
 9516TIP3    H252744   5.824   1.394   0.540  0.5057  0.1571 -0.7545
 9517TIP3   OH252745   5.329   3.728   1.491 -0.1495 -0.0617  0.6526
 9517TIP3    H152746   5.378   3.799   1.532  1.4316 -1.1409  0.7176
 9517TIP3    H252747   5.334   3.747   1.398  0.4508 -0.1718  0.6545
 9518TIP3   OH252748   1.376   0.738   2.193 -0.4898  0.0952  0.1290
 9518TIP3    H152749   1.403   0.715   2.282  2.5815  1.7360 -0.2422
 9518TIP3    H252750   1.329   0.821   2.203  0.5500  0.6936  0.1954
 9519TIP3   OH252751   2.724   4.973   1.072  0.1418 -0.4426 -0.2633
 9519TIP3    H152752   2.663   5.000   1.004  0.5679  0.3897 -0.3316
 9519TIP3    H252753   2.797   5.034   1.064  1.4262 -1.9612 -0.7883
 9520TIP3   OH252754   7.554   3.705   1.166 -0.2438 -0.1713 -0.8239
 9520TIP3    H152755   7.551   3.667   1.254 -2.8787  0.5991 -0.5044
 9520TIP3    H252756   7.480   3.664   1.120  0.3780  0.3150 -2.3103
 9521TIP3   OH252757   7.590   4.879   1.719  0.0240 -0.6684 -0.1546
 9521TIP3    H152758   7.620   4.963   1.685 -2.2137  1.3071  2.2772
 9521TIP3    H252759   7.669   4.835   1.750  1.3085  0.2102 -2.0688
 9522TIP3   OH252760   0.733   6.280   2.778  0.3420 -0.1130  0.4668
 9522TIP3    H152761   0.769   6.205   2.825  1.0254  0.2391  0.5178
 9522TIP3    H252762   0.671   6.320   2.839 -0.0672 -0.6638  0.4175
 9523TIP3   OH252763   7.247   3.150   0.669 -0.3159 -0.6760  0.0769
 9523TIP3    H152764   7.221   3.240   0.688  1.2561 -0.5028  1.6512
 9523TIP3    H252765   7.182   3.096   0.715 -0.6486 -0.3441  0.0041
 9524TIP3   OH252766   6.962   1.103   1.653  0.0174 -0.4828 -0.2311
 9524TIP3    H152767   6.996   1.155   1.726  0.3946 -0.2096 -0.6001
 9524TIP3    H252768   6.969   1.012   1.683  0.6511 -0.4054 -0.1227
 9525TIP3   OH252769   2.915   3.990   0.630  0.2350 -0.1964  0.7373
 9525TIP3    H152770   2.892   3.903   0.662 -1.2672  0.3232  1.1709
 9525TIP3    H252771   2.864   4.050   0.684  1.4502  0.9890  0.6363
 9526TIP3   OH252772   3.271   1.766   0.747  0.0211  0.1717 -0.5577
 9526TIP3    H152773   3.333   1.789   0.677 -1.1123  1.4212 -1.2131
 9526TIP3    H252774   3.240   1.851   0.779 -2.2253 -0.3907 -1.0806
 9527TIP3   OH252775   1.029   2.546   1.389 -0.2119  0.4807  0.5985
 9527TIP3    H152776   1.012   2.638   1.408 -0.0595  1.0357 -1.6968
 9527TIP3    H252777   0.943   2.508   1.372 -0.2984  0.1220  1.7881
 9528TIP3   OH252778   0.858   6.058   2.954  0.3956 -0.0789 -0.1003
 9528TIP3    H152779   0.852   6.140   3.003  0.4667  0.7653 -1.4642
 9528TIP3    H252780   0.895   5.996   3.016 -2.3059  0.1134  1.9095
 9529TIP3   OH252781   6.846   2.229   1.127  0.0852 -0.4197  0.3389
 9529TIP3    H152782   6.761   2.184   1.119 -0.0372  0.0453 -1.5330
 9529TIP3    H252783   6.893   2.203   1.048  1.3746  0.0100  0.9515
 9530TIP3   OH252784   1.204   2.116   1.850  0.1501 -0.1293 -0.7124
 9530TIP3    H152785   1.230   2.174   1.778  0.6550 -0.0210 -0.4487
 9530TIP3    H252786   1.285   2.073   1.877  0.2193  0.7764  0.6206
 9531TIP3   OH252787   5.258   0.348   2.852 -0.3261 -0.1645 -0.0086
 9531TIP3    H152788   5.216   0.341   2.938 -0.0346  0.7447  0.2175
 9531TIP3    H252789   5.350   0.366   2.872 -0.3927  0.7501 -0.5143
 9532TIP3   OH252790   5.187   7.180   1.585 -0.0101  0.7770 -1.0137
 9532TIP3    H152791   5.159   7.198   1.495  0.9755  1.7825 -1.1494
 9532TIP3    H252792   5.251   7.110   1.576  0.9514  1.6654 -1.2478
 9533TIP3   OH252793   6.575   6.507   0.837  0.0396 -0.0035  0.2161
 9533TIP3    H152794   6.625   6.550   0.907 -0.1376 -1.1964  1.1188
 9533TIP3    H252795   6.637   6.445   0.799  0.4825  1.3993 -1.4804
 9534TIP3   OH252796   0.455   1.143   1.701  0.5163  0.1406  0.2310
 9534TIP3    H152797   0.399   1.111   1.771  0.6997 -1.2016 -0.2023
 9534TIP3    H252798   0.448   1.238   1.706 -1.7652  0.0245  0.2003
 9535TIP3   OH252799   0.818   7.122   2.099 -0.0973 -0.0451 -0.3234
 9535TIP3    H152800   0.725   7.115   2.119 -0.1884 -0.1301 -0.7679
 9535TIP3    H252801   0.859   7.145   2.182 -0.3935 -0.9710  0.0902
 9536TIP3   OH252802   3.792   3.729   0.960  0.1741 -0.1575  0.2363
 9536TIP3    H152803   3.768   3.784   0.885  0.7190 -0.0007  0.1736
 9536TIP3    H252804   3.821   3.647   0.921 -0.5807 -0.4771  0.3274
 9537TIP3   OH252805   4.781   3.529   3.381 -0.0217  0.1122 -0.1629
 9537TIP3    H152806   4.861   3.570   3.349  1.4092 -2.1497  0.2772
 9537TIP3    H252807   4.727   3.516   3.303  0.5390  0.6329 -0.6389
 9538TIP3   OH252808   4.234   4.285   2.630  0.7782  0.2103 -0.0127
 9538TIP3    H152809   4.316   4.269   2.585  1.3570 -1.5340  1.5055
 9538TIP3    H252810   4.260   4.329   2.711 -0.0359  1.5759 -0.4621
 9539TIP3   OH252811   1.100   4.586   1.651  0.3634 -0.2283 -0.0827
 9539TIP3    H152812   1.080   4.494   1.664  0.0524 -0.0842  0.4804
 9539TIP3    H252813   1.058   4.631   1.725  1.7207  0.2044  0.4599
 9540TIP3   OH252814   5.562   2.080   0.716 -0.0365 -0.1847 -0.1032
 9540TIP3    H152815   5.569   2.174   0.735  1.3633 -0.2305 -0.3069
 9540TIP3    H252816   5.481   2.072   0.666 -0.4118  0.8494  0.3132
 9541TIP3   OH252817   1.587   3.221   1.176  0.8627  0.2269 -0.0127
 9541TIP3    H152818   1.538   3.217   1.259 -0.0551  0.7526 -0.5095
 9541TIP3    H252819   1.677   3.240   1.202  0.1682  2.8166  0.7889
 9542TIP3   OH252820   5.768   6.564   2.193 -0.4087 -0.1584 -0.0289
 9542TIP3    H152821   5.756   6.475   2.158 -0.4524  0.5673 -1.9708
 9542TIP3    H252822   5.685   6.608   2.176 -1.0329 -0.1876  2.5106
 9543TIP3   OH252823   2.626   6.546   2.079  0.5732 -0.4004  0.7365
 9543TIP3    H152824   2.545   6.497   2.065 -1.3677  2.5587  0.8229
 9543TIP3    H252825   2.634   6.552   2.174 -1.6330  2.9237  0.8568
 9544TIP3   OH252826   5.486   4.568   1.458 -0.1446  0.2691  0.1502
 9544TIP3    H152827   5.579   4.572   1.436  0.3908 -3.0270  1.2170
 9544TIP3    H252828   5.446   4.521   1.385 -1.1643  2.0906 -0.5442
 9545TIP3   OH252829   2.901   6.342   2.981  0.1719  0.0166  0.0556
 9545TIP3    H152830   2.913   6.427   3.023 -2.5797  1.4510 -1.7480
 9545TIP3    H252831   2.980   6.329   2.929  0.3807  1.7941 -0.1257
 9546TIP3   OH252832   1.939   2.516   3.241 -0.3981 -0.1197  0.2484
 9546TIP3    H152833   1.992   2.478   3.311  0.2520 -0.2141 -0.2778
 9546TIP3    H252834   1.852   2.526   3.279  0.0704  0.3563  1.2485
 9547TIP3   OH252835   7.387   1.056   0.557 -0.2930 -0.2383  0.4758
 9547TIP3    H152836   7.344   0.978   0.523 -0.9559  0.4572 -0.3644
 9547TIP3    H252837   7.396   1.041   0.651 -1.9524 -0.6150  0.6012
 9548TIP3   OH252838   4.572   7.587   2.159 -0.1839  0.8783  0.2931
 9548TIP3    H152839   4.569   7.645   2.083 -0.0487  0.0100 -0.4019
 9548TIP3    H252840   4.632   7.517   2.132 -0.7492  0.1464  0.8979
 9549TIP3   OH252841   1.642   5.472   1.632 -0.2222 -0.0708  0.2514
 9549TIP3    H152842   1.649   5.402   1.696 -1.8430 -0.5604 -0.0556
 9549TIP3    H252843   1.710   5.452   1.567 -1.5516 -2.2179 -0.5828
 9550TIP3   OH252844   4.221   6.417   1.100  0.2174  0.3154 -0.0545
 9550TIP3    H152845   4.211   6.373   1.185 -1.8649  0.3992 -0.1870
 9550TIP3    H252846   4.255   6.349   1.042 -2.0773 -0.9852 -0.0331
 9551TIP3   OH252847   1.247   3.796   1.293 -0.0302  0.3667  0.8064
 9551TIP3    H152848   1.206   3.863   1.349 -0.2087  0.3429  0.7052
 9551TIP3    H252849   1.179   3.772   1.231 -0.5692 -1.1519  1.9126
 9552TIP3   OH252850   3.650   2.321   2.495  0.2156  0.1091 -0.8344
 9552TIP3    H152851   3.562   2.350   2.472 -1.0175 -1.6536  1.3761
 9552TIP3    H252852   3.668   2.248   2.435 -1.4724 -2.0441  1.1321
 9553TIP3   OH252853   6.812   7.375   2.143  0.1740 -0.5897  0.4170
 9553TIP3    H152854   6.847   7.382   2.231 -0.6686  1.1428  0.6458
 9553TIP3    H252855   6.778   7.462   2.123 -0.8210 -1.2840 -1.1256
 9554TIP3   OH252856   5.285   4.846   1.125 -0.0132  0.5642  0.2030
 9554TIP3    H152857   5.272   4.934   1.160 -1.7091  0.5745 -0.3708
 9554TIP3    H252858   5.240   4.847   1.040 -0.0480 -0.8409  0.1804
 9555TIP3   OH252859   1.382   5.252   0.949 -0.2254 -0.0136 -0.3459
 9555TIP3    H152860   1.362   5.158   0.956 -0.1146  0.0544  1.4062
 9555TIP3    H252861   1.460   5.263   1.003 -1.1043  1.3140  0.7215
 9556TIP3   OH252862   0.469   5.911   2.252  0.4724 -0.5559 -0.4652
 9556TIP3    H152863   0.496   5.839   2.196  0.0911 -1.6904  0.7491
 9556TIP3    H252864   0.411   5.870   2.317  0.2488  0.8461  0.2514
 9557TIP3   OH252865   1.743   4.549   2.445  0.2010 -0.1047  0.4428
 9557TIP3    H152866   1.721   4.484   2.512 -1.1866  1.5123  1.6066
 9557TIP3    H252867   1.669   4.547   2.384  0.2629  0.2578  0.3571
 9558TIP3   OH252868   3.091   2.214   0.506  0.0876  0.2280  0.2327
 9558TIP3    H152869   3.065   2.170   0.587  0.8757 -0.9857 -0.1472
 9558TIP3    H252870   3.022   2.193   0.443 -0.3720  0.9231  0.4925
 9559TIP3   OH252871   2.038   3.126   2.795 -0.2509 -0.3066  0.3063
 9559TIP3    H152872   2.066   3.161   2.710  1.0345 -0.0313  0.8246
 9559TIP3    H252873   1.946   3.149   2.801 -0.9028 -1.9895 -1.8435
 9560TIP3   OH252874   4.874   1.135   2.403 -0.3917 -0.1215 -0.2343
 9560TIP3    H152875   4.869   1.229   2.388  1.0376 -0.1630 -1.1396
 9560TIP3    H252876   4.960   1.109   2.369 -0.6788 -1.7269  0.1546
 9561TIP3   OH252877   4.881   3.825   3.380 -0.5580 -0.0830  0.0371
 9561TIP3    H152878   4.944   3.757   3.359  0.3514  0.7404  0.0300
 9561TIP3    H252879   4.857   3.864   3.296 -0.2113  0.3520  0.1370
 9562TIP3   OH252880   2.768   3.833   1.474 -0.1062 -0.2925 -0.1295
 9562TIP3    H152881   2.836   3.789   1.423 -1.8342 -0.6322 -2.2831
 9562TIP3    H252882   2.692   3.834   1.417 -1.1086  2.6634  1.0734
 9563TIP3   OH252883   6.590   3.268   1.806  0.4747  0.9578 -0.0918
 9563TIP3    H152884   6.544   3.229   1.881 -0.1958  0.2270 -0.8527
 9563TIP3    H252885   6.612   3.193   1.751  0.9936  1.4837 -0.6086
 9564TIP3   OH252886   7.555   3.284   0.857 -0.3795  0.2075  0.2702
 9564TIP3    H152887   7.504   3.226   0.914  1.4517 -3.0100 -1.0912
 9564TIP3    H252888   7.532   3.256   0.769  2.8021 -0.6701 -0.4050
 9565TIP3   OH252889   6.522   4.512   0.950 -0.3295  0.2054 -0.5433
 9565TIP3    H152890   6.582   4.586   0.954  0.9994 -0.8047 -0.9225
 9565TIP3    H252891   6.568   4.447   0.896 -1.8043 -0.5838 -0.8897
 9566TIP3   OH252892   0.137   1.055   2.838 -0.2505  0.2233 -0.6135
 9566TIP3    H152893   0.074   1.024   2.772  0.1531 -2.4265  0.1218
 9566TIP3    H252894   0.088   1.051   2.921 -0.2194  1.8406 -0.4900
 9567TIP3   OH252895   1.978   6.970   3.438  0.2352  0.3219 -0.8729
 9567TIP3    H152896   1.968   6.890   3.387 -2.0589  0.1918 -0.3562
 9567TIP3    H252897   2.054   7.014   3.401  1.0623 -1.7068 -1.6833
 9568TIP3   OH252898   1.725   3.011   1.576  0.7395 -0.1762 -0.1655
 9568TIP3    H152899   1.812   3.021   1.615  1.3050  1.7822 -1.7733
 9568TIP3    H252900   1.738   2.947   1.506  0.6752 -0.4990  0.1120
 9569TIP3   OH252901   2.212   3.526   1.572 -0.2907 -0.6930 -0.1565
 9569TIP3    H152902   2.278   3.570   1.626  0.6837 -2.0799 -0.1699
 9569TIP3    H252903   2.128   3.554   1.609  0.2718  1.0140 -0.0612
 9570TIP3   OH252904   3.344   2.895   1.592  0.1282  0.0192  0.4570
 9570TIP3    H152905   3.284   2.952   1.641  0.5339  0.4139  0.5066
 9570TIP3    H252906   3.288   2.828   1.554 -0.3199  0.2682  0.6672
 9571TIP3   OH252907   3.280   2.159   2.313 -0.4823 -0.2046  0.0526
 9571TIP3    H152908   3.223   2.223   2.356  0.6872  1.3487 -0.5934
 9571TIP3    H252909   3.266   2.174   2.219  0.2027 -0.5051 -0.1077
 9572TIP3   OH252910   0.534   6.459   3.442  0.2351 -0.5763 -0.3754
 9572TIP3    H152911   0.601   6.404   3.482 -0.2400  0.0800  1.4275
 9572TIP3    H252912   0.564   6.549   3.457  0.0401 -0.3003 -1.5343
 9573TIP3   OH252913   6.862   1.299   1.853 -0.3062 -0.4579 -0.3278
 9573TIP3    H152914   6.932   1.315   1.915 -2.1644  0.2045  1.7277
 9573TIP3    H252915   6.828   1.213   1.877  0.4243 -1.2665 -2.0080
 9574TIP3   OH252916   0.064   4.225   1.115  0.3160 -0.0978 -0.2131
 9574TIP3    H152917   0.045   4.135   1.086  1.4704 -0.2135 -0.6547
 9574TIP3    H252918   0.077   4.217   1.209  0.2705 -0.3721 -0.2277
 9575TIP3   OH252919   7.242   1.619   1.039 -0.4016  0.1031  0.2696
 9575TIP3    H152920   7.208   1.685   0.978  2.5872  0.4730 -1.1819
 9575TIP3    H252921   7.293   1.669   1.102  2.5168 -0.7049 -1.2761
 9576TIP3   OH252922   6.181   4.033   1.294  0.1245 -0.1899  0.5871
 9576TIP3    H152923   6.271   4.060   1.310  0.2346 -0.3336  0.2247
 9576TIP3    H252924   6.128   4.094   1.344  0.4573 -0.6509  1.5155
 9577TIP3   OH252925   1.016   0.342   1.083 -0.0803  0.4978  0.0498
 9577TIP3    H152926   0.990   0.265   1.033  0.2574  0.5020 -0.1401
 9577TIP3    H252927   1.074   0.308   1.151 -2.0424  0.2328  1.6750
 9578TIP3   OH252928   3.394   0.045   2.556  0.6544 -0.1893 -0.2057
 9578TIP3    H152929   3.365  -0.046   2.545  0.9356 -0.2606 -0.3599
 9578TIP3    H252930   3.439   0.046   2.640  1.5595 -0.4282 -0.6784
 9579TIP3   OH252931   6.109   0.041   2.193  0.9435 -0.5165  0.2184
 9579TIP3    H152932   6.079  -0.013   2.267  1.9214 -1.3978 -0.0123
 9579TIP3    H252933   6.061   0.123   2.204 -1.0453 -1.5969  0.2550
 9580TIP3   OH252934   3.356   4.750   1.445 -0.0855 -0.0528 -0.0098
 9580TIP3    H152935   3.347   4.674   1.387 -1.9848 -0.4888  0.7564
 9580TIP3    H252936   3.387   4.714   1.528  0.9935  0.3312 -0.2291
 9581TIP3   OH252937   4.463   4.211   1.916  0.4042 -0.7679 -0.3107
 9581TIP3    H152938   4.443   4.132   1.866 -1.5030 -0.8856  0.5687
 9581TIP3    H252939   4.424   4.282   1.865  0.0178 -0.6806  0.1074
 9582TIP3   OH252940   5.202   0.082   1.642  0.4410  0.5262 -0.9634
 9582TIP3    H152941   5.216   0.018   1.713  0.7195  0.2738 -1.2398
 9582TIP3    H252942   5.278   0.140   1.647 -0.7800  2.0973  0.5739
 9583TIP3   OH252943   0.586   4.168   1.223  0.3310 -0.5469  0.3782
 9583TIP3    H152944   0.639   4.116   1.162  0.7839  0.7409 -0.3759
 9583TIP3    H252945   0.496   4.148   1.199  0.4407 -2.4177  1.3789
 9584TIP3   OH252946   6.656   3.088   1.566 -0.2882 -0.1568 -0.0884
 9584TIP3    H152947   6.695   3.122   1.485  2.4983  0.2402  1.2858
 9584TIP3    H252948   6.684   2.997   1.570 -2.5073 -0.9213 -0.7080
 9585TIP3   OH252949   0.800   1.759   2.416 -0.3981  0.1346 -0.0159
 9585TIP3    H152950   0.835   1.847   2.403 -1.0937  1.0387  3.2389
 9585TIP3    H252951   0.874   1.710   2.452 -0.4376 -0.1508 -0.3226
 9586TIP3   OH252952   4.293   5.366   1.436 -0.5288 -0.3954  0.0205
 9586TIP3    H152953   4.340   5.289   1.404 -1.3164 -1.2880  0.9550
 9586TIP3    H252954   4.332   5.384   1.521  1.0792  1.5469 -1.0269
 9587TIP3   OH252955   0.808   2.966   0.623  0.0723  0.2037  0.1386
 9587TIP3    H152956   0.787   3.046   0.574 -1.6316  0.5345  1.3200
 9587TIP3    H252957   0.833   2.997   0.709  2.2933 -0.4195 -0.2211
 9588TIP3   OH252958   2.816   5.081   0.548  0.6010  0.6516  0.6719
 9588TIP3    H152959   2.769   5.161   0.574  0.0650  0.2688  0.8972
 9588TIP3    H252960   2.862   5.105   0.468 -2.6077  0.1129 -1.4796
 9589TIP3   OH252961   7.260   6.810   0.975  0.4757  0.3011  0.2262
 9589TIP3    H152962   7.312   6.857   0.911  1.7341 -0.0113  0.9854
 9589TIP3    H252963   7.300   6.831   1.059 -0.5860 -0.0090  0.8315
 9590TIP3   OH252964   6.006   4.537   2.550  0.3734  0.8556 -0.0506
 9590TIP3    H152965   5.932   4.480   2.573  0.5359  0.2580 -0.9538
 9590TIP3    H252966   5.973   4.591   2.479  0.4389  1.4182  0.3429
 9591TIP3   OH252967   3.740   0.462   2.762  0.3327 -0.0090  0.0443
 9591TIP3    H152968   3.679   0.409   2.712  0.3453 -1.2524  1.3124
 9591TIP3    H252969   3.689   0.538   2.790 -0.2915 -0.4268  0.0530
 9592TIP3   OH252970   6.586   4.128   0.813  0.1085 -0.2407 -0.2085
 9592TIP3    H152971   6.646   4.069   0.859  0.9135 -0.5029 -1.5492
 9592TIP3    H252972   6.634   4.210   0.806  0.4044 -0.5068 -1.4513
 9593TIP3   OH252973   3.630   6.700   2.380  0.3963 -0.2111  0.0698
 9593TIP3    H152974   3.669   6.618   2.413 -2.2554 -1.3779  0.5392
 9593TIP3    H252975   3.537   6.680   2.371 -0.2548  2.6486 -0.2856
 9594TIP3   OH252976   5.038   3.635   3.274 -0.3856  0.0223  0.2493
 9594TIP3    H152977   5.060   3.550   3.237 -3.2219  0.5866 -3.1977
 9594TIP3    H252978   5.080   3.698   3.216 -1.3781  0.9801  0.5533
 9595TIP3   OH252979   1.663   5.994   0.507 -0.6498 -0.7812  0.1077
 9595TIP3    H152980   1.677   5.998   0.602  0.2470 -0.0389 -0.0403
 9595TIP3    H252981   1.627   6.079   0.484 -0.7040 -0.8975 -0.2413
 9596TIP3   OH252982   2.852   2.135   0.966  0.6726  0.6404 -0.2334
 9596TIP3    H152983   2.800   2.198   1.016  1.4908 -0.1274  1.7273
 9596TIP3    H252984   2.788   2.080   0.922 -0.2551 -0.3497  2.1964
 9597TIP3   OH252985   0.630   0.176   3.061  0.3262  0.3280 -0.4312
 9597TIP3    H152986   0.619   0.237   3.134 -0.3205 -0.0653 -0.1903
 9597TIP3    H252987   0.563   0.202   2.998  1.7873  1.5701 -1.5418
 9598TIP3   OH252988   4.045   6.068   1.901  0.2158  0.0730 -0.8957
 9598TIP3    H152989   3.973   6.038   1.957 -0.4455 -1.2103 -2.3302
 9598TIP3    H252990   4.095   6.128   1.956  0.0311 -1.6274  1.2986
 9599TIP3   OH252991   3.132   0.114   0.702 -0.1876  0.3840  0.0690
 9599TIP3    H152992   3.076   0.104   0.625 -0.7785 -2.6655  0.7728
 9599TIP3    H252993   3.180   0.195   0.686 -0.8729  0.2934 -3.1217
 9600TIP3   OH252994   2.605   0.064   2.762 -0.8566 -0.3852  0.2284
 9600TIP3    H152995   2.574   0.076   2.852 -2.1432 -0.1569 -0.2227
 9600TIP3    H252996   2.550   0.122   2.710  1.2090  1.0081 -0.4979
 9601TIP3   OH252997   3.817   5.279   2.596  0.0474  0.6347  0.3960
 9601TIP3    H152998   3.902   5.321   2.606 -0.6425  1.9406  1.0083
 9601TIP3    H252999   3.836   5.197   2.551  1.7949  0.2540  1.7414
 9602TIP3   OH253000   0.507   5.715   2.078 -0.4338 -0.1358  0.0362
 9602TIP3    H153001   0.584   5.686   2.030  0.7140  0.9672  1.1376
 9602TIP3    H253002   0.433   5.682   2.027  0.7412 -0.5302 -1.4815
 9603TIP3   OH253003   3.254   2.547   2.840  0.3352  0.2041  0.5263
 9603TIP3    H153004   3.346   2.545   2.865  0.2131  0.6913  1.0471
 9603TIP3    H253005   3.209   2.581   2.918 -0.6367 -2.5955  1.3163
 9604TIP3   OH253006   4.113   0.563   2.482  0.1300 -0.3457  0.4377
 9604TIP3    H153007   4.089   0.536   2.393  2.4578  0.4606 -0.5163
 9604TIP3    H253008   4.151   0.650   2.472 -3.1218  1.5709  2.8355
 9605TIP3   OH253009   5.678   0.240   0.703 -0.0213  0.2521  0.2284
 9605TIP3    H153010   5.700   0.185   0.778 -1.7088 -0.6155  0.1358
 9605TIP3    H253011   5.592   0.277   0.724  0.3013  1.4746 -0.4866
 9606TIP3   OH253012   4.156   0.789   1.006 -0.0955  0.1666 -0.8615
 9606TIP3    H153013   4.090   0.735   1.050  1.3639  0.2935  1.6577
 9606TIP3    H253014   4.207   0.727   0.953  1.0240 -0.8875  1.3343
 9607TIP3   OH253015   7.200   4.379   2.333 -0.0198 -0.8747  0.0063
 9607TIP3    H153016   7.151   4.324   2.272 -2.8022 -0.7634  1.9281
 9607TIP3    H253017   7.200   4.329   2.415 -0.4776  0.8934  1.1456
 9608TIP3   OH253018   2.491   2.187   2.478 -0.3600 -0.4341 -0.2395
 9608TIP3    H153019   2.567   2.187   2.536 -0.4515 -0.1464 -0.1148
 9608TIP3    H253020   2.511   2.253   2.412 -1.3658  1.1925  0.9787
 9609TIP3   OH253021   1.251   6.166   0.805  0.3641  0.3659 -0.0875
 9609TIP3    H153022   1.316   6.236   0.815  1.4346 -0.8321  1.8243
 9609TIP3    H253023   1.299   6.094   0.764 -0.1008 -0.1072  0.1946
 9610TIP3   OH253024   5.584   4.254   1.641 -0.5811 -0.3511 -0.3187
 9610TIP3    H153025   5.603   4.227   1.552 -1.6895 -2.1392 -0.0599
 9610TIP3    H253026   5.497   4.219   1.659 -1.3738  1.9363  0.7059
 9611TIP3   OH253027   2.392   0.580   1.232  0.2411 -0.5312 -0.1812
 9611TIP3    H153028   2.311   0.558   1.280  1.0128 -0.9385  0.9873
 9611TIP3    H253029   2.394   0.675   1.231 -0.7283 -0.5029 -1.0739
 9612TIP3   OH253030   2.594   4.157   2.586 -0.6764 -0.2697  0.3462
 9612TIP3    H153031   2.684   4.126   2.593  0.1078  1.3634 -1.4665
 9612TIP3    H253032   2.562   4.119   2.504 -1.9521 -1.4343  1.3283
 9613TIP3   OH253033   2.812   4.050   2.346  0.3221 -0.2938 -0.1196
 9613TIP3    H153034   2.860   3.968   2.335  2.6161  1.1314 -1.6057
 9613TIP3    H253035   2.848   4.088   2.426  0.4629 -0.0111 -0.3129
 9614TIP3   OH253036   6.885   0.434   2.583  0.4281  0.4596 -0.1306
 9614TIP3    H153037   6.879   0.508   2.644  0.8643  1.2795 -1.0620
 9614TIP3    H253038   6.845   0.362   2.630  1.9243  0.7148  1.6776
 9615TIP3   OH253039   7.537   5.067   2.894 -0.2598 -0.0317  0.3234
 9615TIP3    H153040   7.442   5.062   2.906 -0.2992 -1.4174 -0.4789
 9615TIP3    H253041   7.552   5.043   2.803  0.7954  1.2929  0.1108
 9616TIP3   OH253042   1.099   7.202   3.009  0.0252 -0.1559  0.5175
 9616TIP3    H153043   1.094   7.107   2.999 -0.0774  0.0641 -1.9996
 9616TIP3    H253044   1.028   7.222   3.070 -1.0911 -1.5507 -0.2437
 9617TIP3   OH253045   4.534   5.379   2.387 -0.1284  0.2733  1.0822
 9617TIP3    H153046   4.525   5.473   2.372  2.5707  0.8503  2.4412
 9617TIP3    H253047   4.505   5.366   2.478  0.2629 -0.0845  1.1572
 9618TIP3   OH253048   6.673   7.101   2.269 -0.7295  0.0442  0.1911
 9618TIP3    H153049   6.624   7.183   2.266 -0.2948  0.2839 -1.8212
 9618TIP3    H253050   6.628   7.043   2.207 -0.7569 -1.0937  1.2348
 9619TIP3   OH253051   4.783   2.670   1.120 -0.9721 -0.2972 -0.1099
 9619TIP3    H153052   4.820   2.735   1.060  1.9458 -2.5472 -0.9260
 9619TIP3    H253053   4.855   2.649   1.179 -2.2037 -1.9672  0.8476
 9620TIP3   OH253054   4.237   5.779   1.918 -0.4944 -0.4337  0.6412
 9620TIP3    H153055   4.192   5.742   1.994  0.2958  1.4462  2.0977
 9620TIP3    H253056   4.192   5.862   1.902 -0.6531 -0.8030 -0.9916
 9621TIP3   OH253057   0.965   5.017   0.741  0.7848 -0.0580 -0.3100
 9621TIP3    H153058   1.049   5.050   0.708  1.7130  0.8894  2.6753
 9621TIP3    H253059   0.953   5.061   0.825 -2.5904 -0.4166 -0.4546
 9622TIP3   OH253060   0.412   7.641   1.783 -0.2005  0.1403 -0.2112
 9622TIP3    H153061   0.386   7.632   1.691 -1.8160  0.8235  0.1283
 9622TIP3    H253062   0.329   7.641   1.831  0.5356  1.0148  1.1279
 9623TIP3   OH253063   7.530   7.599   2.041 -0.4020 -0.4725 -0.0907
 9623TIP3    H153064   7.542   7.574   1.949 -1.5165 -0.2458 -0.3177
 9623TIP3    H253065   7.540   7.694   2.041 -2.8253 -0.1404 -0.4626
 9624TIP3   OH253066   5.627   0.661   2.268 -0.0965  0.6672  0.2711
 9624TIP3    H153067   5.674   0.583   2.297 -0.1913  0.4822 -0.0752
 9624TIP3    H253068   5.684   0.699   2.201 -0.5490  0.3240 -0.3060
 9625TIP3   OH253069   1.646   6.921   3.836  0.1463  0.0819  0.2213
 9625TIP3    H153070   1.672   6.956   3.751 -0.3914  0.8480  0.3616
 9625TIP3    H253071   1.608   6.836   3.816 -0.2927  0.4079 -0.3542
 9626TIP3   OH253072   1.521   1.989   3.623 -0.5698  0.3674 -0.2229
 9626TIP3    H153073   1.539   1.896   3.637  0.6181  0.2555 -2.1709
 9626TIP3    H253074   1.428   1.998   3.641 -1.2179 -1.6648 -2.0514
 9627TIP3   OH253075   3.067   4.423   0.405 -0.3634 -0.3892  0.0588
 9627TIP3    H153076   3.052   4.516   0.386  0.5115 -0.1509  0.4739
 9627TIP3    H253077   2.983   4.381   0.385 -1.1772  0.6724  1.0260
 9628TIP3   OH253078   6.834   6.349   1.178  0.3089 -0.4666 -0.1681
 9628TIP3    H153079   6.813   6.437   1.207  0.6728 -0.2884 -0.4364
 9628TIP3    H253080   6.777   6.292   1.229 -0.3835 -0.0379 -0.4489
 9629TIP3   OH253081   0.640   3.245   0.671  0.1020 -0.1836  0.4100
 9629TIP3    H153082   0.692   3.294   0.608  0.3573  0.0015  0.7578
 9629TIP3    H253083   0.563   3.217   0.622  1.7025 -2.7169 -0.8215
 9630TIP3   OH253084   4.789   6.052   1.838 -0.1661  0.2091  0.0301
 9630TIP3    H153085   4.814   5.975   1.787  0.9907  1.7699 -1.8654
 9630TIP3    H253086   4.826   6.126   1.791 -2.9833  2.1626  0.6135
 9631TIP3   OH253087   2.823   3.958   1.208 -0.4538 -0.0113  0.1377
 9631TIP3    H153088   2.891   3.984   1.270  2.4200 -1.9904 -1.9560
 9631TIP3    H253089   2.758   4.028   1.214  2.2110  2.5883  1.5487
 9632TIP3   OH253090   1.936   6.955   2.319 -0.4309  0.1142  0.1236
 9632TIP3    H153091   1.906   6.898   2.389 -1.1956  0.9815  0.5134
 9632TIP3    H253092   2.019   6.915   2.290 -0.5630 -0.7531  0.8914
 9633TIP3   OH253093   6.601   0.305   2.511 -0.6765 -0.7754  0.0068
 9633TIP3    H153094   6.675   0.276   2.564  0.5466  0.3514 -1.0078
 9633TIP3    H253095   6.558   0.373   2.563 -0.4244 -0.7676  0.2018
 9634TIP3   OH253096   1.769   4.030   3.075  0.3964  0.2719  0.3651
 9634TIP3    H153097   1.791   3.937   3.063 -1.1118 -0.0285 -0.2416
 9634TIP3    H253098   1.716   4.032   3.154  0.5352  0.6437  0.4497
 9635TIP3   OH253099   4.263   1.248   0.717  0.4532 -0.0511 -0.6344
 9635TIP3    H153100   4.354   1.219   0.717  0.5709  0.2642 -1.7501
 9635TIP3    H253101   4.258   1.310   0.790  0.9057 -0.7116 -0.0247
 9636TIP3   OH253102   1.971   5.565   0.829 -0.1436  0.4316  0.3173
 9636TIP3    H153103   2.047   5.553   0.885  0.5494  1.7875 -0.2791
 9636TIP3    H253104   1.998   5.632   0.767 -1.6436  0.5280 -0.2669
 9637TIP3   OH253105   3.042   3.159   1.358 -0.1127 -0.0573  0.6274
 9637TIP3    H153106   3.127   3.121   1.379  0.6441 -0.0448 -2.0087
 9637TIP3    H253107   2.982   3.119   1.420  1.3075 -2.5083  0.5558
 9638TIP3   OH253108   7.293   2.807   0.828  0.1630 -0.1217  0.1443
 9638TIP3    H153109   7.334   2.813   0.742 -0.5832 -0.1811 -0.2227
 9638TIP3    H253110   7.366   2.793   0.889  0.9084  1.8173 -0.2372
 9639TIP3   OH253111   1.833   2.706   1.951  0.3902 -0.3261  0.4388
 9639TIP3    H153112   1.745   2.703   1.988 -0.3186  1.4086 -0.9958
 9639TIP3    H253113   1.826   2.663   1.866  0.9884 -0.3337  0.3839
 9640TIP3   OH253114   5.397   3.473   2.120  0.1091 -0.3717  0.3639
 9640TIP3    H153115   5.401   3.378   2.123  0.9970 -0.3400  0.5554
 9640TIP3    H253116   5.474   3.502   2.169  0.4404  0.4291 -0.5731
 9641TIP3   OH253117   4.141   2.208   1.048  0.2471 -0.4319  0.1959
 9641TIP3    H153118   4.101   2.205   0.962 -0.3747 -0.0456  0.4634
 9641TIP3    H253119   4.068   2.192   1.109  0.4713  0.3930  0.6936
 9642TIP3   OH253120   1.813   2.375   0.900 -0.0876 -0.2643  0.1964
 9642TIP3    H153121   1.849   2.299   0.854 -0.9583 -1.0605  0.7931
 9642TIP3    H253122   1.727   2.346   0.930 -1.2689  1.5854 -1.1949
 9643TIP3   OH253123   5.969   6.740   2.241  0.1183 -0.1041  0.1196
 9643TIP3    H153124   5.892   6.690   2.212  0.6161 -0.4691 -0.6358
 9643TIP3    H253125   6.041   6.705   2.188  0.7197  0.5559  0.4780
 9644TIP3   OH253126   3.380   5.559   2.360  0.1759  0.4077 -0.1458
 9644TIP3    H153127   3.320   5.629   2.387 -2.7404 -2.0648  0.4205
 9644TIP3    H253128   3.352   5.483   2.412  1.7100 -1.7419 -2.2706
 9645TIP3   OH253129   0.392   4.627   2.998 -0.0301 -0.4445 -0.5289
 9645TIP3    H153130   0.396   4.694   3.067 -0.5295 -0.9757  0.0253
 9645TIP3    H253131   0.450   4.661   2.930  0.9080 -0.1606  0.3673
 9646TIP3   OH253132   3.501   5.446   1.159  0.1499  0.0321  0.3827
 9646TIP3    H153133   3.558   5.484   1.226 -0.1866  0.3291  0.5084
 9646TIP3    H253134   3.487   5.356   1.188 -1.5926  0.6956  1.8226
 9647TIP3   OH253135   0.032   4.477   1.250 -0.2975 -0.3698  0.3117
 9647TIP3    H153136   0.120   4.489   1.286  0.4052  0.6453 -1.5778
 9647TIP3    H253137   0.047   4.450   1.159 -1.9166  0.5351 -0.2576
 9648TIP3   OH253138   5.420   3.777   1.221 -0.6350 -0.0947  0.3422
 9648TIP3    H153139   5.471   3.856   1.237 -0.2353 -0.4491  0.8887
 9648TIP3    H253140   5.358   3.801   1.152 -1.2745  1.0270  1.2662
 9649TIP3   OH253141   2.949   3.812   2.250 -0.3141 -0.2763  0.3360
 9649TIP3    H153142   3.035   3.817   2.292 -0.2887 -0.7290  0.3489
 9649TIP3    H253143   2.920   3.722   2.266 -0.4612 -0.3497 -0.3025
 9650TIP3   OH253144   5.261   1.206   1.779 -0.2338 -0.1963  0.4779
 9650TIP3    H153145   5.305   1.241   1.702  1.8290  0.4785  1.8807
 9650TIP3    H253146   5.177   1.252   1.782 -0.1590  0.0963 -1.0824
 9651TIP3   OH253147   5.248   0.354   1.215 -0.2825 -0.5971 -0.0019
 9651TIP3    H153148   5.207   0.294   1.277  0.4133 -2.1944 -1.0543
 9651TIP3    H253149   5.218   0.441   1.243 -0.3091 -1.2935  2.3210
 9652TIP3   OH253150   6.748   4.432   2.399  0.4009  0.5510 -0.5681
 9652TIP3    H153151   6.789   4.346   2.401 -1.1911 -0.2397  0.7453
 9652TIP3    H253152   6.803   4.486   2.455 -0.1570 -0.4198  0.9753
 9653TIP3   OH253153   6.921   1.573   0.750  0.1843 -0.8106 -0.5846
 9653TIP3    H153154   6.888   1.487   0.722  1.2522 -1.7989  1.0144
 9653TIP3    H253155   6.850   1.611   0.801  0.3566 -1.5558  0.2280
 9654TIP3   OH253156   6.891   6.642   1.973  0.0203 -0.3838 -0.2546
 9654TIP3    H153157   6.893   6.721   2.028  1.8242 -1.2222  0.9886
 9654TIP3    H253158   6.834   6.581   2.020 -2.9391  0.7103 -2.1540
 9655TIP3   OH253159   1.030   5.675   1.390 -0.2001 -0.1258  0.0993
 9655TIP3    H153160   1.069   5.657   1.304  0.0290  2.4985 -0.4324
 9655TIP3    H253161   1.011   5.769   1.388 -0.0426  0.0413  3.0056
 9656TIP3   OH253162   4.122   6.549   1.494 -0.0003  0.8013 -0.2293
 9656TIP3    H153163   4.152   6.461   1.520  1.4938  1.2543 -0.3017
 9656TIP3    H253164   4.028   6.549   1.513 -0.2199 -1.1240 -1.1292
 9657TIP3   OH253165   4.834   3.469   1.441  0.2927  0.4273 -0.1591
 9657TIP3    H153166   4.782   3.471   1.522  0.9089 -1.7777  0.3660
 9657TIP3    H253167   4.905   3.531   1.457 -0.4184  1.1288  0.3726
 9658TIP3   OH253168   4.923   6.985   1.154  0.1514  0.2824 -0.1499
 9658TIP3    H153169   4.974   7.027   1.085  1.7548  0.0062  0.8159
 9658TIP3    H253170   4.891   7.057   1.208 -1.7063  0.5540 -1.4968
 9659TIP3   OH253171   6.556   3.196   0.634  0.2387 -0.2849  0.4091
 9659TIP3    H153172   6.592   3.153   0.711 -0.6537 -0.3822  0.7833
 9659TIP3    H253173   6.464   3.168   0.631 -0.6364  2.2602  1.1755
 9660TIP3   OH253174   3.681   5.248   2.017  0.2878  0.4341 -0.0592
 9660TIP3    H153175   3.762   5.216   2.055 -1.2716 -1.3032  2.0392
 9660TIP3    H253176   3.624   5.266   2.092 -1.8070  0.0988 -1.4739
 9661TIP3   OH253177   4.818   0.879   2.338  0.3485 -0.4119 -0.6525
 9661TIP3    H153178   4.893   0.863   2.281 -0.5065  0.5292 -2.0974
 9661TIP3    H253179   4.825   0.971   2.362 -0.6138 -0.1859 -1.2137
 9662TIP3   OH253180   0.544   1.720   2.409  0.2095  0.0743  0.1464
 9662TIP3    H153181   0.504   1.767   2.482  1.7944 -2.1029  2.6039
 9662TIP3    H253182   0.638   1.730   2.422  0.5576  0.1817 -2.0443
 9663TIP3   OH253183   5.112   0.426   3.097 -0.2797  0.3564  0.3556
 9663TIP3    H153184   5.192   0.394   3.137 -1.1511 -0.4585  1.5199
 9663TIP3    H253185   5.044   0.409   3.163 -1.3386  1.3979 -0.4279
 9664TIP3   OH253186   4.042   6.536   0.873 -0.4670  0.0998 -0.3306
 9664TIP3    H153187   4.024   6.464   0.813  0.3886  0.6188 -1.2154
 9664TIP3    H253188   4.116   6.506   0.925  0.4811  0.6839 -1.3149
 9665TIP3   OH253189   6.547   2.162   1.142  0.4446 -0.0833 -0.3461
 9665TIP3    H153190   6.470   2.219   1.145  0.8100  0.5207  3.4892
 9665TIP3    H253191   6.512   2.073   1.140 -0.2282  0.1943 -1.9908
 9666TIP3   OH253192   2.494   0.064   3.029 -0.4471 -0.4414 -0.6421
 9666TIP3    H153193   2.572   0.051   3.083 -1.0185  0.6588  0.5016
 9666TIP3    H253194   2.491   0.158   3.014 -1.3465 -0.5155 -0.9906
 9667TIP3   OH253195   6.269   6.845   1.398 -0.0306  0.1213 -0.4382
 9667TIP3    H153196   6.176   6.825   1.403 -0.5187  2.3294  0.7822
 9667TIP3    H253197   6.290   6.881   1.484  2.0656 -0.6772 -0.5667
 9668TIP3   OH253198   5.705   6.800   2.656 -0.2997  0.1305 -0.1292
 9668TIP3    H153199   5.767   6.799   2.729 -1.8884  1.6426  1.3297
 9668TIP3    H253200   5.662   6.714   2.661  0.6748 -0.3801 -0.2801
 9669TIP3   OH253201   5.165   0.766   1.431  0.4819 -0.1262  0.4642
 9669TIP3    H153202   5.151   0.851   1.472  0.7630  0.0894  0.1159
 9669TIP3    H253203   5.238   0.780   1.370  0.8656 -0.7353  0.7697
 9670TIP3   OH253204   4.718   4.087   1.610 -0.3699 -0.2250 -0.0916
 9670TIP3    H153205   4.763   4.144   1.671  1.4950 -0.7255 -0.9013
 9670TIP3    H253206   4.667   4.145   1.555  0.4406  0.5496 -0.0480
 9671TIP3   OH253207   0.276   5.240   0.759 -0.5471  0.2829  0.1914
 9671TIP3    H153208   0.294   5.309   0.823  0.3108 -0.3265  0.6225
 9671TIP3    H253209   0.349   5.245   0.697 -0.2339 -0.5273  0.4845
 9672TIP3   OH253210   3.305   1.171   2.815  0.4329  0.9034 -0.0347
 9672TIP3    H153211   3.382   1.173   2.758  0.0729  2.0708 -0.5218
 9672TIP3    H253212   3.234   1.204   2.760 -0.2713  0.5004  0.6157
 9673TIP3   OH253213   5.789   4.711   1.104  0.2456  0.2314 -0.3118
 9673TIP3    H153214   5.778   4.797   1.064  0.9738  0.0713 -0.8778
 9673TIP3    H253215   5.699   4.679   1.117 -0.0785  1.6465  1.2264
 9674TIP3   OH253216   3.835   4.430   0.616 -0.0715  0.2456  0.0534
 9674TIP3    H153217   3.879   4.468   0.693 -1.2817  0.3732  0.7038
 9674TIP3    H253218   3.872   4.343   0.608 -0.8501 -0.2680  1.5989
 9675TIP3   OH253219   1.945   1.805   3.574  0.0014 -0.2184 -0.9165
 9675TIP3    H153220   2.019   1.773   3.625  1.5215  1.3131 -2.0485
 9675TIP3    H253221   1.962   1.773   3.485 -1.5547 -1.1796 -0.9041
 9676TIP3   OH253222   4.530   0.253   2.350 -0.4814  0.1987  0.1122
 9676TIP3    H153223   4.448   0.277   2.306 -0.0145  0.5639 -0.5698
 9676TIP3    H253224   4.511   0.169   2.391 -0.7744 -0.3978 -1.2144
 9677TIP3   OH253225   6.157   5.804   0.840  0.5405 -0.2394 -0.0607
 9677TIP3    H153226   6.161   5.884   0.893 -0.9269  0.8375 -1.4610
 9677TIP3    H253227   6.064   5.783   0.834  0.6029 -0.1739 -2.3113
 9678TIP3   OH253228   4.056   5.698   2.128 -0.0578  0.3966 -0.1529
 9678TIP3    H153229   4.033   5.692   2.221  1.2051  1.9282  0.3207
 9678TIP3    H253230   3.983   5.744   2.087 -0.7452 -0.5297  0.0174
 9679TIP3   OH253231   2.083   4.005   2.785 -0.3016 -1.0523  0.0595
 9679TIP3    H153232   2.154   3.970   2.733  0.0686 -0.0891 -0.1051
 9679TIP3    H253233   2.011   3.944   2.772 -0.0092 -1.1738 -1.0641
 9680TIP3   OH253234   2.839   7.576   1.312  0.6839 -0.0364 -0.4481
 9680TIP3    H153235   2.836   7.481   1.300  0.0947 -0.5012  2.5682
 9680TIP3    H253236   2.931   7.595   1.332  0.6132 -0.1156 -0.0536
 9681TIP3   OH253237   3.451   2.706   3.105  0.2043  0.5414  1.1198
 9681TIP3    H153238   3.381   2.765   3.075 -0.0830 -0.0053  0.7055
 9681TIP3    H253239   3.442   2.707   3.201 -1.4618 -0.7964  1.0294
 9682TIP3   OH253240   5.229   3.056   0.915 -0.5195 -0.3400  0.4814
 9682TIP3    H153241   5.255   2.964   0.923  0.7344  0.0044  0.5995
 9682TIP3    H253242   5.153   3.065   0.972  0.4548 -0.8872  1.9173
 9683TIP3   OH253243   6.836   7.481   1.685  0.1455 -0.2636 -0.1540
 9683TIP3    H153244   6.858   7.388   1.676  2.5547  0.2396 -0.1133
 9683TIP3    H253245   6.887   7.511   1.760  0.4960  1.3840 -1.0082
 9684TIP3   OH253246   5.312   1.587   1.745  0.2225 -0.2517 -0.1540
 9684TIP3    H153247   5.379   1.556   1.807  0.5048 -0.2133 -0.4363
 9684TIP3    H253248   5.358   1.593   1.661  0.1931  0.9867 -0.1007
 9685TIP3   OH253249   4.082   1.693   1.807  0.0935  0.0563  0.1462
 9685TIP3    H153250   4.087   1.602   1.779 -2.5797  0.1360 -0.9057
 9685TIP3    H253251   4.063   1.688   1.900 -0.8610 -0.5307 -0.0597
 9686TIP3   OH253252   0.005   0.488   1.348  0.5292 -0.5385 -0.1849
 9686TIP3    H153253  -0.047   0.440   1.413  1.5449  1.0768  1.9472
 9686TIP3    H253254   0.026   0.423   1.281 -1.8904 -1.8918  0.2405
 9687TIP3   OH253255   7.552   1.508   0.886 -0.4581  0.0040  0.2724
 9687TIP3    H153256   7.475   1.463   0.919 -0.2967 -0.7081 -0.3070
 9687TIP3    H253257   7.547   1.499   0.791  0.1212  0.3069  0.2068
 9688TIP3   OH253258   7.264   4.938   1.225  0.6509  0.7402  0.1096
 9688TIP3    H153259   7.339   4.997   1.231 -0.5546  2.4538 -0.9205
 9688TIP3    H253260   7.223   4.958   1.141 -0.3794 -0.8973  0.1638
 9689TIP3   OH253261   3.271   6.213   1.235 -0.2730  0.5782  0.2060
 9689TIP3    H153262   3.268   6.302   1.199  1.0185  0.0909 -1.2206
 9689TIP3    H253263   3.296   6.158   1.161  1.6382 -0.6036  1.6097
 9690TIP3   OH253264   5.170   5.605   0.679  0.0291 -0.0350  0.0795
 9690TIP3    H153265   5.155   5.558   0.597  0.3168 -1.2089  0.6817
 9690TIP3    H253266   5.218   5.684   0.653 -0.2596 -0.1752 -0.9233
 9691TIP3   OH253267   6.257   7.444   2.429 -0.0405 -0.2329  0.0801
 9691TIP3    H153268   6.260   7.483   2.342  1.1708 -1.7320 -0.6035
 9691TIP3    H253269   6.163   7.432   2.446 -0.3067  0.4105 -0.8550
 9692TIP3   OH253270   3.133   7.170   2.707 -0.1175 -0.2197  0.0114
 9692TIP3    H153271   3.041   7.187   2.727  0.1423 -1.7553  3.1048
 9692TIP3    H253272   3.181   7.218   2.775  1.2041 -1.6561  0.1399
 9693TIP3   OH253273   1.149   3.101   3.060 -0.5930  0.1678 -0.3868
 9693TIP3    H153274   1.164   3.191   3.089 -1.6239 -0.0759  1.0552
 9693TIP3    H253275   1.234   3.072   3.026  0.4069  0.9476  1.2817
 9694TIP3   OH253276   3.089   1.971   3.418 -0.3068  0.2631 -0.4431
 9694TIP3    H153277   3.051   2.036   3.477  1.6347  0.8219  0.2556
 9694TIP3    H253278   3.138   1.912   3.475  0.1307 -0.2599 -1.3329
 9695TIP3   OH253279   6.456   2.724   1.647 -0.1782 -0.0245 -0.5320
 9695TIP3    H153280   6.383   2.785   1.650  0.8768  1.2380  0.6663
 9695TIP3    H253281   6.415   2.638   1.640 -1.9657  0.3787  2.8112
 9696TIP3   OH253282   3.572   2.533   1.342 -0.7280  0.0398  0.7315
 9696TIP3    H153283   3.519   2.590   1.285 -0.1087 -1.9124 -1.9811
 9696TIP3    H253284   3.531   2.447   1.334  0.8881 -0.8078  1.2736
 9697TIP3   OH253285   0.107   2.348   2.967 -0.1696  0.0443 -0.1257
 9697TIP3    H153286   0.020   2.351   2.929 -0.6784  0.7445  1.0479
 9697TIP3    H253287   0.132   2.439   2.980  0.4550 -0.1569  0.1629
 9698TIP3   OH253288   0.695   2.198   2.660  0.2021  0.4587  0.5161
 9698TIP3    H153289   0.774   2.250   2.646  1.1363 -0.9165  0.4603
 9698TIP3    H253290   0.623   2.255   2.632  1.3290  1.0279 -1.4005
 9699TIP3   OH253291   4.398   0.553   1.693 -0.3481 -0.3137 -0.1988
 9699TIP3    H153292   4.452   0.582   1.620 -1.3486  1.1398 -0.4053
 9699TIP3    H253293   4.308   0.561   1.660 -0.8211  0.4038  1.1870
 9700TIP3   OH253294   1.587   2.226   0.904 -0.0293 -0.2051 -0.0607
 9700TIP3    H153295   1.555   2.145   0.944  2.1318 -1.7143 -1.1892
 9700TIP3    H253296   1.572   2.214   0.810  0.0039  0.8610 -0.2115
 9701TIP3   OH253297   4.546   6.815   1.696 -0.5835  0.2877  0.3157
 9701TIP3    H153298   4.586   6.821   1.609 -0.9372  0.0224  0.1374
 9701TIP3    H253299   4.452   6.812   1.680 -0.6299 -0.3987  0.6738
 9702TIP3   OH253300   6.362   4.143   0.633  0.3741 -0.2038 -0.0015
 9702TIP3    H153301   6.455   4.159   0.619  0.6047 -0.8370  0.7358
 9702TIP3    H253302   6.349   4.052   0.606 -0.1904  0.1066 -0.8122
 9703TIP3   OH253303   3.207   3.791   1.111  0.1606  0.5458 -0.1616
 9703TIP3    H153304   3.231   3.706   1.074 -0.7657  1.1299 -2.2345
 9703TIP3    H253305   3.136   3.823   1.056 -1.0001  1.7312  1.8868
 9704TIP3   OH253306   2.703   1.812   1.749  0.5014  0.1245 -0.2063
 9704TIP3    H153307   2.736   1.830   1.661 -1.2848  0.9933 -0.7553
 9704TIP3    H253308   2.704   1.897   1.792  1.1220 -0.2520  0.5359
 9705TIP3   OH253309   5.989   1.449   2.438 -0.4719 -0.4875 -0.0839
 9705TIP3    H153310   5.996   1.464   2.343  1.8335 -1.4233 -0.1328
 9705TIP3    H253311   6.004   1.536   2.476  0.5571 -0.4352 -0.5653
 9706TIP3   OH253312   3.610   7.345   2.944  0.5764  0.3246 -0.1448
 9706TIP3    H153313   3.574   7.336   3.033 -0.1558  0.3291 -0.4347
 9706TIP3    H253314   3.690   7.293   2.946 -0.6955 -1.7601 -0.1690
 9707TIP3   OH253315   0.923   4.085   1.893  0.3812 -0.3050 -0.0100
 9707TIP3    H153316   0.915   4.017   1.960 -0.1754  1.0433  1.3502
 9707TIP3    H253317   0.920   4.037   1.810 -0.4005 -1.8953  0.8865
 9708TIP3   OH253318   7.278   0.851   2.816  0.0747 -0.1938 -0.1589
 9708TIP3    H153319   7.334   0.844   2.893 -1.1887  0.3384  0.8592
 9708TIP3    H253320   7.280   0.944   2.793  0.7529 -0.4156 -1.0178
 9709TIP3   OH253321   2.675   4.400   2.300 -1.0236 -0.2468 -0.2667
 9709TIP3    H153322   2.635   4.449   2.229  0.4232 -1.0705 -1.7271
 9709TIP3    H253323   2.602   4.363   2.349 -2.0680 -1.0277 -2.3234
 9710TIP3   OH253324   3.089   2.792   1.165  0.2960 -0.3804  0.6048
 9710TIP3    H153325   3.148   2.826   1.099  0.9930 -0.1094  1.3534
 9710TIP3    H253326   3.102   2.697   1.162  0.2265 -0.3817  0.2705
 9711TIP3   OH253327   0.111   2.706   2.373 -0.7281 -0.4313  0.5553
 9711TIP3    H153328   0.137   2.687   2.463  1.5891 -0.0248  0.0322
 9711TIP3    H253329   0.188   2.682   2.320 -1.8792 -0.2870 -1.2798
 9712TIP3   OH253330   5.299   6.359   1.410 -0.4891  0.0769 -0.1070
 9712TIP3    H153331   5.226   6.354   1.472  1.0430 -0.3042  1.7559
 9712TIP3    H253332   5.367   6.408   1.457 -0.0797  1.8559 -2.3828
 9713TIP3   OH253333   0.903   5.079   1.536  0.2600  0.3726 -0.0628
 9713TIP3    H153334   0.856   5.058   1.616  0.4386 -0.6047 -0.2035
 9713TIP3    H253335   0.887   5.173   1.522  1.4784  0.9223  1.9222
 9714TIP3   OH253336   0.897   7.121   1.687  0.4317  0.1389 -0.2523
 9714TIP3    H153337   0.825   7.089   1.741 -0.8110  0.9023 -1.3774
 9714TIP3    H253338   0.869   7.104   1.597  0.9349  1.8429 -0.7761
 9715TIP3   OH253339   2.599   4.784   0.530  0.0364  0.4911 -0.2588
 9715TIP3    H153340   2.557   4.733   0.461 -0.0127  1.4726 -0.9904
 9715TIP3    H253341   2.685   4.744   0.540 -0.4228 -0.4468  0.0127
 9716TIP3   OH253342   1.398   4.481   2.907 -0.4110  0.3183  0.3455
 9716TIP3    H153343   1.429   4.566   2.875  1.0609 -0.1501  0.4291
 9716TIP3    H253344   1.349   4.502   2.986 -0.0020  1.0894  0.4092
 9717TIP3   OH253345   1.886   1.266   0.699 -0.2113  0.0101  0.0934
 9717TIP3    H153346   1.836   1.208   0.757 -0.1801  1.4021  1.5724
 9717TIP3    H253347   1.821   1.302   0.639 -1.2249  2.2589  2.3620
 9718TIP3   OH253348   7.549   0.998   0.810 -0.3410  0.2452 -0.0863
 9718TIP3    H153349   7.577   1.088   0.824  2.1281 -0.3593 -0.6395
 9718TIP3    H253350   7.530   0.964   0.897  0.7887  0.6867  0.3363
 9719TIP3   OH253351   1.384   4.981   1.114 -0.8197  0.4152 -0.4240
 9719TIP3    H153352   1.442   4.979   1.190 -1.8422 -0.2910  0.3647
 9719TIP3    H253353   1.421   4.917   1.054 -0.4363  0.4109 -0.1896
 9720TIP3   OH253354   5.524   5.627   2.298  0.0615  0.2522 -0.0405
 9720TIP3    H153355   5.583   5.569   2.249  0.5106 -1.2066  2.0777
 9720TIP3    H253356   5.437   5.593   2.280 -0.0655  1.4644 -1.9628
 9721TIP3   OH253357   5.889   1.434   2.871  0.5839  0.4183 -0.2436
 9721TIP3    H153358   5.866   1.480   2.952 -1.5225  0.9273 -1.0555
 9721TIP3    H253359   5.980   1.459   2.854  0.6084  1.4419  1.2182
 9722TIP3   OH253360   3.483   5.431   2.887  0.1345 -0.6311 -0.0631
 9722TIP3    H153361   3.569   5.407   2.919  0.4846 -0.8812 -1.1389
 9722TIP3    H253362   3.498   5.457   2.796 -0.8963 -0.5215 -0.2153
 9723TIP3   OH253363   4.709   0.086   0.943 -0.2087  0.0846 -0.3000
 9723TIP3    H153364   4.735   0.010   0.994  0.3464  1.7727  2.1295
 9723TIP3    H253365   4.619   0.104   0.971 -0.4397  0.1733 -1.0717
 9724TIP3   OH253366   6.010   4.231   1.404  0.0775 -0.6213  0.4938
 9724TIP3    H153367   5.942   4.258   1.342  1.4503  0.4581 -0.6188
 9724TIP3    H253368   6.062   4.311   1.418  1.9342 -1.7292  0.1905
 9725TIP3   OH253369   4.690   5.643   2.584 -0.4062 -0.4690 -0.1025
 9725TIP3    H153370   4.713   5.552   2.602 -1.1470 -0.6478 -0.0339
 9725TIP3    H253371   4.765   5.694   2.615  0.3793 -1.1036 -0.8956
 9726TIP3   OH253372   0.874   2.713   0.646  0.0719 -0.8062  0.2089
 9726TIP3    H153373   0.799   2.654   0.654 -0.3669 -0.3184 -0.2005
 9726TIP3    H253374   0.836   2.797   0.620  0.7217 -0.4346  0.4281
 9727TIP3   OH253375   6.466   7.553   0.788  0.3280 -0.5241  0.1256
 9727TIP3    H153376   6.399   7.582   0.850 -0.5158 -2.5300  0.2465
 9727TIP3    H253377   6.423   7.483   0.738  1.9154 -0.9392 -0.7312
 9728TIP3   OH253378   2.141   2.442   4.073 -0.2495 -0.2220 -0.3944
 9728TIP3    H153379   2.181   2.501   4.009 -0.2437  1.3792  1.0249
 9728TIP3    H253380   2.198   2.365   4.073  0.7678  0.5103 -1.0241
 9729TIP3   OH253381   0.502   4.082   1.899  0.1366 -0.1466  0.4707
 9729TIP3    H153382   0.520   4.004   1.952 -0.1950 -2.2252 -2.2080
 9729TIP3    H253383   0.435   4.053   1.837  0.0413  2.2884 -0.6703
 9730TIP3   OH253384   1.982   3.061   1.379  0.1307 -0.2682 -0.0176
 9730TIP3    H153385   1.991   2.996   1.448  1.7214  2.2919  2.3727
 9730TIP3    H253386   2.055   3.045   1.320  0.8701 -0.2814  0.8955
 9731TIP3   OH253387   3.903   0.196   0.391  0.1404  0.4683  0.1478
 9731TIP3    H153388   3.922   0.126   0.453  0.8058  0.2083 -0.3368
 9731TIP3    H253389   3.899   0.152   0.306  2.3549  1.2379 -0.4220
 9732TIP3   OH253390   4.761   3.790   1.338  0.2080 -0.4751 -0.2118
 9732TIP3    H153391   4.804   3.742   1.267  1.2409  0.5743 -0.3281
 9732TIP3    H253392   4.769   3.882   1.312 -1.0214 -0.1904  0.3911
 9733TIP3   OH253393   4.341   2.587   1.148  0.1156 -0.2986  0.4005
 9733TIP3    H153394   4.256   2.544   1.158  1.1115 -2.5311 -0.1166
 9733TIP3    H253395   4.394   2.525   1.097  1.7761  1.4344 -0.1245
 9734TIP3   OH253396   1.428   6.355   0.890  0.0824  0.1450 -0.1509
 9734TIP3    H153397   1.468   6.442   0.881 -0.6046  0.7308  1.9646
 9734TIP3    H253398   1.399   6.352   0.980 -0.7725 -1.9521 -0.4634
 9735TIP3   OH253399   6.573   5.591   2.665  0.5209 -0.4615 -0.0552
 9735TIP3    H153400   6.535   5.664   2.615 -0.1861 -1.3498 -0.8571
 9735TIP3    H253401   6.589   5.628   2.752  0.3382  0.6972 -0.4887
 9736TIP3   OH253402   2.700   6.177   2.291 -0.0240  0.5899 -0.1049
 9736TIP3    H153403   2.648   6.223   2.225 -1.3087 -2.3295 -1.3151
 9736TIP3    H253404   2.637   6.120   2.335  1.7366 -1.4397 -0.0791
 9737TIP3   OH253405   6.284   0.803   1.749  0.8186 -0.3299  0.2153
 9737TIP3    H153406   6.195   0.812   1.715 -0.9156  2.2315  4.5588
 9737TIP3    H253407   6.294   0.710   1.767 -0.8774 -0.6908 -0.5092
 9738TIP3   OH253408   4.091   2.621   2.079 -0.1932  0.7882 -0.3834
 9738TIP3    H153409   4.004   2.603   2.043  0.6977  0.6876 -2.6100
 9738TIP3    H253410   4.151   2.582   2.016  1.4929 -0.9775  2.1260
 9739TIP3   OH253411   6.966   6.009   1.358 -0.1869 -0.2890  0.5854
 9739TIP3    H153412   6.950   6.093   1.315 -3.0394 -0.9769  0.1279
 9739TIP3    H253413   6.964   5.945   1.286  2.3389 -0.7874  0.8713
 9740TIP3   OH253414   7.111   0.437   2.114  0.0211 -0.0532 -0.0075
 9740TIP3    H153415   7.016   0.430   2.108 -0.0465  0.7585  0.0984
 9740TIP3    H253416   7.131   0.528   2.092  0.8724 -0.4735 -1.1257
 9741TIP3   OH253417   7.464   0.859   1.036 -0.2260 -0.1062  0.1615
 9741TIP3    H153418   7.409   0.849   1.114  0.7087 -0.8489  0.7530
 9741TIP3    H253419   7.513   0.777   1.031  0.2593  0.2274 -0.7989
 9742TIP3   OH253420   2.596   0.217   1.209 -0.2653  0.3834 -0.5569
 9742TIP3    H153421   2.686   0.194   1.185  0.0455 -0.6065  1.3186
 9742TIP3    H253422   2.553   0.134   1.227 -0.5416  0.9496  1.7749
 9743TIP3   OH253423   3.333   4.465   1.515 -0.0438 -0.2164 -0.5051
 9743TIP3    H153424   3.239   4.462   1.530 -0.2906  1.1396 -1.6904
 9743TIP3    H253425   3.370   4.413   1.588 -1.5412  1.1085  1.2856
 9744TIP3   OH253426   5.668   2.836   1.691 -0.0607 -0.2997  0.2908
 9744TIP3    H153427   5.591   2.829   1.636 -0.8769  1.9126  1.0525
 9744TIP3    H253428   5.739   2.860   1.631  0.1238 -2.4018 -0.4171
 9745TIP3   OH253429   6.194   5.834   2.706  0.3801  0.1601 -0.4290
 9745TIP3    H153430   6.153   5.920   2.717 -0.6787 -0.6836  3.7163
 9745TIP3    H253431   6.121   5.772   2.704  1.1690 -0.9732  2.0780
 9746TIP3   OH253432   7.112   4.914   0.751 -0.1932  0.1646 -0.1060
 9746TIP3    H153433   7.142   4.972   0.821 -0.1524  1.0355 -0.8303
 9746TIP3    H253434   7.023   4.890   0.776  0.6088 -1.4976  1.4627
 9747TIP3   OH253435   4.595   0.704   1.906 -0.2028  0.1102  0.2342
 9747TIP3    H153436   4.532   0.742   1.967 -0.7586  1.2520 -0.9894
 9747TIP3    H253437   4.554   0.713   1.820  1.4650  0.5873 -0.5705
 9748TIP3   OH253438   0.374   5.657   0.864 -0.2674 -0.1837 -0.4197
 9748TIP3    H153439   0.461   5.641   0.828 -0.8705 -0.1612 -1.9970
 9748TIP3    H253440   0.336   5.570   0.876 -0.7987 -0.1915 -1.8555
 9749TIP3   OH253441   2.394   1.661   0.726  0.8707  0.3545  0.1895
 9749TIP3    H153442   2.321   1.599   0.733 -1.1656  2.7068  1.5804
 9749TIP3    H253443   2.389   1.693   0.636 -0.5537  1.2463  0.5488
 9750TIP3   OH253444   3.672   3.493   0.683 -0.0975 -0.0510  0.1280
 9750TIP3    H153445   3.724   3.457   0.610  1.0578 -0.5247  1.1394
 9750TIP3    H253446   3.737   3.515   0.749 -1.0999  0.7431  0.8684
 9751TIP3   OH253447   0.221   3.277   2.103 -0.1688  0.7400  0.1837
 9751TIP3    H153448   0.248   3.363   2.134  0.6742  0.5338  0.0534
 9751TIP3    H253449   0.298   3.243   2.057 -0.5020 -0.0737  0.2136
 9752TIP3   OH253450   6.398   5.036   1.384  0.7244 -0.0834  0.1838
 9752TIP3    H153451   6.397   5.109   1.321 -0.5116 -1.2091 -1.1624
 9752TIP3    H253452   6.491   5.015   1.395  0.9366 -0.7237 -2.3353
 9753TIP3   OH253453   7.226   0.577   0.917  0.0914  0.1009 -0.4114
 9753TIP3    H153454   7.315   0.545   0.929  1.0594  2.8379  0.3395
 9753TIP3    H253455   7.180   0.553   0.997  0.8292  0.6785  0.1974
 9754TIP3   OH253456   2.904   5.676   1.334  0.0782  0.3307  0.5139
 9754TIP3    H153457   2.896   5.723   1.251  1.5184 -1.3733 -0.6476
 9754TIP3    H253458   2.843   5.722   1.393 -1.1065  1.4844 -1.4892
 9755TIP3   OH253459   6.463   2.106   1.884 -0.2411  0.2980 -0.5937
 9755TIP3    H153460   6.509   2.047   1.825 -0.7149 -1.1552  0.4206
 9755TIP3    H253461   6.509   2.096   1.968 -0.0206  1.7766 -0.5123
 9756TIP3   OH253462   4.348   2.732   1.555 -0.2586 -0.1500 -0.5971
 9756TIP3    H153463   4.263   2.706   1.520  0.9326 -2.3715 -2.1014
 9756TIP3    H253464   4.389   2.651   1.583  1.1041  0.9604  0.8254
 9757TIP3   OH253465   3.411   6.481   2.233  0.3634 -0.1466 -0.0354
 9757TIP3    H153466   3.349   6.469   2.161 -1.1604 -0.3129  1.2612
 9757TIP3    H253467   3.375   6.553   2.285  1.3263 -0.1578  0.6825
 9758TIP3   OH253468   5.515   0.226   1.561  0.1467 -0.2325  0.1089
 9758TIP3    H153469   5.551   0.143   1.595 -0.3898 -0.3912  0.2896
 9758TIP3    H253470   5.476   0.268   1.637  1.4709  0.7609  0.2663
 9759TIP3   OH253471   4.095   5.252   1.830 -0.0170  0.2748  0.4456
 9759TIP3    H153472   4.070   5.318   1.894 -0.7565 -1.4611  2.0210
 9759TIP3    H253473   4.033   5.262   1.758  0.1015  1.4901  0.5004
 9760TIP3   OH253474   2.969   6.296   2.645 -0.3491 -0.3798 -0.1886
 9760TIP3    H153475   3.056   6.299   2.684 -0.3318 -0.7741 -0.1931
 9760TIP3    H253476   2.935   6.385   2.655  0.5764  0.1248 -1.4114
 9761TIP3   OH253477   1.399   0.258   2.822 -0.5930 -0.3045 -0.5291
 9761TIP3    H153478   1.490   0.231   2.817  0.0169  1.6070 -0.4914
 9761TIP3    H253479   1.380   0.265   2.915 -0.8721 -0.9851 -0.5333
 9762TIP3   OH253480   5.525   3.312   2.774  0.6026 -0.1092 -0.5727
 9762TIP3    H153481   5.536   3.299   2.679  0.0744 -2.7040 -0.3581
 9762TIP3    H253482   5.592   3.257   2.814  1.2946  1.5079  0.6323
 9763TIP3   OH253483   3.508   5.574   1.939 -0.5682 -0.3483  0.4645
 9763TIP3    H153484   3.453   5.637   1.985 -1.0851 -0.4851  0.0383
 9763TIP3    H253485   3.456   5.546   1.864  0.1887 -0.2631 -0.1077
 9764TIP3   OH253486   6.951   2.585   0.676  0.0551 -0.5710  0.0716
 9764TIP3    H153487   6.965   2.620   0.765 -1.2119  0.4257 -0.0931
 9764TIP3    H253488   6.881   2.521   0.687  0.2662 -0.8304 -0.1182
 9765TIP3   OH253489   4.346   6.332   3.316 -0.3602  0.1856 -0.2831
 9765TIP3    H153490   4.425   6.278   3.320  0.1615  0.9683  2.5357
 9765TIP3    H253491   4.274   6.269   3.312  0.3459 -0.5627 -2.0023
 9766TIP3   OH253492   3.347   5.735   1.345  0.4043  0.3973  0.1564
 9766TIP3    H153493   3.418   5.688   1.389  0.2576  1.0427  1.1060
 9766TIP3    H253494   3.287   5.759   1.415 -1.7816 -1.7957 -0.8178
 9767TIP3   OH253495   6.682   0.726   2.380  0.2407  0.3450 -0.2085
 9767TIP3    H153496   6.668   0.721   2.475  0.7773  0.8684 -0.0956
 9767TIP3    H253497   6.751   0.661   2.362 -0.0544  0.0507 -0.2835
 9768TIP3   OH253498   0.572   4.319   1.701  0.4271 -0.3900  0.0977
 9768TIP3    H153499   0.596   4.246   1.758  1.8026  0.1508  0.2467
 9768TIP3    H253500   0.601   4.397   1.748 -1.2973  0.3121  0.0831
 9769TIP3   OH253501   4.588   1.365   1.336 -0.2406  0.6897  0.3283
 9769TIP3    H153502   4.551   1.345   1.422 -2.1868 -1.0609 -0.8121
 9769TIP3    H253503   4.518   1.409   1.289  0.2958  0.3476 -0.8309
 9770TIP3   OH253504   5.501   5.262   1.693  0.0255  0.4855 -0.4770
 9770TIP3    H153505   5.519   5.356   1.698 -1.8849  0.8340  1.0851
 9770TIP3    H253506   5.407   5.257   1.677  0.0108 -1.1610  0.0120
 9771TIP3   OH253507   1.935   0.796   1.210  0.1509  0.6963  0.0441
 9771TIP3    H153508   1.998   0.727   1.190 -0.5210 -0.0054  0.2903
 9771TIP3    H253509   1.904   0.775   1.298 -1.5867  0.0930 -0.6607
 9772TIP3   OH253510   3.238   2.849   2.709 -0.5337 -0.2995 -0.3302
 9772TIP3    H153511   3.232   2.753   2.715 -0.2305 -0.4520 -2.0547
 9772TIP3    H253512   3.160   2.880   2.753  0.2897 -1.2385  1.9858
 9773TIP3   OH253513   3.115   1.730   1.637 -0.4153 -0.2102 -0.0142
 9773TIP3    H153514   3.148   1.762   1.721  0.3253 -0.5041 -0.1871
 9773TIP3    H253515   3.134   1.800   1.575 -0.9114 -0.0167  0.0511
 9774TIP3   OH253516   5.839   6.091   1.289 -0.2947 -0.1616  0.5323
 9774TIP3    H153517   5.892   6.163   1.254 -1.3696  0.6906  0.5766
 9774TIP3    H253518   5.899   6.040   1.343  1.2974 -1.1926 -2.0472
 9775TIP3   OH253519   2.503   5.049   0.849 -0.0136  0.3489  0.4352
 9775TIP3    H153520   2.505   5.033   0.755 -3.3065  0.7775  0.2054
 9775TIP3    H253521   2.548   5.133   0.860 -0.7848  0.9668 -0.9304
 9776TIP3   OH253522   6.981   3.152   1.943  0.3717  0.5460 -0.0403
 9776TIP3    H153523   6.888   3.130   1.937  0.7018 -0.9878  0.0271
 9776TIP3    H253524   7.000   3.154   2.036  0.7472 -0.8752 -0.0517
 9777TIP3   OH253525   1.988   2.863   1.579  0.0180 -0.0546  0.0157
 9777TIP3    H153526   1.919   2.817   1.532 -0.4678 -0.0341  0.6941
 9777TIP3    H253527   2.070   2.829   1.542 -0.3179  1.4436 -2.2853
 9778TIP3   OH253528   1.549   5.046   2.300  0.1500  0.3927  0.7965
 9778TIP3    H153529   1.468   5.039   2.250  0.3886  1.1989  0.2727
 9778TIP3    H253530   1.610   5.088   2.240 -0.2146  3.6106  2.4600
 9779TIP3   OH253531   2.538   2.842   2.021  0.4056 -0.0650  0.2757
 9779TIP3    H153532   2.473   2.870   1.957  0.8796  0.0331 -0.1708
 9779TIP3    H253533   2.582   2.923   2.047 -0.3695  0.0129  1.3839
 9780TIP3   OH253534   6.968   1.730   2.621 -0.4664 -0.1890  0.1004
 9780TIP3    H153535   6.880   1.737   2.585 -0.4331 -1.2671 -0.2256
 9780TIP3    H253536   6.960   1.670   2.695 -0.2584  0.8484  0.9878
 9781TIP3   OH253537   3.256   0.835   3.217  0.3853 -0.2453  0.1997
 9781TIP3    H153538   3.305   0.788   3.149  1.7070  0.0590  0.8916
 9781TIP3    H253539   3.290   0.799   3.299 -3.2161 -2.7373  0.8321
 9782TIP3   OH253540   4.085   6.419   1.737  0.2538 -0.0208  0.3213
 9782TIP3    H153541   4.094   6.502   1.785 -0.7599  0.4969 -0.3385
 9782TIP3    H253542   4.009   6.377   1.775  0.1406 -0.1519 -0.0413
 9783TIP3   OH253543   3.340   4.534   2.847  0.0108  0.4557  0.0058
 9783TIP3    H153544   3.426   4.553   2.809 -0.0039  0.7447  0.1130
 9783TIP3    H253545   3.343   4.441   2.868  0.1956  0.4035 -0.2507
 9784TIP3   OH253546   7.051   7.186   2.883  0.5491 -0.2186 -0.3002
 9784TIP3    H153547   7.064   7.093   2.867  0.5706 -0.2105 -0.3304
 9784TIP3    H253548   7.077   7.228   2.801 -0.4876 -0.2616 -0.6600
 9785TIP3   OH253549   1.941   0.252   3.801  0.3809 -0.1453 -0.3979
 9785TIP3    H153550   1.972   0.311   3.732 -1.1585  0.6010 -0.4878
 9785TIP3    H253551   1.870   0.299   3.844  1.3305 -0.5633  1.7794
 9786TIP3   OH253552   3.669   0.417   2.063  0.2294 -0.5582  0.5885
 9786TIP3    H153553   3.750   0.466   2.049 -1.5849  2.0687 -1.8937
 9786TIP3    H253554   3.689   0.329   2.031  2.0388  0.0924 -0.2288
 9787TIP3   OH253555   3.111   2.794   1.827 -0.3359  0.4999  0.1522
 9787TIP3    H153556   3.116   2.883   1.792 -2.1657  0.7327  0.3665
 9787TIP3    H253557   3.074   2.805   1.914 -0.8747 -0.4916  0.0604
 9788TIP3   OH253558   3.400   1.916   0.524 -0.1642  0.4110  0.3347
 9788TIP3    H153559   3.388   2.003   0.560  1.8888  0.2481  1.5660
 9788TIP3    H253560   3.476   1.923   0.467  0.9916 -0.8207  1.6149
 9789TIP3   OH253561   4.563   0.667   1.495  0.0079 -0.5362 -0.5578
 9789TIP3    H153562   4.580   0.755   1.530  0.5708 -0.5542 -0.7836
 9789TIP3    H253563   4.511   0.681   1.416 -1.5004 -0.5047  0.3954
 9790TIP3   OH253564   2.556   7.623   1.757 -0.0747 -0.2031  0.1870
 9790TIP3    H153565   2.483   7.568   1.728  0.4094 -0.1870 -1.1276
 9790TIP3    H253566   2.628   7.602   1.697  0.7908  0.2955  1.0114
 9791TIP3   OH253567   5.475   6.957   0.985 -0.3494 -0.0341  0.0353
 9791TIP3    H153568   5.387   6.919   0.984 -0.6187  0.5012 -2.4534
 9791TIP3    H253569   5.534   6.881   0.983 -0.8045 -0.3840 -0.5341
 9792TIP3   OH253570   0.458   0.148   3.498 -0.7672  0.1986  0.4840
 9792TIP3    H153571   0.539   0.198   3.489  0.4637 -1.5071  1.3358
 9792TIP3    H253572   0.390   0.205   3.463  0.8832  1.4243 -0.9074
 9793TIP3   OH253573   1.387   4.522   3.390 -0.3633  0.4706  0.5606
 9793TIP3    H153574   1.424   4.437   3.412 -0.8764  0.1142  0.0651
 9793TIP3    H253575   1.320   4.503   3.324  1.9111  1.5525 -2.3061
 9794TIP3   OH253576   5.472   2.011   1.927 -0.3818 -1.0545 -0.3406
 9794TIP3    H153577   5.549   2.063   1.950 -1.1398 -0.2690  0.4454
 9794TIP3    H253578   5.462   2.024   1.832 -0.2374 -0.2206 -0.2445
 9795TIP3   OH253579   2.172   3.334   1.211 -0.0829  0.5432  0.0270
 9795TIP3    H153580   2.118   3.384   1.271  0.9339  0.4621  1.0427
 9795TIP3    H253581   2.232   3.398   1.173 -1.2663  0.7514 -1.5798
 9796TIP3   OH253582   4.603   3.055   2.577  0.2012 -0.7677 -0.0416
 9796TIP3    H153583   4.670   2.992   2.551  1.2456  1.2028 -2.5050
 9796TIP3    H253584   4.541   3.055   2.504 -0.3674  0.2951  0.4250
 9797TIP3   OH253585   0.002   5.402   3.511  0.2789  0.4166  0.5319
 9797TIP3    H153586   0.011   5.356   3.427 -1.0686  1.3625 -0.1896
 9797TIP3    H253587   0.082   5.453   3.519 -0.0886  1.2756 -0.8322
 9798TIP3   OH253588   2.229   6.700   1.147 -0.2971  0.0245  0.4489
 9798TIP3    H153589   2.188   6.786   1.137 -1.1313 -0.3810  0.3182
 9798TIP3    H253590   2.188   6.662   1.225  0.8130  0.1523  1.1181
 9799TIP3   OH253591   5.603   1.547   0.516 -0.4765 -0.1483  0.0973
 9799TIP3    H153592   5.634   1.617   0.574 -0.8488 -0.1741  0.3314
 9799TIP3    H253593   5.666   1.545   0.445 -1.1000  1.2246 -0.5243
 9800TIP3   OH253594   4.997   2.798   1.896 -0.0781  0.7303  0.3570
 9800TIP3    H153595   5.034   2.822   1.811  0.2745 -0.0134  0.2903
 9800TIP3    H253596   5.045   2.720   1.922  0.6947  1.6515  1.8465
 9801TIP3   OH253597   0.706   4.067   1.001 -0.0655  0.3505 -0.6194
 9801TIP3    H153598   0.759   4.068   0.921 -0.8468 -2.4787 -1.2942
 9801TIP3    H253599   0.622   4.105   0.973  0.6544  2.3760 -0.2233
 9802TIP3   OH253600   2.547   6.907   1.109 -0.1101 -0.0005  0.0479
 9802TIP3    H153601   2.577   6.915   1.200 -1.9981  0.4289  0.6725
 9802TIP3    H253602   2.513   6.818   1.102 -2.0830  0.6755  0.4829
 9803TIP3   OH253603   6.107   3.928   0.773 -0.3001 -0.0064 -0.9233
 9803TIP3    H153604   6.061   3.991   0.718 -3.2087 -0.2124  1.0558
 9803TIP3    H253605   6.038   3.882   0.821  1.9412 -0.7802  1.8743
 9804TIP3   OH253606   6.535   6.928   2.086  0.3251  0.0355 -0.7255
 9804TIP3    H153607   6.578   6.915   2.002 -0.0787  2.3408 -1.3605
 9804TIP3    H253608   6.448   6.891   2.075  0.6692 -0.7187 -0.9214
 9805TIP3   OH253609   5.291   5.766   2.095 -0.4517 -0.1852  0.5732
 9805TIP3    H153610   5.293   5.715   2.176 -1.0147  0.9714  1.3363
 9805TIP3    H253611   5.234   5.840   2.115 -0.6859  0.0617 -0.9203
 9806TIP3   OH253612   3.443   5.178   1.183 -0.3109 -0.6677 -0.4284
 9806TIP3    H153613   3.432   5.105   1.244 -0.8782 -0.5642 -0.4067
 9806TIP3    H253614   3.420   5.143   1.098  0.8894 -0.9278 -0.6622
 9807TIP3   OH253615   6.865   2.515   1.123  0.1204  0.2689 -0.1812
 9807TIP3    H153616   6.843   2.423   1.113  0.4292  0.2191 -0.4074
 9807TIP3    H253617   6.872   2.528   1.217  1.7814 -0.3424 -0.1963
 9808TIP3   OH253618   1.152   6.711   1.568  0.1871 -0.5878  0.5303
 9808TIP3    H153619   1.224   6.775   1.567  0.2999 -0.7015  1.1417
 9808TIP3    H253620   1.181   6.642   1.508  2.8246 -3.0128  4.1464
 9809TIP3   OH253621   3.189   5.480   2.872  0.2003 -0.3160 -0.0297
 9809TIP3    H153622   3.282   5.471   2.892  0.6623  0.9292 -1.4397
 9809TIP3    H253623   3.165   5.398   2.830  0.2248 -1.2876  1.7479
 9810TIP3   OH253624   2.012   6.323   0.978 -0.1472 -1.0600 -0.2035
 9810TIP3    H153625   1.992   6.372   1.058 -2.2251 -1.8433 -0.1947
 9810TIP3    H253626   2.057   6.245   1.008 -2.9151 -2.4892  0.5247
 9811TIP3   OH253627   7.666   5.398   2.727 -0.0836 -0.4387  0.0862
 9811TIP3    H153628   7.664   5.471   2.788  1.1628  1.1179 -1.5976
 9811TIP3    H253629   7.732   5.338   2.762  1.7808  1.1962 -0.4496
 9812TIP3   OH253630   4.429   0.319   1.884 -0.3442  0.5449  0.2855
 9812TIP3    H153631   4.370   0.385   1.848 -2.2068 -1.1931 -0.0121
 9812TIP3    H253632   4.511   0.332   1.836 -1.6788  0.5541 -2.1885
 9813TIP3   OH253633   0.165   3.424   2.380  0.2188 -0.4396 -0.0905
 9813TIP3    H153634   0.223   3.466   2.316  2.1543 -0.7846  1.3557
 9813TIP3    H253635   0.224   3.371   2.434 -1.3023  0.0047  2.1123
 9814TIP3   OH253636   6.811   3.601   0.829  0.4977  0.1632 -0.1670
 9814TIP3    H153637   6.731   3.648   0.805  0.2278  0.4669  1.2591
 9814TIP3    H253638   6.780   3.515   0.858  0.6237  0.4420  0.8326
 9815TIP3   OH253639   6.537   3.693   2.407 -0.1869 -0.1751 -0.3992
 9815TIP3    H153640   6.453   3.649   2.419  1.2700 -3.1942 -0.1308
 9815TIP3    H253641   6.558   3.730   2.492 -0.5158 -0.9027  0.0118
 9816TIP3   OH253642   7.145   6.343   1.844  0.1146  0.1481  0.1322
 9816TIP3    H153643   7.129   6.377   1.932 -0.2265 -1.2401  0.6328
 9816TIP3    H253644   7.060   6.313   1.814  0.4832 -0.7267 -0.0723
 9817TIP3   OH253645   1.861   0.335   1.129  0.1187 -0.1334 -0.2260
 9817TIP3    H153646   1.899   0.334   1.041  2.0396  0.0061  0.5522
 9817TIP3    H253647   1.935   0.352   1.187 -1.2099  0.4485  1.3835
 9818TIP3   OH253648   5.072   0.968   1.628  0.4705 -0.0459 -0.3819
 9818TIP3    H153649   5.053   1.031   1.697  0.2630 -1.0397  0.4930
 9818TIP3    H253650   5.013   0.894   1.646  0.9686 -0.6479 -1.1529
 9819TIP3   OH253651   2.497   2.967   2.487 -0.0375  0.1783  0.3139
 9819TIP3    H153652   2.436   3.011   2.546 -0.6035 -2.5616  1.9435
 9819TIP3    H253653   2.444   2.902   2.442  0.9327  0.4854 -1.3706
 9820TIP3   OH253654   4.674   1.884   1.844 -0.1684  0.0966 -0.2237
 9820TIP3    H153655   4.674   1.969   1.800 -0.0459  2.0390  3.2285
 9820TIP3    H253656   4.752   1.839   1.809  1.2702  2.4971 -0.3030
 9821TIP3   OH253657   5.002   6.690   0.851 -0.2002 -0.4454  0.0826
 9821TIP3    H153658   4.915   6.664   0.882 -0.7538 -0.1760 -1.1726
 9821TIP3    H253659   5.048   6.607   0.839 -0.5736 -0.6358 -0.0683
 9822TIP3   OH253660   1.757   3.065   2.269 -0.4765 -0.0426  0.4414
 9822TIP3    H153661   1.705   3.071   2.349 -1.9761  0.3836 -0.5222
 9822TIP3    H253662   1.751   3.152   2.230 -0.2549 -0.4001 -0.4134
 9823TIP3   OH253663   2.126   7.076   2.976 -0.5033  0.2076  0.9388
 9823TIP3    H153664   2.218   7.102   2.979  0.1651 -1.9704  2.3005
 9823TIP3    H253665   2.097   7.097   2.888  1.8591 -0.7058 -0.1251
 9824TIP3   OH253666   3.293   7.361   0.401 -0.6351 -0.7878 -0.7049
 9824TIP3    H153667   3.319   7.390   0.314 -0.5063  0.2810 -0.3306
 9824TIP3    H253668   3.208   7.403   0.416 -0.5373 -0.7593 -0.2149
 9825TIP3   OH253669   2.434   3.311   0.577  0.1369  0.6574 -0.5442
 9825TIP3    H153670   2.418   3.391   0.628 -0.4608 -0.7311  1.6128
 9825TIP3    H253671   2.351   3.293   0.534 -0.4055  0.1345  0.6560
 9826TIP3   OH253672   4.187   1.971   2.423  0.1847 -0.2902 -0.0194
 9826TIP3    H153673   4.253   1.991   2.489  0.7510 -2.7378  0.2524
 9826TIP3    H253674   4.182   2.051   2.370  0.4624  1.3699  2.3033
 9827TIP3   OH253675   0.299   6.259   1.757  0.4993  0.3716 -0.1147
 9827TIP3    H153676   0.320   6.247   1.665  0.0676  1.7362 -0.4090
 9827TIP3    H253677   0.383   6.252   1.802  0.3844 -3.8264 -0.1109
 9828TIP3   OH253678   6.953   5.823   1.171 -0.5869 -0.7579 -0.1134
 9828TIP3    H153679   6.943   5.864   1.085 -0.2337 -0.3354  0.0375
 9828TIP3    H253680   7.020   5.756   1.157 -0.7464 -0.8921 -0.2345
 9829TIP3   OH253681   5.623   3.235   1.236  0.5423  0.4787  0.3618
 9829TIP3    H153682   5.708   3.256   1.275 -0.4268  2.0556  1.7305
 9829TIP3    H253683   5.578   3.319   1.230 -0.1973 -0.0287 -2.2304
 9830TIP3   OH253684   4.508   3.738   1.540  0.4910 -0.0257  0.0780
 9830TIP3    H153685   4.431   3.793   1.529 -0.6222 -1.6017 -0.3470
 9830TIP3    H253686   4.562   3.757   1.463 -0.3302 -0.2013 -0.5620
 9831TIP3   OH253687   0.756   4.505   1.019 -0.2177  0.2519 -0.2370
 9831TIP3    H153688   0.695   4.453   1.071  1.4650 -1.0698  0.4638
 9831TIP3    H253689   0.814   4.546   1.083  0.0365  0.9954 -0.9266
 9832TIP3   OH253690   4.237   6.946   1.211 -0.0789 -0.1481  0.3707
 9832TIP3    H153691   4.168   6.958   1.146  1.7191 -1.1581 -1.8535
 9832TIP3    H253692   4.205   6.874   1.266 -3.5296  3.3364  3.5311
 9833TIP3   OH253693   2.722   3.505   0.713  0.3571  0.5653 -0.1218
 9833TIP3    H153694   2.769   3.423   0.699 -0.0325  0.6088 -2.0298
 9833TIP3    H253695   2.655   3.506   0.644 -1.1393  1.4303  1.2884
 9834TIP3   OH253696   2.955   0.460   1.884  0.5879 -0.0533 -0.1854
 9834TIP3    H153697   2.879   0.427   1.836  1.2794  1.9756 -2.9180
 9834TIP3    H253698   3.025   0.462   1.819  2.0164  1.4309  1.3152
 9835TIP3   OH253699   5.685   5.901   1.529  0.0084 -0.2639  0.1679
 9835TIP3    H153700   5.656   5.812   1.510 -0.1412 -0.0132 -0.8456
 9835TIP3    H253701   5.778   5.902   1.505 -0.2348  0.1168 -0.7889
 9836TIP3   OH253702   7.245   7.008   1.613 -0.3296  0.0709  0.2732
 9836TIP3    H153703   7.326   6.988   1.566 -1.6754 -0.1488 -2.0949
 9836TIP3    H253704   7.274   7.032   1.701  2.1451 -1.8790  0.0957
 9837TIP3   OH253705   4.827   6.755   1.284  0.1244  0.2431 -0.2871
 9837TIP3    H153706   4.853   6.818   1.217  2.4616 -1.8774 -1.5327
 9837TIP3    H253707   4.758   6.703   1.243 -0.4902  0.7297  0.0839
 9838TIP3   OH253708   1.317   2.505   0.682 -0.1797  0.1469 -0.2842
 9838TIP3    H153709   1.283   2.529   0.595  1.6337  0.7366 -0.8845
 9838TIP3    H253710   1.369   2.581   0.709  0.5187 -0.6326  0.6314
 9839TIP3   OH253711   4.766   6.518   1.636  0.0186  0.4482  0.1347
 9839TIP3    H153712   4.811   6.528   1.553 -0.1229  0.9873  0.1182
 9839TIP3    H253713   4.707   6.443   1.623  1.6350 -0.9632  0.4887
 9840TIP3   OH253714   7.641   5.171   1.136 -0.2493  0.1552  0.4729
 9840TIP3    H153715   7.636   5.257   1.094  0.9278  0.1402  0.2548
 9840TIP3    H253716   7.733   5.145   1.126 -1.0402 -2.2337 -1.6248
 9841TIP3   OH253717   0.509   1.975   2.661  0.0004  0.2065  0.2621
 9841TIP3    H153718   0.525   1.888   2.697 -0.8586  0.1949  0.6456
 9841TIP3    H253719   0.594   2.020   2.669  0.2811 -0.3794  0.6669
 9842TIP3   OH253720   1.891   2.253   1.413  0.4009  0.1308  0.1573
 9842TIP3    H153721   1.879   2.347   1.426 -1.1644  0.2099 -1.4818
 9842TIP3    H253722   1.968   2.246   1.356  0.9335  0.3470  0.8290
 9843TIP3   OH253723   3.764   3.505   3.192 -0.6460 -0.2902  0.2858
 9843TIP3    H153724   3.792   3.429   3.140 -0.9092 -0.8669  0.9768
 9843TIP3    H253725   3.830   3.572   3.173 -1.6924  0.1499 -2.2141
 9844TIP3   OH253726   4.214   5.991   2.390  0.3680 -0.1696  0.3313
 9844TIP3    H153727   4.270   5.923   2.428  1.8453  1.0203  0.3894
 9844TIP3    H253728   4.242   5.996   2.299 -0.4666 -0.3472  0.0572
 9845TIP3   OH253729   4.717   0.937   2.037 -0.2475  0.7353  0.0523
 9845TIP3    H153730   4.789   0.891   2.081 -1.0409  0.7843  1.4760
 9845TIP3    H253731   4.680   0.871   1.978  2.3158  1.3551 -2.4713
 9846TIP3   OH253732   3.948   1.894   2.184 -0.0368  0.5597  0.6360
 9846TIP3    H153733   3.953   1.815   2.130  0.2246  0.9808  0.0354
 9846TIP3    H253734   4.016   1.881   2.250  0.3464  0.5008  0.2381
 9847TIP3   OH253735   0.847   4.460   1.491  0.3512 -0.4199 -0.9548
 9847TIP3    H153736   0.765   4.508   1.501  1.0450  0.4880  0.6776
 9847TIP3    H253737   0.912   4.526   1.466  1.0278 -0.7071 -0.0421
 9848TIP3   OH253738   2.835   2.554   2.290  0.2139 -0.1363  0.3413
 9848TIP3    H153739   2.780   2.477   2.296  0.5162 -0.2694  1.6771
 9848TIP3    H253740   2.775   2.625   2.268 -0.1830 -0.5985 -0.0984
 9849TIP3   OH253741   5.003   3.511   1.992 -0.2512  0.2033  0.0334
 9849TIP3    H153742   5.036   3.425   1.966  0.0852  0.3997 -0.1979
 9849TIP3    H253743   5.066   3.544   2.056 -1.9029 -0.9556  2.4125
 9850TIP3   OH253744   2.086   6.788   2.089  0.1873 -0.2167  0.1468
 9850TIP3    H153745   2.173   6.803   2.125 -0.8598  1.6998  2.0699
 9850TIP3    H253746   2.070   6.863   2.032 -1.2401  1.0178  2.0432
 9851TIP3   OH253747   7.051   6.396   3.190  0.3448 -0.1755  0.6958
 9851TIP3    H153748   6.999   6.326   3.151  0.2950  0.1250  0.2190
 9851TIP3    H253749   7.013   6.408   3.277 -0.9422  0.6199  0.0475
 9852TIP3   OH253750   7.350   2.220   1.482 -0.1628 -0.0053 -0.3454
 9852TIP3    H153751   7.420   2.278   1.451  0.2551  0.8272  1.9933
 9852TIP3    H253752   7.299   2.202   1.403  3.4630 -1.9450 -2.5615
 9853TIP3   OH253753   4.865   0.001   1.174 -0.7637 -0.1993  0.0351
 9853TIP3    H153754   4.771   0.004   1.196 -0.4736  1.3732  1.2069
 9853TIP3    H253755   4.875   0.068   1.107 -0.6624 -1.2354 -1.0208
 9854TIP3   OH253756   0.225   3.630   0.842 -0.0606  0.2081 -0.6613
 9854TIP3    H153757   0.163   3.703   0.840 -0.2605  0.0363 -2.2388
 9854TIP3    H253758   0.175   3.558   0.880  0.0340  0.7726  0.5939
 9855TIP3   OH253759   1.245   1.232   1.011  0.8130  0.0791  0.0334
 9855TIP3    H153760   1.239   1.324   1.035  1.2635  0.0238  0.3683
 9855TIP3    H253761   1.288   1.232   0.925 -2.3085  0.3799 -1.6485
 9856TIP3   OH253762   3.052   3.325   0.839  0.5763  0.1847  0.0599
 9856TIP3    H153763   3.014   3.246   0.876  2.0655 -0.1558  0.9741
 9856TIP3    H253764   3.015   3.332   0.752 -1.2107 -0.3336  0.7430
 9857TIP3   OH253765   0.143   3.952   2.407  0.2341  0.4113  0.4109
 9857TIP3    H153766   0.209   3.883   2.408 -2.4681 -2.3828  2.3281
 9857TIP3    H253767   0.156   4.000   2.488  0.4027  0.3869  0.3979
 9858TIP3   OH253768   3.187   4.700   1.752 -0.0267  0.3151 -0.1945
 9858TIP3    H153769   3.121   4.632   1.763 -0.9769  1.0491 -1.1240
 9858TIP3    H253770   3.259   4.655   1.707 -0.9582  0.0592 -1.5159
 9859TIP3   OH253771   3.400   0.794   1.508  0.5316 -0.0704 -0.2558
 9859TIP3    H153772   3.416   0.842   1.426 -0.4454  0.0840 -0.3778
 9859TIP3    H253773   3.304   0.785   1.511  0.2998  1.9576  1.9746
 9860TIP3   OH253774   0.785   1.534   1.376 -0.2808  0.0596  0.2683
 9860TIP3    H153775   0.829   1.617   1.360  1.4243 -1.0326 -1.0452
 9860TIP3    H253776   0.830   1.498   1.453  1.2567 -1.0636 -1.0833
 9861TIP3   OH253777   1.781   2.157   1.667  1.0234 -0.0480  0.2240
 9861TIP3    H153778   1.868   2.146   1.707  0.7603  1.0573  1.1684
 9861TIP3    H253779   1.800   2.172   1.574  1.8173 -0.2510  0.3415
 9862TIP3   OH253780   1.612   6.512   0.395  0.4529  0.3662 -0.0533
 9862TIP3    H153781   1.630   6.591   0.447 -0.2273  0.1816  0.4836
 9862TIP3    H253782   1.589   6.546   0.308  0.9561  0.7138 -0.0584
 9863TIP3   OH253783   2.114   0.592   1.346 -0.6345 -0.5442 -0.5324
 9863TIP3    H153784   2.061   0.560   1.419 -1.7621  0.1296 -1.0213
 9863TIP3    H253785   2.107   0.524   1.279 -0.7532 -0.5348 -0.5303
 9864TIP3   OH253786   2.574   4.571   2.110 -0.6691 -0.1165 -0.3038
 9864TIP3    H153787   2.509   4.641   2.102 -0.9292 -0.4079 -0.8178
 9864TIP3    H253788   2.653   4.606   2.071 -0.5806  0.1654  0.1307
 9865TIP3   OH253789   0.968   6.865   2.114 -0.3403  0.5670 -0.4750
 9865TIP3    H153790   0.897   6.930   2.119 -1.1120 -0.2716 -0.1031
 9865TIP3    H253791   0.972   6.841   2.022 -1.7098 -0.5898 -0.2759
 9866TIP3   OH253792   1.317   5.373   3.398 -0.6367 -0.1098  0.0603
 9866TIP3    H153793   1.348   5.328   3.319 -1.4471 -0.7135  0.0693
 9866TIP3    H253794   1.320   5.306   3.466  2.4671  1.0072  1.2318
 9867TIP3   OH253795   1.394   3.865   2.483  0.0108  0.0392  0.3600
 9867TIP3    H153796   1.453   3.819   2.424 -0.0601 -1.2495  1.2473
 9867TIP3    H253797   1.445   3.879   2.562 -0.1976  0.8935  0.3519
 9868TIP3   OH253798   2.640   7.171   2.296  0.3498  0.0287 -0.0588
 9868TIP3    H153799   2.547   7.173   2.319  0.4770 -1.8133  0.7830
 9868TIP3    H253800   2.681   7.233   2.357 -0.1087 -0.4821  0.7884
 9869TIP3   OH253801   4.952   1.080   1.846 -0.5543 -0.2165 -0.3985
 9869TIP3    H153802   4.920   1.152   1.791 -0.3131 -0.3475 -0.7155
 9869TIP3    H253803   4.980   1.122   1.927  1.7711  0.3994 -1.4270
 9870TIP3   OH253804   1.596   5.689   1.422  0.6401 -0.1863  0.0080
 9870TIP3    H153805   1.596   5.602   1.382  0.8809  0.0561 -0.5214
 9870TIP3    H253806   1.550   5.677   1.505 -1.2753 -0.3933 -1.0217
 9871TIP3   OH253807   4.375   4.976   1.860 -0.4893 -0.2199 -0.0043
 9871TIP3    H153808   4.423   5.038   1.805  0.2919 -0.7603  0.0431
 9871TIP3    H253809   4.326   5.031   1.921  1.3231  0.3664  1.0015
 9872TIP3   OH253810   4.511   5.635   2.368 -0.0958 -0.0307 -0.1433
 9872TIP3    H153811   4.430   5.676   2.396 -1.7114 -3.5758  0.9941
 9872TIP3    H253812   4.574   5.657   2.437 -0.2365  2.0584 -0.6100
 9873TIP3   OH253813   3.480   4.830   2.927  0.3687  0.1272 -0.4728
 9873TIP3    H153814   3.489   4.856   2.835  1.1529 -0.3546 -0.5447
 9873TIP3    H253815   3.403   4.877   2.958 -0.5361 -0.5131 -1.6662
 9874TIP3   OH253816   3.089   4.193   2.341 -0.1551 -0.1434 -0.0867
 9874TIP3    H153817   3.109   4.100   2.353  1.9242  0.1454 -0.7789
 9874TIP3    H253818   3.138   4.237   2.411 -2.6688  0.3741  1.4677
 9875TIP3   OH253819   0.091   3.197   2.635 -0.3507  0.3601 -0.0669
 9875TIP3    H153820   0.102   3.117   2.584 -3.6111 -0.9036  0.9428
 9875TIP3    H253821   0.004   3.229   2.610 -0.5497  1.6804  2.0559
 9876TIP3   OH253822   6.324   1.417   2.423 -0.1024  0.5416  0.2684
 9876TIP3    H153823   6.347   1.496   2.375 -1.4938  0.8651  0.1013
 9876TIP3    H253824   6.357   1.432   2.512  1.6270  0.3395 -0.2963
 9877TIP3   OH253825   3.432   0.467   0.364  0.2244  0.3175  0.7319
 9877TIP3    H153826   3.435   0.455   0.269  1.2820 -1.6778  0.9547
 9877TIP3    H253827   3.387   0.550   0.377  0.0355  0.6144 -1.5099
 9878TIP3   OH253828   4.735   4.333   2.748 -0.0501 -0.1838 -0.2498
 9878TIP3    H153829   4.706   4.308   2.836  2.5099 -0.2722  0.6291
 9878TIP3    H253830   4.723   4.428   2.745  0.3955 -0.1038  0.4095
 9879TIP3   OH253831   3.472   4.159   1.968 -0.4683  0.1964  0.5196
 9879TIP3    H153832   3.502   4.095   1.904 -1.3681  1.0338 -0.7843
 9879TIP3    H253833   3.437   4.107   2.040 -0.1875 -0.7656 -0.0294
 9880TIP3   OH253834   4.896   5.369   0.618 -0.1929 -0.2166  0.3397
 9880TIP3    H153835   4.847   5.450   0.634 -2.1768 -1.2639 -0.1901
 9880TIP3    H253836   4.848   5.325   0.548  2.0996 -0.8647 -0.9273
 9881TIP3   OH253837   2.821   6.462   0.592  0.1545  0.5949  0.4474
 9881TIP3    H153838   2.769   6.540   0.579  1.1240  1.2038  0.0940
 9881TIP3    H253839   2.874   6.481   0.670  0.6655  0.4557  0.1411
 9882TIP3   OH253840   2.773   3.686   2.708  0.5243  0.3181  0.0084
 9882TIP3    H153841   2.785   3.591   2.708 -1.0338  0.0433  2.1683
 9882TIP3    H253842   2.848   3.720   2.757 -0.0464 -0.0343  1.1577
 9883TIP3   OH253843   3.770   0.988   1.731  0.7438  0.4804 -0.1223
 9883TIP3    H153844   3.782   0.959   1.641  0.2013 -1.2783  0.3323
 9883TIP3    H253845   3.716   1.067   1.724  2.9061  1.9449 -1.4628
 9884TIP3   OH253846   2.585   0.521   0.900  0.0367  0.0251  0.4975
 9884TIP3    H153847   2.539   0.459   0.956  0.7839  0.1704  1.2991
 9884TIP3    H253848   2.538   0.604   0.911 -0.5449 -0.2266 -0.0413
 9885TIP3   OH253849   6.320   5.600   0.885  0.2143  0.6194  0.2868
 9885TIP3    H153850   6.263   5.670   0.855  0.7630  1.1051  0.3698
 9885TIP3    H253851   6.402   5.613   0.838 -0.0934 -0.7435 -0.6994
 9886TIP3   OH253852   3.159   7.183   1.301 -0.6188  0.1722 -0.8880
 9886TIP3    H153853   3.214   7.164   1.225 -0.4661 -2.6194 -0.2198
 9886TIP3    H253854   3.220   7.179   1.376 -1.3397 -1.0926 -0.3183
 9887TIP3   OH253855   2.999   4.622   3.179  0.1684  0.3575 -0.3634
 9887TIP3    H153856   3.048   4.546   3.147  1.6343  0.3428  1.6661
 9887TIP3    H253857   3.040   4.697   3.136  0.9591  0.2116  0.1009
 9888TIP3   OH253858   3.958   3.686   2.134  0.1512 -0.5023  0.0069
 9888TIP3    H153859   3.891   3.753   2.146  0.3739 -0.1939 -0.4457
 9888TIP3    H253860   3.940   3.648   2.048  2.9116  2.3583 -2.0832
 9889TIP3   OH253861   4.432   6.682   1.223 -0.1598 -0.5525  0.3069
 9889TIP3    H153862   4.428   6.725   1.137 -0.2331 -1.3208 -0.0820
 9889TIP3    H253863   4.390   6.598   1.209  1.0939 -1.2770  0.7370
 9890TIP3   OH253864   1.694   2.501   2.992 -0.2276  0.1173  0.0697
 9890TIP3    H153865   1.726   2.497   2.902  0.6865  0.8114  0.3466
 9890TIP3    H253866   1.684   2.594   3.010  1.0275  0.0863  1.1422
 9891TIP3   OH253867   0.138   5.828   1.550 -0.4823  0.2451  0.3044
 9891TIP3    H153868   0.200   5.882   1.501 -0.9701  0.7630  0.2431
 9891TIP3    H253869   0.135   5.745   1.503 -1.4431  0.9598 -0.9586
 9892TIP3   OH253870   5.014   4.787   0.921 -0.7906  0.4896  0.1770
 9892TIP3    H153871   5.024   4.805   0.827 -3.6816 -0.2981 -0.3642
 9892TIP3    H253872   4.967   4.862   0.956 -0.8314  0.2065  0.7475
 9893TIP3   OH253873   1.847   0.675   1.441  0.4166  0.2160  0.1072
 9893TIP3    H153874   1.821   0.586   1.464 -1.2633  0.6370 -0.0260
 9893TIP3    H253875   1.772   0.729   1.466  1.3553  1.5802  0.0748
 9894TIP3   OH253876   4.750   3.134   1.689 -0.6356 -0.4258  0.0215
 9894TIP3    H153877   4.846   3.135   1.684 -0.6290 -0.4096  0.1526
 9894TIP3    H253878   4.731   3.116   1.781 -0.7592 -1.3669 -0.1747
 9895TIP3   OH253879   3.189   1.905   1.396  0.8928 -0.5164  0.5122
 9895TIP3    H153880   3.143   1.842   1.342  0.9141 -0.7718  0.7905
 9895TIP3    H253881   3.280   1.875   1.397  1.3727  0.7356 -1.1490
 9896TIP3   OH253882   1.155   1.434   1.727  0.0837  0.1295  0.1544
 9896TIP3    H153883   1.150   1.469   1.816  2.4403 -0.2183  0.4762
 9896TIP3    H253884   1.240   1.463   1.694 -0.4160 -0.4002 -1.7157
 9897TIP3   OH253885   6.713   6.825   1.538  0.0460 -0.3290 -0.0096
 9897TIP3    H153886   6.789   6.767   1.546  1.5869  1.2621 -1.7507
 9897TIP3    H253887   6.745   6.897   1.482 -1.7785  2.0860  1.8494
 9898TIP3   OH253888   6.704   4.636   2.672 -0.0687  0.2169  0.4520
 9898TIP3    H153889   6.754   4.566   2.629  2.5682  3.4321 -2.2632
 9898TIP3    H253890   6.770   4.685   2.721 -1.8574  0.8418  2.3618
 9899TIP3   OH253891   4.676   0.331   1.752  0.4552 -0.6340  0.2690
 9899TIP3    H153892   4.750   0.391   1.749  0.8920 -1.0953  1.4338
 9899TIP3    H253893   4.683   0.279   1.672  0.5052  0.3365 -0.3703
 9900TIP3   OH253894   5.151   6.882   1.694  0.9195 -0.1926 -0.4033
 9900TIP3    H153895   5.215   6.924   1.636  0.8544  0.2927 -0.1324
 9900TIP3    H253896   5.153   6.790   1.669  1.3763 -0.1019 -0.7228
 9901TIP3   OH253897   3.921   0.476   1.635  0.1580 -0.4595  0.1332
 9901TIP3    H153898   3.830   0.479   1.664  0.6543 -0.2834  1.7614
 9901TIP3    H253899   3.915   0.459   1.541 -1.5596  0.2362  0.0755
 9902TIP3   OH253900   3.716   1.811   1.387 -0.3276  0.6947 -0.3918
 9902TIP3    H153901   3.654   1.742   1.366  1.4664 -0.4786 -2.1870
 9902TIP3    H253902   3.780   1.769   1.444  0.2260  1.1573 -0.6610
 9903TIP3   OH253903   2.826   2.257   2.332  0.2657 -0.1677  0.3105
 9903TIP3    H153904   2.857   2.167   2.341 -1.5083 -0.7002  1.5493
 9903TIP3    H253905   2.760   2.253   2.263  0.5558  0.3094 -0.0048
 9904TIP3   OH253906   4.759   2.242   0.530 -0.5206 -0.6668  0.1100
 9904TIP3    H153907   4.844   2.211   0.497  0.0537  0.4464  0.5129
 9904TIP3    H253908   4.754   2.333   0.503 -1.4115 -0.6020  0.4535
 9905TIP3   OH253909   0.906   3.775   1.430  0.2934 -0.3977  0.1850
 9905TIP3    H153910   0.841   3.706   1.439  0.2629 -0.4411 -0.3803
 9905TIP3    H253911   0.931   3.774   1.338  2.4132 -1.5862  0.6986
 9906TIP3   OH253912   6.180   4.329   0.678 -0.0149  0.3538 -0.0313
 9906TIP3    H153913   6.225   4.405   0.641  0.7017  0.8803  1.8214
 9906TIP3    H253914   6.249   4.263   0.688  0.0728  0.6448  1.4399
 9907TIP3   OH253915   2.581   0.826   2.637  0.3700  0.0310  0.5296
 9907TIP3    H153916   2.658   0.802   2.585 -1.1853 -0.9956 -1.4739
 9907TIP3    H253917   2.615   0.880   2.708  2.7092  1.2340 -1.3609
 9908TIP3   OH253918   5.818   6.091   2.865  0.2736 -0.7831  0.8576
 9908TIP3    H153919   5.744   6.124   2.916  0.1047 -1.3234  0.9785
 9908TIP3    H253920   5.778   6.061   2.783  0.6063  0.4831  0.2228
 9909TIP3   OH253921   5.251   4.089   2.385  0.6346 -0.4221  0.5463
 9909TIP3    H153922   5.166   4.045   2.384 -0.5227  1.6449  1.4106
 9909TIP3    H253923   5.311   4.025   2.350 -1.3913 -1.7518 -0.7104
 9910TIP3   OH253924   2.505   5.290   1.364 -0.1376  0.5756 -0.0164
 9910TIP3    H153925   2.427   5.318   1.316  0.6943  1.5455 -0.8488
 9910TIP3    H253926   2.514   5.197   1.343 -1.5199  0.2375  0.7573
 9911TIP3   OH253927   1.076   0.748   2.072 -0.2724 -0.1328  0.0764
 9911TIP3    H153928   1.062   0.800   1.992 -0.7373  2.0820  1.5030
 9911TIP3    H253929   1.124   0.807   2.130  0.2143 -1.7497  1.3912
 9912TIP3   OH253930   3.357   3.526   2.785  0.0316 -0.0908  0.2335
 9912TIP3    H153931   3.411   3.605   2.785  0.0793 -0.1117 -0.9341
 9912TIP3    H253932   3.417   3.457   2.815 -0.2313  0.4230  2.0742
 9913TIP3   OH253933   3.415   6.534   0.580  0.5106 -0.1446  0.4345
 9913TIP3    H153934   3.371   6.471   0.637  0.2794  0.2008  0.6433
 9913TIP3    H253935   3.489   6.486   0.543 -1.0012 -1.2672 -1.2799
 9914TIP3   OH253936   5.044   4.366   1.462  0.2511  0.0716  0.1314
 9914TIP3    H153937   5.034   4.395   1.371  1.3740 -0.7987 -0.2956
 9914TIP3    H253938   5.123   4.410   1.493 -0.2851  0.5910  0.8006
 9915TIP3   OH253939   5.290   1.968   2.790  0.3971 -0.2726 -0.1102
 9915TIP3    H153940   5.364   1.938   2.844  1.2409  0.2041 -0.9685
 9915TIP3    H253941   5.300   2.064   2.789 -0.3150 -0.1983 -0.1253
 9916TIP3   OH253942   4.308   7.542   0.874 -0.4979  0.0231  0.2986
 9916TIP3    H153943   4.229   7.521   0.824  1.2502 -3.7668 -1.2534
 9916TIP3    H253944   4.359   7.599   0.815 -0.6406 -0.2323 -0.0755
 9917TIP3   OH253945   2.416   2.578   2.961  0.4135 -0.4607  0.1276
 9917TIP3    H153946   2.504   2.609   2.939  1.0778 -2.4038 -0.2111
 9917TIP3    H253947   2.362   2.605   2.886  0.5443  1.3342  0.6497
 9918TIP3   OH253948   2.135   1.950   3.374 -0.0142  0.0066 -0.7531
 9918TIP3    H153949   2.196   1.944   3.448 -2.1656  0.5721  1.1965
 9918TIP3    H253950   2.101   1.861   3.364 -0.9666  0.2565  0.1109
 9919TIP3   OH253951   3.882   5.937   2.090 -0.1105 -0.1528  0.2073
 9919TIP3    H153952   3.827   5.990   2.148 -1.5480 -0.7294 -0.5609
 9919TIP3    H253953   3.821   5.874   2.051  1.1524 -0.9466 -0.5559
 9920TIP3   OH253954   6.674   7.416   1.364 -0.5408 -0.5354 -0.3012
 9920TIP3    H153955   6.687   7.478   1.436 -1.6890 -0.0553 -0.4948
 9920TIP3    H253956   6.676   7.330   1.405 -0.4178 -0.2990  0.1887
 9921TIP3   OH253957   2.683   5.512   1.234 -0.4959  0.1708  0.2482
 9921TIP3    H153958   2.759   5.553   1.275 -0.5997  0.1553  0.4571
 9921TIP3    H253959   2.637   5.469   1.307 -0.0379 -0.8674 -0.0552
 9922TIP3   OH253960   3.101   0.571   2.086 -0.8863  0.0207 -0.3033
 9922TIP3    H153961   3.184   0.536   2.053 -0.5539  0.1013  0.4098
 9922TIP3    H253962   3.036   0.543   2.023 -0.1275  1.1853 -1.6772
 9923TIP3   OH253963   1.846   3.770   3.036 -0.0355  0.1169 -0.4134
 9923TIP3    H153964   1.772   3.711   3.050 -0.2270  0.1136 -1.3340
 9923TIP3    H253965   1.921   3.724   3.073 -0.2786 -0.4606 -0.6171
 9924TIP3   OH253966   2.799   0.169   0.696  0.2282  0.0408 -0.1306
 9924TIP3    H153967   2.706   0.184   0.678  0.6053  1.4664 -1.0419
 9924TIP3    H253968   2.827   0.249   0.742  1.2281  0.0910 -0.7986
 9925TIP3   OH253969   1.578   7.489   1.868  0.0491  0.4553 -0.2987
 9925TIP3    H153970   1.602   7.427   1.800  0.3574 -1.8845  1.8284
 9925TIP3    H253971   1.657   7.542   1.882  0.3799  0.1169 -0.8633
 9926TIP3   OH253972   2.933   0.528   1.569  0.5845  0.0896  0.4203
 9926TIP3    H153973   2.902   0.544   1.479 -0.5245  0.9199  0.9265
 9926TIP3    H253974   2.965   0.614   1.598  1.6707 -0.3451  0.5727
 9927TIP3   OH253975   3.429   3.934   0.963 -0.3300  0.7028  0.0402
 9927TIP3    H153976   3.360   3.982   0.916  0.1172  1.6238  0.2949
 9927TIP3    H253977   3.382   3.875   1.021 -0.9185  1.2232  0.1083
 9928TIP3   OH253978   6.676   5.345   2.913 -0.0887 -0.3332  0.1128
 9928TIP3    H153979   6.724   5.275   2.958  0.9539 -0.0424 -0.5464
 9928TIP3    H253980   6.684   5.420   2.971 -1.2248 -0.7301  0.8312
 9929TIP3   OH253981   1.360   6.498   0.648  0.4326 -0.1088 -0.3495
 9929TIP3    H153982   1.336   6.424   0.704  1.2888 -0.6714 -0.7122
 9929TIP3    H253983   1.444   6.473   0.610  0.4778  0.8289 -0.8847
 9930TIP3   OH253984   2.267   6.290   1.880  0.3974  0.2303 -0.4876
 9930TIP3    H153985   2.246   6.378   1.850 -0.3071  0.4548  0.6353
 9930TIP3    H253986   2.183   6.251   1.902  0.7765 -0.4274 -0.1624
 9931TIP3   OH253987   4.530   6.444   2.473 -0.1847  0.0647  0.6712
 9931TIP3    H153988   4.613   6.487   2.495 -0.8986  1.9230 -0.0361
 9931TIP3    H253989   4.467   6.481   2.534 -0.3959 -1.9865  1.7944
 9932TIP3   OH253990   3.837   7.207   1.669 -0.3846 -0.2037  0.3053
 9932TIP3    H153991   3.928   7.234   1.681 -0.5692  0.0108  1.3635
 9932TIP3    H253992   3.841   7.111   1.671 -0.1907 -0.1937  0.4727
 9933TIP3   OH253993   1.185   0.172   0.746  0.5309 -0.2183 -0.0650
 9933TIP3    H153994   1.192   0.234   0.673  0.2492 -1.2096 -0.9474
 9933TIP3    H253995   1.200   0.086   0.707  1.4397 -0.6867  1.2339
 9934TIP3   OH253996   0.068   1.494   1.182 -0.2456 -0.3170  0.4360
 9934TIP3    H153997   0.150   1.452   1.154 -0.3280 -1.0704  1.2751
 9934TIP3    H253998   0.096   1.577   1.221 -0.0801  0.4606 -1.2363
 9935TIP3   OH253999   7.501   0.263   0.927 -0.0580  0.7374 -0.5553
 9935TIP3    H154000   7.520   0.172   0.905  2.0699  1.1505 -0.6300
 9935TIP3    H254001   7.455   0.297   0.849 -1.3346 -0.3559 -0.3253
 9936TIP3   OH254002   1.516   1.079   3.099 -0.2402 -0.3779  0.1580
 9936TIP3    H154003   1.569   1.121   3.032  1.0269 -1.1803  0.6204
 9936TIP3    H254004   1.576   1.066   3.173 -0.9646 -1.6628  0.5554
 9937TIP3   OH254005   2.652   2.014   0.820 -0.2808  0.0370 -0.4521
 9937TIP3    H154006   2.609   2.023   0.735  0.8933 -0.5973 -1.1376
 9937TIP3    H254007   2.613   1.934   0.858 -0.1146 -0.2239 -0.8253
 9938TIP3   OH254008   5.049   3.026   1.128  0.3598 -0.4251  0.1284
 9938TIP3    H154009   5.015   3.078   1.201 -0.8562 -2.3809  1.0315
 9938TIP3    H254010   5.112   2.966   1.169 -1.1467 -2.2989 -0.1538
 9939TIP3   OH254011   2.523   6.135   1.410 -0.2477  0.6288 -0.0969
 9939TIP3    H154012   2.592   6.153   1.347  1.0829 -2.3960  0.3411
 9939TIP3    H254013   2.450   6.190   1.381  0.8136  0.5773 -3.3043
 9940TIP3   OH254014   4.866   7.607   0.717 -0.7150  0.7653  0.3499
 9940TIP3    H154015   4.899   7.573   0.801 -0.8395 -0.2881 -0.0176
 9940TIP3    H254016   4.929   7.577   0.652 -1.6264 -0.0987 -0.1793
 9941TIP3   OH254017   2.334   1.793   3.561  0.3422  0.0622 -0.1946
 9941TIP3    H154018   2.264   1.730   3.545 -0.5624  0.4407  1.9666
 9941TIP3    H254019   2.413   1.740   3.568 -0.5691 -1.0964  2.8140
 9942TIP3   OH254020   5.770   1.275   1.103 -0.2806  0.2693 -0.1175
 9942TIP3    H154021   5.767   1.332   1.180  1.5857 -0.3001  0.4301
 9942TIP3    H254022   5.722   1.197   1.130  1.1412 -0.3107  0.8613
 9943TIP3   OH254023   7.426   5.192   0.885  0.5509  0.1101  0.2912
 9943TIP3    H154024   7.430   5.276   0.930 -0.1783  1.0792 -1.3464
 9943TIP3    H254025   7.485   5.202   0.810  1.2860 -1.2390  0.6627
 9944TIP3   OH254026   2.546   3.849   3.469 -0.3216  0.2381  0.0583
 9944TIP3    H154027   2.621   3.843   3.410  0.8600 -1.8353  1.6438
 9944TIP3    H254028   2.533   3.943   3.481  2.8586  0.6916  0.6950
 9945TIP3   OH254029   7.161   3.073   1.406 -0.4153 -0.1573 -1.1346
 9945TIP3    H154030   7.116   3.156   1.387  0.2408  1.1040  2.1264
 9945TIP3    H254031   7.249   3.085   1.369  0.0854  1.2181  0.3568
 9946TIP3   OH254032   6.456   0.467   2.681  0.7260 -0.1405  0.1887
 9946TIP3    H154033   6.364   0.449   2.664  0.1462  0.8347  1.9965
 9946TIP3    H254034   6.475   0.420   2.762  1.1166  1.5989  1.1484
 9947TIP3   OH254035   3.443   0.298   2.964 -0.1999 -0.1884  0.2586
 9947TIP3    H154036   3.510   0.246   3.009  0.7847  0.0480 -0.8830
 9947TIP3    H254037   3.464   0.389   2.987 -0.9430 -0.1837  0.9553
 9948TIP3   OH254038   3.787   6.559   2.748  0.1961 -0.1961  0.0554
 9948TIP3    H154039   3.830   6.634   2.789  1.7431 -1.0017 -0.0308
 9948TIP3    H254040   3.747   6.511   2.821 -0.8706  0.7156  0.1035
 9949TIP3   OH254041   4.283   1.884   2.182 -0.3359  0.3184 -0.2202
 9949TIP3    H154042   4.241   1.899   2.266 -0.9099  0.7915 -0.5838
 9949TIP3    H254043   4.223   1.827   2.134  0.0671 -0.0881 -0.2550
 9950TIP3   OH254044   2.974   0.553   1.277 -0.2995  0.2270 -0.3105
 9950TIP3    H154045   2.909   0.530   1.210  0.1195 -0.4688 -0.4937
 9950TIP3    H254046   3.022   0.471   1.292  0.4494  0.7029 -0.0804
 9951TIP3   OH254047   1.020   3.860   2.527  0.0560  0.5003  0.7015
 9951TIP3    H154048   0.944   3.850   2.584  0.3915 -0.6910  0.9716
 9951TIP3    H254049   1.011   3.948   2.490 -0.9626  0.7204  1.4269
 9952TIP3   OH254050   1.825   0.635   3.159  0.0854  0.4721 -0.3916
 9952TIP3    H154051   1.762   0.578   3.204 -0.8042  1.0502 -0.8762
 9952TIP3    H254052   1.881   0.669   3.229  0.8325 -1.2144 -0.1206
 9953TIP3   OH254053   1.710   5.981   1.774  0.5416 -0.1478  0.5677
 9953TIP3    H154054   1.646   6.010   1.710  0.8659  2.5083  1.3611
 9953TIP3    H254055   1.677   5.896   1.804 -0.5424 -0.6154 -1.7646
 9954TIP3   OH254056   0.367   6.925   0.820 -0.6118  0.2924 -0.0200
 9954TIP3    H154057   0.284   6.882   0.802 -0.8226  0.8979 -0.5106
 9954TIP3    H254058   0.380   6.915   0.915  0.3556 -2.6668 -0.3641
 9955TIP3   OH254059   2.782   2.820   2.999  0.2021  0.4659  0.3221
 9955TIP3    H154060   2.694   2.824   2.961  0.1396  0.3654  0.4576
 9955TIP3    H254061   2.837   2.784   2.929 -0.1181 -0.7828  0.6887
 9956TIP3   OH254062   2.715   2.796   1.194 -0.6455 -0.6429  0.4390
 9956TIP3    H154063   2.706   2.708   1.156  1.0135 -1.3121  1.4649
 9956TIP3    H254064   2.632   2.812   1.238  0.1994 -3.3091  3.3721
 9957TIP3   OH254065   1.167   4.466   2.103  0.3707  0.4699 -0.1995
 9957TIP3    H154066   1.082   4.509   2.112 -0.4785 -1.1035 -0.3814
 9957TIP3    H254067   1.194   4.448   2.193 -0.7709 -1.3882 -0.1901
 9958TIP3   OH254068   4.573   2.406   1.162  0.1092  0.4702  0.1610
 9958TIP3    H154069   4.600   2.362   1.081  0.2564 -1.5003  1.2244
 9958TIP3    H254070   4.645   2.468   1.180  0.3138  0.5737 -0.9219
 9959TIP3   OH254071   4.062   4.164   1.711 -0.4966  0.4104 -0.0155
 9959TIP3    H154072   4.070   4.173   1.806 -0.4558 -0.6798  0.1025
 9959TIP3    H254073   4.153   4.151   1.682 -0.7906 -3.6265  0.3465
 9960TIP3   OH254074   2.470   6.380   2.894 -0.0002  0.2462  0.4039
 9960TIP3    H154075   2.390   6.393   2.946 -0.1627 -1.5376  0.6351
 9960TIP3    H254076   2.452   6.303   2.840  1.6293 -0.2873  0.5772
 9961TIP3   OH254077   1.790   6.751   1.855 -0.2110  0.2629  0.0428
 9961TIP3    H154078   1.728   6.796   1.913 -0.2594  2.2102 -1.3847
 9961TIP3    H254079   1.874   6.793   1.873 -0.2152  0.8528 -1.1750
 9962TIP3   OH254080   0.162   1.921   0.690 -0.0696  0.2903 -0.7579
 9962TIP3    H154081   0.239   1.972   0.714 -0.4412  0.4741  0.0858
 9962TIP3    H254082   0.197   1.842   0.648  0.5190  1.1695 -2.0034
 9963TIP3   OH254083   5.722   0.030   2.606 -0.1089 -0.1888 -0.8117
 9963TIP3    H154084   5.725  -0.058   2.643 -0.1103  0.3875  0.5915
 9963TIP3    H254085   5.633   0.061   2.624 -0.4142 -0.2229 -2.1239
 9964TIP3   OH254086   2.643   7.368   1.010  0.0129  0.1630  0.4132
 9964TIP3    H154087   2.639   7.272   1.001 -0.2350  0.3089 -1.6474
 9964TIP3    H254088   2.595   7.400   0.934  0.1709  1.9447  1.0290
 9965TIP3   OH254089   7.498   4.154   1.784 -0.6324  0.6233 -0.2415
 9965TIP3    H154090   7.587   4.186   1.768 -0.1949 -1.2206 -1.8205
 9965TIP3    H254091   7.497   4.134   1.878  0.5555  0.8685 -0.1561
 9966TIP3   OH254092   4.972   4.084   1.487  0.7737 -0.0182 -0.8676
 9966TIP3    H154093   4.981   4.178   1.478  0.2889  0.0481 -0.6820
 9966TIP3    H254094   4.883   4.071   1.519  0.2105 -0.6479 -2.5905
 9967TIP3   OH254095   4.314   6.680   2.859  0.1376 -0.3628 -0.1176
 9967TIP3    H154096   4.281   6.595   2.887 -0.4983 -0.2293 -0.4425
 9967TIP3    H254097   4.376   6.706   2.928 -1.1640 -0.1701  1.0217
 9968TIP3   OH254098   5.620   7.543   1.014 -0.3861  0.3971 -0.1893
 9968TIP3    H154099   5.682   7.597   1.063 -0.4020  0.2068  0.0388
 9968TIP3    H254100   5.647   7.453   1.032  0.2207  0.3278 -1.3099
 9969TIP3   OH254101   1.165   3.205   0.863 -0.1960 -0.4228  0.0050
 9969TIP3    H154102   1.089   3.153   0.888 -0.1523 -0.5680 -0.1620
 9969TIP3    H254103   1.141   3.244   0.779 -0.1931 -0.2459  0.0857
 9970TIP3   OH254104   2.830   3.614   1.809 -0.3627 -0.3670  0.1578
 9970TIP3    H154105   2.848   3.571   1.725  1.0238  0.0409  0.2108
 9970TIP3    H254106   2.813   3.542   1.869 -0.5801 -0.7053 -0.2993
 9971TIP3   OH254107   6.174   5.242   1.905  0.5946 -0.9891  0.5172
 9971TIP3    H154108   6.134   5.172   1.956 -0.1587 -0.6086  0.4570
 9971TIP3    H254109   6.116   5.253   1.830  0.1151  0.4267  1.0661
 9972TIP3   OH254110   3.334   0.685   3.436 -0.2528  0.1406  0.0159
 9972TIP3    H154111   3.341   0.730   3.520 -2.5073  2.1173 -0.7662
 9972TIP3    H254112   3.276   0.611   3.454 -0.3425  0.2773  0.3000
 9973TIP3   OH254113   3.979   0.429   0.512 -0.0872  0.4261  0.4150
 9973TIP3    H154114   3.939   0.350   0.477 -0.7111  1.4335 -1.2596
 9973TIP3    H254115   3.907   0.493   0.517  0.8373  1.6046 -0.5903
 9974TIP3   OH254116   6.588   4.021   2.272 -0.7038  0.1398 -0.1000
 9974TIP3    H154117   6.583   4.037   2.366  0.1432  1.7027 -0.2769
 9974TIP3    H254118   6.655   3.952   2.263 -0.0597  0.6870  0.3976
 9975TIP3   OH254119   1.229   0.082   2.673  0.3147 -0.2413 -0.2271
 9975TIP3    H154120   1.138   0.105   2.695  0.5061  1.3476 -0.9626
 9975TIP3    H254121   1.276   0.165   2.678  1.3526 -0.7043 -1.7190
 9976TIP3   OH254122   3.087   6.925   0.452  0.1790 -0.0446  0.0733
 9976TIP3    H154123   3.083   6.858   0.520  0.0572  1.4720  1.6364
 9976TIP3    H254124   3.012   6.907   0.395 -3.5556  2.1090  3.7831
 9977TIP3   OH254125   7.058   6.331   2.340  0.0569 -0.6902  0.1477
 9977TIP3    H154126   7.136   6.385   2.328 -0.1877  0.0315  1.5764
 9977TIP3    H254127   7.011   6.372   2.413 -1.1117 -1.7349  0.0238
 9978TIP3   OH254128   1.634   0.718   1.637  0.3869  0.0904  0.9272
 9978TIP3    H154129   1.542   0.744   1.645  0.5579  1.4047 -0.7883
 9978TIP3    H254130   1.632   0.622   1.637 -1.1390  0.0813 -0.3543
 9979TIP3   OH254131   6.306   3.025   2.865  0.4169  0.0287  0.4636
 9979TIP3    H154132   6.308   2.929   2.869 -0.0741  0.0176  0.4542
 9979TIP3    H254133   6.220   3.046   2.828  1.3029  0.4136 -1.5485
 9980TIP3   OH254134   3.374   1.903   1.074 -0.2920 -0.4747 -0.1817
 9980TIP3    H154135   3.416   1.985   1.102  0.3468 -0.3066 -1.5686
 9980TIP3    H254136   3.312   1.930   1.007 -1.5833 -0.9075  0.8168
 9981TIP3   OH254137   3.211   5.655   2.585 -0.6588  0.7453 -0.1466
 9981TIP3    H154138   3.237   5.564   2.598 -0.9332  0.7905  0.7798
 9981TIP3    H254139   3.151   5.673   2.658 -0.9073  1.5481 -0.5446
 9982TIP3   OH254140   7.511   2.646   0.939  0.2461 -0.4174 -0.4152
 9982TIP3    H154141   7.471   2.560   0.947  1.5724 -1.0977 -0.8880
 9982TIP3    H254142   7.595   2.638   0.984 -0.0751  0.9543  0.4903
 9983TIP3   OH254143   6.373   4.988   2.260  0.5445  0.0749 -0.2569
 9983TIP3    H154144   6.316   4.926   2.305  0.9617  0.6561  1.1228
 9983TIP3    H254145   6.315   5.059   2.232  0.5882  0.8149  1.4108
 9984TIP3   OH254146   3.580   3.358   1.381  0.3892 -0.0624 -0.1699
 9984TIP3    H154147   3.611   3.332   1.468  0.3271  1.1890  0.2352
 9984TIP3    H254148   3.497   3.310   1.370  1.0481 -1.2518 -0.1102
 9985TIP3   OH254149   5.311   1.545   0.743  0.2656 -0.4431  0.0964
 9985TIP3    H154150   5.249   1.555   0.815 -0.8390 -0.4046 -0.8398
 9985TIP3    H254151   5.384   1.495   0.780 -0.0376  0.0355  1.3750
 9986TIP3   OH254152   3.811   3.877   1.193 -0.4515 -0.0454 -0.1819
 9986TIP3    H154153   3.815   3.799   1.249 -0.8659 -0.7606 -1.1397
 9986TIP3    H254154   3.784   3.845   1.108 -2.0142  1.3349 -0.2568
 9987TIP3   OH254155   2.750   4.192   0.758 -0.2563  0.5149 -0.4291
 9987TIP3    H154156   2.678   4.154   0.809  0.1452 -0.3581 -0.5013
 9987TIP3    H254157   2.768   4.276   0.802  0.5512 -0.5154  1.3325
 9988TIP3   OH254158   4.193   5.515   2.957 -0.1992  0.3358 -0.3700
 9988TIP3    H154159   4.226   5.431   2.988 -1.2423  0.1095  0.1651
 9988TIP3    H254160   4.098   5.508   2.965 -0.3976  0.9549 -1.9168
 9989TIP3   OH254161   5.615   5.901   2.109 -0.3782  0.0460  0.1608
 9989TIP3    H154162   5.551   5.966   2.079 -0.7293 -0.2265  0.3114
 9989TIP3    H254163   5.578   5.817   2.082  0.0014 -0.1051  0.0977
 9990TIP3   OH254164   5.011   3.983   0.426 -0.0960 -0.3644 -0.2782
 9990TIP3    H154165   4.957   4.023   0.358  2.0507  0.8916 -1.3591
 9990TIP3    H254166   4.994   4.034   0.505  0.2812  0.7184 -0.8799
 9991TIP3   OH254167   4.326   5.963   1.050  0.2374  0.3478  0.3942
 9991TIP3    H154168   4.339   5.896   0.983  0.6656  0.4450  0.3740
 9991TIP3    H254169   4.247   5.936   1.096 -1.3956  1.4655 -1.5739
 9992TIP3   OH254170   5.810   2.520   2.229  0.3720  0.1112  0.2591
 9992TIP3    H154171   5.720   2.497   2.249 -0.0078  1.2611 -0.0509
 9992TIP3    H254172   5.858   2.502   2.310 -0.1328 -0.4911  0.4299
 9993TIP3   OH254173   5.695   1.615   3.000 -0.0733 -0.2987  0.2193
 9993TIP3    H154174   5.600   1.609   3.012  0.1388 -2.6164  1.2055
 9993TIP3    H254175   5.706   1.615   2.905 -1.0426 -0.0705  0.0923
 9994TIP3   OH254176   2.486   0.192   1.901 -0.1057 -0.1894  0.2044
 9994TIP3    H154177   2.428   0.229   1.833 -0.3430 -0.5210  0.2264
 9994TIP3    H254178   2.519   0.111   1.863 -0.5876 -0.6035  0.6586
 9995TIP3   OH254179   0.670   4.694   1.835 -0.0327  0.2210 -0.2325
 9995TIP3    H154180   0.702   4.688   1.745 -0.5264  0.2778 -0.4142
 9995TIP3    H254181   0.669   4.788   1.853  0.5079  0.1873 -0.0032
 9996TIP3   OH254182   7.287   2.540   1.543  0.1238 -0.2496 -0.0947
 9996TIP3    H154183   7.298   2.553   1.448 -0.1592 -1.4159 -0.3063
 9996TIP3    H254184   7.353   2.473   1.565  1.7880  1.6469  0.9875
 9997TIP3   OH254185   4.688   7.289   1.941  0.1466 -0.2429  0.2573
 9997TIP3    H154186   4.709   7.329   2.025 -0.6952 -0.6958  0.6915
 9997TIP3    H254187   4.719   7.199   1.948  1.2792  0.0842 -0.4121
 9998TIP3   OH254188   2.385   6.650   3.060 -0.0062 -0.1317 -0.0563
 9998TIP3    H154189   2.346   6.564   3.077 -0.0693 -0.0631  0.1500
 9998TIP3    H254190   2.323   6.694   3.003  0.0189 -0.2175 -0.1508
 9999TIP3   OH254191   6.779   6.469   1.581  0.1388  0.3508 -0.0216
 9999TIP3    H154192   6.722   6.448   1.507 -0.4057  1.8886 -0.0782
 9999TIP3    H254193   6.856   6.509   1.542 -0.0042  0.8678  0.2250
10000TIP3   OH254194   5.664   2.544   0.751  0.5401 -0.5425  0.5114
10000TIP3    H154195   5.743   2.582   0.714  0.2766 -0.2936  0.1901
10000TIP3    H254196   5.689   2.455   0.777  0.8214 -0.5976  0.0587
10001TIP3   OH254197   0.405   0.937   1.861 -0.3695 -0.6793  0.2430
10001TIP3    H154198   0.331   0.903   1.911 -1.1009 -1.0697 -1.0824
10001TIP3    H254199   0.449   0.860   1.826 -1.8931 -0.3863 -2.5739
10002TIP3   OH254200   7.566   0.572   0.956 -0.3669  0.0454 -0.3514
10002TIP3    H154201   7.660   0.590   0.951 -0.3331 -0.4660 -3.2572
10002TIP3    H254202   7.560   0.494   1.011  0.7978  0.4795  0.4462
10003TIP3   OH254203   5.944   6.110   1.819 -0.3768 -0.6550 -1.0089
10003TIP3    H154204   5.972   6.125   1.728  0.2756 -0.8525 -0.8452
10003TIP3    H254205   6.018   6.066   1.860 -1.3361 -2.1776 -0.8426
10004TIP3   OH254206   1.873   0.863   2.022 -0.0597  0.3779 -0.8330
10004TIP3    H154207   1.780   0.885   2.034 -0.3472 -1.2841  0.3489
10004TIP3    H254208   1.885   0.862   1.927 -1.8139 -1.3165 -1.1254
10005TIP3   OH254209   4.614   1.221   2.455 -0.0639 -0.0798 -0.1771
10005TIP3    H154210   4.645   1.257   2.538  1.2938  0.6101 -0.9480
10005TIP3    H254211   4.692   1.179   2.417 -0.7687 -0.7411 -0.9181
10006TIP3   OH254212   6.288   0.506   1.647  0.3474 -0.1998  0.1051
10006TIP3    H154213   6.379   0.482   1.630  0.2964 -1.5115  1.4809
10006TIP3    H254214   6.284   0.518   1.742 -0.5536  1.5115 -0.1077
10007TIP3   OH254215   3.693   0.289   2.329 -0.6671  0.1703 -0.1056
10007TIP3    H154216   3.676   0.326   2.242 -1.4860 -0.2970 -0.1562
10007TIP3    H254217   3.606   0.286   2.370 -0.1281  1.6993  1.2678
10008TIP3   OH254218   6.042   7.387   1.178 -0.4068 -0.0835  0.0741
10008TIP3    H154219   5.975   7.320   1.163 -1.3291  0.3049  2.1437
10008TIP3    H254220   6.093   7.354   1.251 -0.3611  1.0999  0.5925
10009TIP3   OH254221   5.284   0.920   2.148  0.1595  0.2353  0.7519
10009TIP3    H154222   5.262   0.992   2.207 -0.2680  0.6782  0.0656
10009TIP3    H254223   5.371   0.943   2.114  0.0673  0.3740  0.6104
10010TIP3   OH254224   0.550   2.639   3.495 -0.0778  0.3980 -0.9043
10010TIP3    H154225   0.487   2.613   3.563 -1.1480  2.3176 -1.0875
10010TIP3    H254226   0.567   2.559   3.446 -0.9300 -0.5720  0.3232
10011TIP3   OH254227   1.316   0.946   0.885 -0.1642 -0.4730  0.0156
10011TIP3    H154228   1.284   0.942   0.975 -0.2911  1.4387  0.0943
10011TIP3    H254229   1.244   0.986   0.836  1.1606  1.7831 -0.2273
10012TIP3   OH254230   3.973   3.819   1.712 -0.4189  0.1063  0.0115
10012TIP3    H154231   3.940   3.780   1.630 -0.2041 -2.5003  1.0710
10012TIP3    H254232   3.957   3.752   1.778  1.7597  1.0891  1.6508
10013TIP3   OH254233   7.586   4.827   2.349 -0.1766 -0.3391  0.4935
10013TIP3    H154234   7.536   4.909   2.346  0.1998 -0.1291 -0.3019
10013TIP3    H254235   7.551   4.775   2.276  0.6803 -0.2311 -0.0078
10014TIP3   OH254236   6.946   4.819   2.332  0.1389  0.0874  0.1727
10014TIP3    H154237   6.890   4.753   2.291 -0.7215  0.0763  1.3201
10014TIP3    H254238   7.010   4.769   2.382 -1.5792  0.0234  2.4906
10015TIP3   OH254239   7.238   5.369   1.741 -0.4000 -0.2598  0.2895
10015TIP3    H154240   7.178   5.405   1.807 -1.1471 -0.7867 -0.0850
10015TIP3    H254241   7.192   5.293   1.706  0.3147 -0.4237 -0.3144
10016TIP3   OH254242   5.236   6.246   2.479 -0.2274  0.1520 -0.2348
10016TIP3    H154243   5.163   6.183   2.483  0.8570 -1.2483 -1.4887
10016TIP3    H254244   5.202   6.324   2.524 -2.1357 -0.8003  0.1017
10017TIP3   OH254245   1.048   2.033   1.600 -0.5382  0.1412 -0.1588
10017TIP3    H154246   1.115   2.096   1.625  0.4012 -1.2361  0.9796
10017TIP3    H254247   0.977   2.047   1.663 -1.1077  1.2045 -1.0016
10018TIP3   OH254248   1.225   1.505   1.120  0.5417  0.5496 -0.8617
10018TIP3    H154249   1.225   1.472   1.210 -0.8473  0.7321 -0.7656
10018TIP3    H254250   1.270   1.589   1.126  1.9045 -0.1757 -0.6503
10019TIP3   OH254251   5.358   4.431   2.799  0.2529  0.1745 -0.2594
10019TIP3    H154252   5.376   4.428   2.705 -0.4169  1.3792 -0.4537
10019TIP3    H254253   5.342   4.340   2.824  2.3516 -0.4275 -0.9015
10020TIP3   OH254254   0.363   6.804   3.349 -0.3073 -0.3069 -0.2336
10020TIP3    H154255   0.411   6.782   3.429  0.0253  3.0177  0.6370
10020TIP3    H254256   0.426   6.789   3.279  0.8626  0.5977  0.5717
10021TIP3   OH254257   7.641   4.703   0.840 -0.1664  0.1843 -0.0495
10021TIP3    H154258   7.628   4.616   0.878 -5.2092  0.5921 -0.2358
10021TIP3    H254259   7.650   4.761   0.915  0.3290 -0.1160  0.1347
10022TIP3   OH254260   0.668   5.730   1.081 -0.2176  0.4258  0.1554
10022TIP3    H154261   0.701   5.781   1.007 -1.6126  2.4428  0.8355
10022TIP3    H254262   0.671   5.790   1.155  0.3346 -1.2867  1.5726
10023TIP3   OH254263   7.505   0.302   1.441  0.4234 -0.7946 -0.6636
10023TIP3    H154264   7.428   0.277   1.390  0.4952 -0.3050 -1.0104
10023TIP3    H254265   7.524   0.224   1.494 -0.0181 -1.0875 -0.9262
10024TIP3   OH254266   5.115   5.593   1.118 -0.0063 -0.0519  1.0959
10024TIP3    H154267   5.099   5.687   1.110  0.2780 -0.0836  0.0506
10024TIP3    H254268   5.044   5.552   1.070  1.3087 -0.2750 -0.7902
10025TIP3   OH254269   3.596   5.502   2.227  0.1968  0.1571  0.4849
10025TIP3    H154270   3.521   5.549   2.263  0.1041  0.0926  0.3760
10025TIP3    H254271   3.571   5.482   2.137  0.8295  1.2392  0.0382
10026TIP3   OH254272   1.991   7.554   0.536 -0.0082  0.0815  0.2434
10026TIP3    H154273   1.922   7.537   0.600 -1.4455  0.1866 -1.2201
10026TIP3    H254274   2.001   7.649   0.537  1.1151 -0.0222  1.4211
10027TIP3   OH254275   1.697   7.055   2.896  0.2693  0.5840 -0.2817
10027TIP3    H154276   1.781   7.069   2.852  0.4275  2.0921  0.4363
10027TIP3    H254277   1.719   7.052   2.989  0.1550 -4.1006 -0.1754
10028TIP3   OH254278   3.928   5.495   0.787  0.0351 -0.5547  0.1313
10028TIP3    H154279   3.940   5.589   0.797 -3.1290  0.0654 -0.8630
10028TIP3    H254280   3.949   5.477   0.695 -2.4777 -0.1072 -0.6166
10029TIP3   OH254281   1.066   3.257   2.283 -0.4762 -0.4261  0.0644
10029TIP3    H154282   1.097   3.247   2.373  0.0027  1.5155  0.1577
10029TIP3    H254283   1.045   3.168   2.255  0.3966 -1.2021  1.7199
10030TIP3   OH254284   6.295   2.982   2.495  0.0956  0.1971  0.0254
10030TIP3    H154285   6.385   2.973   2.527  0.5022  1.4198 -0.7195
10030TIP3    H254286   6.243   2.991   2.575  0.5064 -1.2970  0.4991
10031TIP3   OH254287   4.550   4.708   2.222 -0.0369 -0.6869  0.2623
10031TIP3    H154288   4.551   4.733   2.315 -0.2001 -1.7054  0.5493
10031TIP3    H254289   4.524   4.616   2.223 -1.6521 -0.2804 -0.8927
10032TIP3   OH254290   6.056   1.071   1.446  0.1349  0.6574 -0.0174
10032TIP3    H154291   6.091   1.139   1.389 -1.6359  2.3523  0.8090
10032TIP3    H254292   5.992   1.026   1.392  0.1895  0.6657 -0.0895
10033TIP3   OH254293   4.337   0.278   2.159 -0.3553  0.0028  0.1586
10033TIP3    H154294   4.295   0.194   2.142  2.3710 -1.7901  1.6261
10033TIP3    H254295   4.366   0.308   2.073 -0.0061 -1.3383 -0.2112
10034TIP3   OH254296   1.981   7.211   3.157  0.0308  0.4134 -0.4324
10034TIP3    H154297   2.032   7.156   3.097  1.1897  0.1327  0.7536
10034TIP3    H254298   2.044   7.239   3.223 -1.1650  0.8747  0.5542
10035TIP3   OH254299   5.680   5.629   1.132  0.3228  0.4108  0.7749
10035TIP3    H154300   5.735   5.688   1.184  1.5469  0.2980 -0.3317
10035TIP3    H254301   5.659   5.557   1.191  1.2257  0.5535  1.2916
10036TIP3   OH254302   1.439   2.555   1.910  0.0953 -0.0596 -0.1234
10036TIP3    H154303   1.502   2.502   1.959  0.2713 -0.2480 -0.5525
10036TIP3    H254304   1.396   2.609   1.977  1.3634  0.7474  0.0844
10037TIP3   OH254305   2.493   5.244   2.718 -0.0837 -0.3493  0.0221
10037TIP3    H154306   2.455   5.281   2.797  0.7732  0.8791 -0.1080
10037TIP3    H254307   2.566   5.191   2.748  0.6596  0.6648  0.0218
10038TIP3   OH254308   3.873   5.403   2.254 -0.0168  0.1543  0.3974
10038TIP3    H154309   3.894   5.481   2.305  0.9130 -1.4236  2.5862
10038TIP3    H254310   3.782   5.383   2.277  0.0048  0.1381  0.4688
10039TIP3   OH254311   3.216   0.347   2.767 -0.3235  0.0344  0.3672
10039TIP3    H154312   3.294   0.341   2.823  2.2003 -3.4841 -2.9737
10039TIP3    H254313   3.192   0.439   2.770  3.5103  1.2129  2.2428
10040TIP3   OH254314   3.816   1.016   2.389 -0.2225 -0.0756 -0.2297
10040TIP3    H154315   3.813   1.065   2.306  2.5074 -0.6543 -0.7651
10040TIP3    H254316   3.748   0.950   2.379  0.1785 -0.2756 -2.1538
10041TIP3   OH254317   3.498   1.362   1.686 -0.3555  0.1248  0.0991
10041TIP3    H154318   3.489   1.280   1.636  1.2154  0.1215 -0.2266
10041TIP3    H254319   3.409   1.395   1.693 -1.1460 -1.9959  0.8920
10042TIP3   OH254320   4.622   0.194   2.774 -0.0351 -0.3524 -0.4513
10042TIP3    H154321   4.687   0.164   2.709 -0.1658  0.7342 -1.1087
10042TIP3    H254322   4.593   0.114   2.817  0.8464 -0.9880 -1.0023
10043TIP3   OH254323   3.016   6.480   0.769 -0.0632  0.0399 -0.2916
10043TIP3    H154324   3.099   6.447   0.733 -1.7028 -3.4202 -1.2801
10043TIP3    H254325   3.004   6.432   0.851 -1.0122  0.6641 -0.0434
10044TIP3   OH254326   1.018   4.770   0.891 -0.3790 -0.2641 -0.4827
10044TIP3    H154327   1.022   4.774   0.986  0.1789 -2.3155 -0.3678
10044TIP3    H254328   0.958   4.840   0.866  0.6399  1.3114  1.2448
10045TIP3   OH254329   1.526   2.299   2.757  0.0229  0.1078  0.0142
10045TIP3    H154330   1.548   2.278   2.848  3.5175  1.8002 -0.2903
10045TIP3    H254331   1.522   2.214   2.714  1.2713 -0.6036  1.1996
10046TIP3   OH254332   1.099   1.502   0.457  0.3941 -0.4278 -0.4464
10046TIP3    H154333   1.141   1.459   0.532 -1.0827  1.9775  1.9306
10046TIP3    H254334   1.029   1.442   0.432  1.0866 -1.4105 -0.0969
10047TIP3   OH254335   3.667   1.878   2.086 -0.4492 -0.0421 -0.2328
10047TIP3    H154336   3.675   1.808   2.020 -1.4982  0.5436 -1.0063
10047TIP3    H254337   3.694   1.836   2.168 -1.2755 -1.4322 -0.6313
10048TIP3   OH254338   2.290   4.334   0.961 -0.0596 -0.1652 -0.2890
10048TIP3    H154339   2.224   4.402   0.974 -0.2984 -0.6033  0.9670
10048TIP3    H254340   2.294   4.288   1.045  1.4595 -0.5013 -0.5133
10049TIP3   OH254341   5.306   2.831   1.771 -0.1885  0.4267  0.2863
10049TIP3    H154342   5.313   2.919   1.809 -0.1786  0.9512 -0.9029
10049TIP3    H254343   5.344   2.839   1.684 -0.7230 -0.6212 -0.0602
10050TIP3   OH254344   4.781   3.383   2.175  0.1140  0.7592 -0.0547
10050TIP3    H154345   4.850   3.435   2.133  1.0965 -0.2088  0.3238
10050TIP3    H254346   4.722   3.359   2.103  0.8791  0.5102 -0.6197
10051TIP3   OH254347   5.778   3.632   2.670  0.4255 -0.2579 -0.0605
10051TIP3    H154348   5.841   3.702   2.654 -1.2742  1.7353  1.3307
10051TIP3    H254349   5.805   3.594   2.754  0.0124  0.3366  0.3461
10052TIP3   OH254350   4.126   1.408   0.472  0.5928  0.1414  0.3697
10052TIP3    H154351   4.102   1.347   0.403  0.4057  1.0631 -0.4060
10052TIP3    H254352   4.184   1.358   0.530 -0.4070 -1.0730  0.3629
10053TIP3   OH254353   7.356   3.351   1.365  0.3466  0.3887  0.2592
10053TIP3    H154354   7.415   3.425   1.352  0.4481 -0.1174 -3.0289
10053TIP3    H254355   7.389   3.306   1.442  1.0315  3.0261  1.6041
10054TIP3   OH254356   1.585   5.746   1.840 -0.4167  0.0199 -0.2363
10054TIP3    H154357   1.608   5.724   1.930  0.6716 -3.0154 -1.1285
10054TIP3    H254358   1.515   5.684   1.817  2.2779 -2.4228 -2.7175
10055TIP3   OH254359   3.982   5.459   0.511 -0.1905  0.3791  0.3289
10055TIP3    H154360   3.952   5.374   0.478 -0.7483  0.4527  0.6346
10055TIP3    H254361   3.918   5.522   0.478  1.8922  1.1597 -2.5354
10056TIP3   OH254362   0.427   6.228   2.839 -0.0078 -0.0208  0.1507
10056TIP3    H154363   0.377   6.304   2.869 -0.5628 -0.3389  0.0538
10056TIP3    H254364   0.426   6.168   2.913 -0.6768 -0.4647 -0.2076
10057TIP3   OH254365   7.447   0.473   0.742  0.6251  0.3103 -0.0082
10057TIP3    H154366   7.435   0.554   0.692  1.6674 -0.1287 -1.0186
10057TIP3    H254367   7.517   0.493   0.804  0.7985  0.2361 -0.1759
10058TIP3   OH254368   2.186   5.469   1.008 -0.0727 -0.1189  0.1348
10058TIP3    H154369   2.272   5.489   0.972  0.9066 -2.2597  1.1110
10058TIP3    H254370   2.185   5.510   1.095 -0.1553  0.1656 -0.0011
10059TIP3   OH254371   2.426   0.876   1.220  0.1975  0.6042  0.6175
10059TIP3    H154372   2.404   0.908   1.307 -1.1302  1.5919 -0.0315
10059TIP3    H254373   2.412   0.952   1.163 -0.6904 -0.4727 -0.6801
10060TIP3   OH254374   0.860   7.665   1.543 -0.3272  0.2298  0.3336
10060TIP3    H154375   0.946   7.706   1.550  0.2013 -0.9368  0.8734
10060TIP3    H254376   0.844   7.628   1.630 -1.6649  0.9703  0.4322
10061TIP3   OH254377   2.530   5.950   3.002 -0.0364 -0.6343 -0.6798
10061TIP3    H154378   2.569   6.031   2.968 -0.6157  0.2372  0.6033
10061TIP3    H254379   2.543   5.886   2.933  0.0385  0.6806 -1.9493
10062TIP3   OH254380   7.521   3.231   2.251  0.1030 -0.2133  0.2680
10062TIP3    H154381   7.597   3.175   2.267 -0.8854 -1.6059  0.2974
10062TIP3    H254382   7.522   3.248   2.157  1.7908  1.8482  0.5829
10063TIP3   OH254383   0.026   7.185   2.310  0.4263  0.1361  0.0469
10063TIP3    H154384  -0.053   7.179   2.364  1.8051 -0.6597  2.1039
10063TIP3    H254385   0.005   7.251   2.243 -1.6336  0.6277  1.1088
10064TIP3   OH254386   7.030   0.789   3.125 -0.2513  0.0337 -0.0034
10064TIP3    H154387   7.060   0.857   3.065 -0.7228 -0.1186 -0.4229
10064TIP3    H254388   6.945   0.763   3.090 -0.4918 -0.1247  0.6805
10065TIP3   OH254389   3.626   3.602   1.971 -0.3505  0.6242 -0.4208
10065TIP3    H154390   3.596   3.594   2.062 -1.3884 -1.3854 -0.8898
10065TIP3    H254391   3.552   3.642   1.925 -0.4935  0.0753 -0.6797
10066TIP3   OH254392   1.536   7.617   1.071 -0.4665  0.2626 -0.3739
10066TIP3    H154393   1.569   7.701   1.039 -0.3395  0.9955  1.5777
10066TIP3    H254394   1.533   7.561   0.993  3.8730  0.5861 -0.9893
10067TIP3   OH254395   2.049   7.181   1.582  0.2558 -0.1489 -0.1410
10067TIP3    H154396   2.126   7.237   1.581  0.4202 -0.3726  0.0521
10067TIP3    H254397   2.050   7.137   1.497  0.9078 -0.9207  0.2537
10068TIP3   OH254398   1.051   2.427   0.765 -0.0133  0.4546  0.0524
10068TIP3    H154399   1.041   2.516   0.729 -0.2758  1.7251  2.9933
10068TIP3    H254400   1.145   2.415   0.772  0.0210  1.0959  0.8875
10069TIP3   OH254401   1.479   5.794   1.194 -0.0473 -0.0198 -0.1434
10069TIP3    H154402   1.520   5.737   1.258 -1.6143  0.5797  1.4964
10069TIP3    H254403   1.412   5.740   1.152  0.3454 -0.1466 -0.6182
10070TIP3   OH254404   1.610   4.424   2.048 -0.0873 -0.3168 -0.4205
10070TIP3    H154405   1.608   4.329   2.038 -0.0743 -0.5502  1.3724
10070TIP3    H254406   1.670   4.454   1.979  2.6262 -1.9727  1.0161
10071TIP3   OH254407   6.959   6.351   3.449  0.1614  0.2637 -0.6905
10071TIP3    H154408   7.030   6.291   3.471  0.1031  0.3138 -0.3610
10071TIP3    H254409   6.882   6.295   3.440 -0.1835  0.4248  0.9690
10072TIP3   OH254410   4.985   0.805   3.521 -0.0689  0.0440  0.1314
10072TIP3    H154411   5.046   0.855   3.467  1.8898 -0.4555  1.7570
10072TIP3    H254412   5.041   0.748   3.573 -1.8835  0.0258  2.1953
10073TIP3   OH254413   1.117   4.610   2.737  0.1184 -0.0345  0.2578
10073TIP3    H154414   1.045   4.626   2.677  1.4810  0.3909 -1.3482
10073TIP3    H254415   1.110   4.518   2.760 -0.4065 -0.2151 -0.5989
10074TIP3   OH254416   2.234   1.786   1.568  0.3626 -0.4818  0.0944
10074TIP3    H154417   2.147   1.826   1.570  0.2885 -0.6702  1.0765
10074TIP3    H254418   2.259   1.788   1.476  0.2860  1.6221  0.0761
10075TIP3   OH254419   2.072   5.989   3.331  0.3564 -0.3556 -0.0861
10075TIP3    H154420   2.033   5.905   3.353  1.6552 -0.5746  1.5611
10075TIP3    H254421   2.151   5.967   3.282  1.5173 -0.2385  1.6249
10076TIP3   OH254422   1.315   5.740   3.334 -1.0566  0.1498  0.0548
10076TIP3    H154423   1.330   5.649   3.309 -1.6102  0.0809 -0.0431
10076TIP3    H254424   1.399   5.770   3.368 -0.2689  0.2308 -1.8336
10077TIP3   OH254425   0.049   6.115   1.846 -0.1841  0.0861 -0.2647
10077TIP3    H154426   0.141   6.139   1.829 -0.4783  1.3000 -0.2541
10077TIP3    H254427   0.037   6.131   1.939 -0.7700  1.2947 -0.5287
10078TIP3   OH254428   7.130   3.780   1.787 -0.6003  0.2114  0.3977
10078TIP3    H154429   7.100   3.805   1.700 -0.5828  0.1379  0.3704
10078TIP3    H254430   7.053   3.741   1.829 -0.3979 -0.4849  0.1294
10079TIP3   OH254431   1.018   5.272   1.158 -0.1291 -0.0128 -0.1580
10079TIP3    H154432   1.049   5.335   1.223 -0.8387  0.8133 -0.6038
10079TIP3    H254433   0.927   5.256   1.181  0.1768 -1.3016  0.2627
10080TIP3   OH254434   3.382   6.814   3.385  0.1144  0.2648 -0.3963
10080TIP3    H154435   3.477   6.801   3.391 -0.0220 -1.1004 -0.9415
10080TIP3    H254436   3.367   6.899   3.428  1.2336 -0.7843  2.2986
10081TIP3   OH254437   2.028   3.653   1.005 -0.4156 -0.4552 -0.4722
10081TIP3    H154438   2.006   3.560   1.004 -1.8228 -0.1506 -0.1463
10081TIP3    H254439   1.987   3.687   1.084  0.4858  0.3633 -0.3326
10082TIP3   OH254440   4.687   4.998   2.136  0.2140  0.2192  0.7244
10082TIP3    H154441   4.651   5.077   2.176 -0.2916 -0.5318  1.8086
10082TIP3    H254442   4.700   5.021   2.044 -2.4723  0.7570  0.3979
10083TIP3   OH254443   4.169   1.842   1.021 -0.0521 -0.2587 -0.7645
10083TIP3    H154444   4.182   1.750   0.997  1.4002  0.0303 -1.1317
10083TIP3    H254445   4.146   1.839   1.114  0.6736 -0.9513 -0.5977
10084TIP3   OH254446   3.541   4.442   1.843  0.2661  0.0228  0.6914
10084TIP3    H154447   3.522   4.499   1.917  0.6113  0.7728  0.2180
10084TIP3    H254448   3.473   4.375   1.846 -1.3027  1.5351  0.1629
10085TIP3   OH254449   2.011   4.860   2.969  0.6793 -0.7071 -0.8437
10085TIP3    H154450   1.958   4.845   3.047  0.6545  0.9822 -0.4940
10085TIP3    H254451   1.952   4.902   2.907  1.7528  2.2691 -0.0372
10086TIP3   OH254452   6.635   0.283   0.886  0.1757  0.5414 -0.4659
10086TIP3    H154453   6.594   0.288   0.799  0.3610 -0.5630 -0.6310
10086TIP3    H254454   6.728   0.271   0.868  0.2888  0.8760 -0.1066
10087TIP3   OH254455   0.318   1.403   1.055 -0.1166 -0.0886 -0.4150
10087TIP3    H154456   0.326   1.307   1.052 -1.9783 -0.3228  0.6476
10087TIP3    H254457   0.408   1.434   1.063  0.4095 -2.0223  4.9504
10088TIP3   OH254458   2.559   0.796   2.304 -0.3339  0.2744 -0.1424
10088TIP3    H154459   2.636   0.761   2.350 -0.0069 -0.7904 -1.4300
10088TIP3    H254460   2.503   0.720   2.290 -0.3161  0.5084 -1.6736
10089TIP3   OH254461   4.347   7.532   1.858  0.1855  0.0692 -0.3695
10089TIP3    H154462   4.409   7.564   1.922 -0.1939  0.6819 -0.3086
10089TIP3    H254463   4.289   7.606   1.840  0.8077  0.1987 -2.0610
10090TIP3   OH254464   7.380   3.060   1.252 -0.1887  0.1951  0.4873
10090TIP3    H154465   7.444   3.128   1.274 -1.1945  1.2909  0.1660
10090TIP3    H254466   7.368   3.068   1.158 -1.2632  0.4586  0.6329
10091TIP3   OH254467   0.344   0.238   2.743  0.2796 -0.8581  0.6900
10091TIP3    H154468   0.315   0.329   2.741  0.4258 -0.8155  0.4652
10091TIP3    H254469   0.266   0.188   2.767  0.0894 -0.7171  0.3733
10092TIP3   OH254470   1.734   6.443   1.375 -0.2698  0.0035  0.4390
10092TIP3    H154471   1.757   6.420   1.465 -0.1473 -0.4956  0.2814
10092TIP3    H254472   1.698   6.532   1.382 -0.1035  0.0368  0.9547
10093TIP3   OH254473   0.901   3.241   0.517  0.1926  0.3457 -0.0024
10093TIP3    H154474   0.980   3.192   0.496  0.4835  1.0626 -0.6171
10093TIP3    H254475   0.931   3.312   0.574 -0.1940 -0.0487  0.7138
10094TIP3   OH254476   6.383   0.291   2.100  0.3073 -0.5190  0.0183
10094TIP3    H154477   6.412   0.383   2.097  2.8018 -1.1646  1.4615
10094TIP3    H254478   6.376   0.272   2.194 -2.8349 -1.1335 -0.2261
10095TIP3   OH254479   7.227   5.715   1.112 -0.8590 -0.0512 -0.0145
10095TIP3    H154480   7.281   5.791   1.134  1.0309 -1.4644  0.5599
10095TIP3    H254481   7.215   5.720   1.017  1.3379 -0.2917 -0.3542
10096TIP3   OH254482   5.851   2.735   3.168  0.2418  0.0643  0.1536
10096TIP3    H154483   5.930   2.721   3.116 -0.6466  0.0072 -1.2664
10096TIP3    H254484   5.800   2.798   3.117 -0.6003  0.1462  1.0609
10097TIP3   OH254485   5.751   4.559   0.702 -0.0920  0.1188  0.0293
10097TIP3    H154486   5.700   4.480   0.721  0.5457  0.3186  3.2071
10097TIP3    H254487   5.824   4.555   0.763  1.4566  1.8691 -1.6111
10098TIP3   OH254488   6.681   6.322   2.482  0.0074 -0.1395  0.4701
10098TIP3    H154489   6.755   6.291   2.430  0.8740  0.0653  1.5545
10098TIP3    H254490   6.679   6.264   2.558  0.4189  1.1913  1.5345
10099TIP3   OH254491   2.520   3.692   1.484 -0.1329  0.5081  0.3349
10099TIP3    H154492   2.604   3.664   1.447 -1.0474 -0.6534 -0.9240
10099TIP3    H254493   2.460   3.695   1.410 -1.1985  1.4808  1.1852
10100TIP3   OH254494   3.735   5.079   1.194  0.2028 -0.0734 -0.1267
10100TIP3    H154495   3.707   4.988   1.180  0.9833 -0.2790 -0.3865
10100TIP3    H254496   3.661   5.131   1.164  0.4902 -0.5850 -1.8453
10101TIP3   OH254497   0.281   4.462   0.502 -0.1671  0.6217  0.1274
10101TIP3    H154498   0.233   4.406   0.441  1.9268  0.7405 -1.7379
10101TIP3    H254499   0.214   4.520   0.538 -2.3296 -2.4875  1.6489
10102TIP3   OH254500   2.284   7.544   2.316 -0.7231 -0.1596 -0.5152
10102TIP3    H154501   2.377   7.536   2.335 -0.7385  0.2774 -0.2467
10102TIP3    H254502   2.275   7.514   2.226 -0.4314 -0.8874 -0.3128
10103TIP3   OH254503   2.894   6.191   0.924 -0.0102 -0.6560  0.6933
10103TIP3    H154504   2.831   6.260   0.901  0.1444 -0.4556  0.8636
10103TIP3    H254505   2.964   6.238   0.970  1.7090 -0.3899 -1.9692
10104TIP3   OH254506   6.144   5.357   1.584  0.5037 -0.3875 -0.0060
10104TIP3    H154507   6.097   5.422   1.533 -0.3102 -0.3557  0.7511
10104TIP3    H254508   6.161   5.285   1.523 -1.1527 -0.6951 -0.1323
10105TIP3   OH254509   4.159   2.219   2.321 -0.3875 -0.2692 -0.1627
10105TIP3    H154510   4.118   2.298   2.285  0.5103 -0.5255 -1.8605
10105TIP3    H254511   4.253   2.238   2.319 -0.2652 -0.4726  1.7416
10106TIP3   OH254512   2.172   7.253   2.190  0.8524  0.6099  0.1050
10106TIP3    H154513   2.107   7.203   2.142  1.2650 -0.7042  0.8659
10106TIP3    H254514   2.213   7.310   2.125 -1.3637  1.8386 -0.3026
10107TIP3   OH254515   3.159   4.995   0.436 -0.0687 -0.3194 -0.4073
10107TIP3    H154516   3.215   5.062   0.397 -0.9576 -0.1446 -1.4270
10107TIP3    H254517   3.218   4.943   0.490  0.4881  1.8422  1.2047
10108TIP3   OH254518   2.163   0.262   1.847 -0.1144 -0.1164  0.0691
10108TIP3    H154519   2.207   0.221   1.773 -0.4211 -0.7402  0.2262
10108TIP3    H254520   2.082   0.213   1.857  0.2639 -0.5261  1.2836
10109TIP3   OH254521   2.158   0.505   1.684  0.1293 -0.4862 -0.3679
10109TIP3    H154522   2.073   0.481   1.646  0.0316 -0.0237 -0.4414
10109TIP3    H254523   2.182   0.429   1.738 -1.4060  0.2487  1.4682
10110TIP3   OH254524   1.347   4.998   2.129 -0.1251 -0.5720  0.1646
10110TIP3    H154525   1.412   5.018   2.061 -1.4278 -1.8050 -1.5334
10110TIP3    H254526   1.268   4.974   2.080 -1.6804  0.1829  2.1412
10111TIP3   OH254527   3.870   3.274   0.928 -0.6805  0.8101 -0.5846
10111TIP3    H154528   3.824   3.295   1.009 -0.1923 -1.5801  0.4167
10111TIP3    H254529   3.942   3.216   0.956 -0.2720  0.2113 -2.6711
10112TIP3   OH254530   7.332   6.495   1.742  0.6001 -0.6706 -0.3041
10112TIP3    H154531   7.266   6.447   1.792 -0.3137  0.3889 -0.4629
10112TIP3    H254532   7.347   6.575   1.793  0.2862  0.0233 -1.2776
10113TIP3   OH254533   3.531   5.049   0.565  0.0610  0.1129 -0.0305
10113TIP3    H154534   3.609   4.994   0.557  0.4073  0.7069 -0.9172
10113TIP3    H254535   3.461   4.988   0.586  0.7995 -0.4048  0.9912
10114TIP3   OH254536   7.086   5.358   2.854  0.1397  0.3364  0.0520
10114TIP3    H154537   7.059   5.271   2.885 -2.1402  1.6906  2.2707
10114TIP3    H254538   7.035   5.371   2.774 -0.0284 -0.1157  0.0812
10115TIP3   OH254539   5.178   2.705   2.924 -0.5168  0.5078 -0.3033
10115TIP3    H154540   5.139   2.618   2.916  0.8955 -0.2307  0.5880
10115TIP3    H254541   5.115   2.754   2.977 -2.2831  0.6868 -2.4021
10116TIP3   OH254542   2.032   5.305   0.857 -0.6782 -0.2983  0.6580
10116TIP3    H154543   2.004   5.390   0.824  1.3986 -0.3459 -1.4976
10116TIP3    H254544   2.114   5.323   0.904 -0.2587 -1.0776  0.2448
10117TIP3   OH254545   1.915   4.856   0.896 -0.5221  0.0541 -0.2130
10117TIP3    H154546   1.968   4.914   0.842  0.3778 -0.1049  0.4706
10117TIP3    H254547   1.940   4.768   0.868 -1.3709 -0.0259 -0.7635
10118TIP3   OH254548   6.660   0.681   2.656  0.2666  0.3366  0.0548
10118TIP3    H154549   6.611   0.601   2.672  1.3982 -0.5567 -0.8044
10118TIP3    H254550   6.662   0.725   2.741  1.3794 -1.5515  1.0764
10119TIP3   OH254551   5.407   0.352   0.781  0.0942  0.4028 -0.0436
10119TIP3    H154552   5.405   0.440   0.816  1.4140 -0.3771  2.1872
10119TIP3    H254553   5.315   0.327   0.771 -0.3001  1.3142  1.1861
10120TIP3   OH254554   7.328   6.739   1.873 -0.4336 -0.2684 -0.6933
10120TIP3    H154555   7.311   6.791   1.951 -0.9227  0.3630 -1.2074
10120TIP3    H254556   7.261   6.767   1.810  0.1153 -0.5671 -1.4300
10121TIP3   OH254557   0.672   7.620   2.142  0.2703 -0.0234  0.0732
10121TIP3    H154558   0.662   7.710   2.175  0.6061 -0.5489  1.6856
10121TIP3    H254559   0.745   7.584   2.193  1.4594 -0.6076 -1.9285
10122TIP3   OH254560   4.788   5.377   2.618  0.2330  0.0363 -0.0357
10122TIP3    H154561   4.744   5.293   2.630 -0.6915  0.4697 -0.3336
10122TIP3    H254562   4.879   5.354   2.600 -0.0900 -0.9246 -0.5079
10123TIP3   OH254563   6.623   5.232   1.866  0.3010 -0.1085 -0.1664
10123TIP3    H154564   6.677   5.155   1.885  1.9475  1.4914  2.0830
10123TIP3    H254565   6.684   5.306   1.868 -1.4992  1.4802 -0.5280
10124TIP3   OH254566   2.702   6.468   1.819 -0.1404 -0.0838 -0.1831
10124TIP3    H154567   2.629   6.421   1.778  0.4926 -1.6098  0.3369
10124TIP3    H254568   2.671   6.487   1.908 -0.3301  0.3339 -0.3361
10125TIP3   OH254569   5.706   6.034   2.613  0.1440  0.0715  0.0913
10125TIP3    H154570   5.621   6.076   2.601  0.3261  0.3314 -0.3129
10125TIP3    H254571   5.725   5.994   2.529  1.2611  1.5917 -0.4410
10126TIP3   OH254572   4.534   7.134   1.656  0.2722 -0.1629  0.2453
10126TIP3    H154573   4.572   7.058   1.699 -0.3374  0.2818  1.6194
10126TIP3    H254574   4.608   7.179   1.615  0.4978 -2.1265 -1.6796
10127TIP3   OH254575   2.352   7.412   1.738 -0.1789 -0.0536  0.2975
10127TIP3    H154576   2.314   7.325   1.749 -0.4919 -0.1588 -1.4246
10127TIP3    H254577   2.290   7.471   1.781  0.1787 -0.6834  1.7277
10128TIP3   OH254578   2.285   7.240   0.883  0.2880 -0.3169 -0.2221
10128TIP3    H154579   2.212   7.255   0.824  0.7332 -0.1542 -0.7367
10128TIP3    H254580   2.307   7.328   0.916  0.0585 -0.4022  0.1720
10129TIP3   OH254581   0.344   4.328   1.992  0.0235 -0.3125  0.1821
10129TIP3    H154582   0.423   4.374   1.965  1.4075 -0.0527  4.0956
10129TIP3    H254583   0.342   4.249   1.938  2.6585 -0.0702 -0.3847
10130TIP3   OH254584   4.228   3.746   2.097  0.0246  0.4409 -0.6801
10130TIP3    H154585   4.226   3.820   2.036 -1.7878  2.4536  1.5982
10130TIP3    H254586   4.135   3.728   2.114  0.4410  0.3127  1.7909
10131TIP3   OH254587   3.316   6.144   2.512 -0.1655 -0.5049 -0.4714
10131TIP3    H154588   3.361   6.142   2.428 -0.7944  2.1504 -0.9700
10131TIP3    H254589   3.351   6.222   2.556 -0.0917 -1.6319  1.6105
10132TIP3   OH254590   2.066   2.253   1.208  0.1165  0.1987 -0.1105
10132TIP3    H154591   2.014   2.194   1.153  0.3871  0.2800 -0.4621
10132TIP3    H254592   2.059   2.338   1.165  0.3474  0.2600 -0.0292
10133TIP3   OH254593   3.825   2.036   1.548  0.2388  0.4661 -0.0479
10133TIP3    H154594   3.798   1.948   1.523 -2.6255  0.9222  0.9912
10133TIP3    H254595   3.893   2.023   1.614 -1.9706 -1.1455  2.0988
10134TIP3   OH254596   4.700   5.954   3.099 -0.1729  0.5794  0.0746
10134TIP3    H154597   4.652   6.008   3.161 -0.8616 -0.0634  0.1124
10134TIP3    H254598   4.774   6.009   3.072 -0.8096  1.5144  0.1633
10135TIP3   OH254599   6.072   2.564   2.118  0.6019 -0.2598  0.1354
10135TIP3    H154600   5.980   2.547   2.134  0.4894  0.3217  0.1185
10135TIP3    H254601   6.116   2.541   2.201  0.3998 -0.1878  0.2622
10136TIP3   OH254602   1.970   5.131   2.228 -0.2261 -0.0055  0.0264
10136TIP3    H154603   1.974   5.039   2.202  0.6302 -0.0722  0.3798
10136TIP3    H254604   1.888   5.163   2.190 -1.0973 -1.2078  0.8141
10137TIP3   OH254605   3.433   4.904   2.271  0.2828 -0.0262 -0.3736
10137TIP3    H154606   3.368   4.953   2.322 -0.0112 -0.3511 -0.4288
10137TIP3    H254607   3.446   4.956   2.192  0.8125  0.5293  0.0760
10138TIP3   OH254608   5.800   1.440   2.006 -0.2315  1.0115 -0.3762
10138TIP3    H154609   5.784   1.378   2.077 -0.5493  0.5993 -0.8018
10138TIP3    H254610   5.882   1.410   1.966 -0.1806  1.0966 -0.3345
10139TIP3   OH254611   1.401   7.027   1.908 -0.6599 -0.2092  0.1928
10139TIP3    H154612   1.329   7.032   1.844 -1.2744  1.0922  0.9473
10139TIP3    H254613   1.466   7.090   1.876 -0.0599 -1.0094 -0.2065
10140TIP3   OH254614   7.568   2.349   1.333  0.2904  0.2775 -0.1631
10140TIP3    H154615   7.639   2.304   1.288  0.6852  0.9692 -0.2419
10140TIP3    H254616   7.523   2.397   1.264  2.2900  3.2192  0.4250
10141TIP3   OH254617   0.812   4.536   2.528  0.1698 -0.2801 -0.8148
10141TIP3    H154618   0.828   4.593   2.603 -1.4962 -0.4011 -0.3199
10141TIP3    H254619   0.786   4.453   2.567  0.3687 -0.6825 -1.5357
10142TIP3   OH254620   0.809   2.941   1.207  0.3249 -0.3059  0.1686
10142TIP3    H154621   0.720   2.937   1.171  0.3060  1.6652 -0.1381
10142TIP3    H254622   0.813   3.026   1.250  2.0676 -0.3689  0.1969
10143TIP3   OH254623   7.515   6.999   2.582  0.1387 -0.2346  0.5104
10143TIP3    H154624   7.462   6.963   2.510  1.6799 -0.6733 -0.4595
10143TIP3    H254625   7.492   6.946   2.658 -1.6256  0.3213  0.4125
10144TIP3   OH254626   0.738   4.183   1.454  0.1248  0.0947  0.3479
10144TIP3    H154627   0.692   4.214   1.376 -0.4953  0.7116  0.9465
10144TIP3    H254628   0.717   4.247   1.522  0.6560 -0.4289  1.0278
10145TIP3   OH254629   2.304   7.198   2.602  0.1880  0.3080 -0.1862
10145TIP3    H154630   2.355   7.118   2.614 -0.5860 -0.2613 -0.6213
10145TIP3    H254631   2.321   7.250   2.681 -0.5721 -0.9859  0.8570
10146TIP3   OH254632   0.974   6.550   1.031  0.2379 -0.3856 -0.5509
10146TIP3    H154633   1.034   6.610   1.075 -0.5859  0.3403 -0.3796
10146TIP3    H254634   1.026   6.510   0.962  0.7571  0.6946 -0.8098
10147TIP3   OH254635   0.048   6.842   0.908  0.5083 -0.1946 -0.1043
10147TIP3    H154636   0.087   6.774   0.964  1.2431  0.4960  0.2417
10147TIP3    H254637   0.045   6.920   0.963 -0.6098 -0.0112 -0.4030
10148TIP3   OH254638   7.364   6.107   1.563 -0.3293  0.0701 -0.2847
10148TIP3    H154639   7.452   6.075   1.582 -0.4881  0.1343  0.6065
10148TIP3    H254640   7.308   6.030   1.573 -0.6940  0.5309  1.7335
10149TIP3   OH254641   2.693   6.763   1.696  0.3327  0.0451  0.3594
10149TIP3    H154642   2.764   6.746   1.634 -0.1400  0.2942 -0.2545
10149TIP3    H254643   2.677   6.678   1.737 -0.4596 -0.5029 -1.0384
10150TIP3   OH254644   6.651   3.488   2.127  0.5005  0.4795  0.0482
10150TIP3    H154645   6.692   3.524   2.206  1.1399  0.5986 -0.3321
10150TIP3    H254646   6.573   3.441   2.159  0.2890  1.2389  0.6573
10151TIP3   OH254647   0.214   1.787   1.755  0.4020 -0.4819  0.5499
10151TIP3    H154648   0.282   1.842   1.794  0.2555 -1.7594  2.7942
10151TIP3    H254649   0.262   1.719   1.708  0.7220 -0.9943  1.5752
10152TIP3   OH254650   4.644   6.768   2.569  0.4889 -0.1835  0.4891
10152TIP3    H154651   4.564   6.728   2.602  0.0890 -0.0654 -0.3303
10152TIP3    H254652   4.707   6.759   2.641 -0.0740 -0.8250  0.9050
10153TIP3   OH254653   2.906   6.940   2.411  0.2877 -0.5960  0.3797
10153TIP3    H154654   2.812   6.949   2.427  0.8557  0.1663  4.0661
10153TIP3    H254655   2.926   6.849   2.434  0.4115 -1.0284 -1.2499
10154TIP3   OH254656   7.236   3.406   1.673  0.6323  0.1503 -0.0522
10154TIP3    H154657   7.303   3.340   1.656 -0.0626 -0.3331 -0.9982
10154TIP3    H254658   7.259   3.478   1.613  1.7853  1.0963  1.4533
10155TIP3   OH254659   4.717   2.801   0.601  0.1159 -0.0705 -0.4727
10155TIP3    H154660   4.762   2.843   0.674 -0.8535  0.6464 -0.2614
10155TIP3    H254661   4.678   2.874   0.552 -0.8957 -0.6647 -0.5783
10156TIP3   OH254662   5.580   7.012   1.345  0.4527  0.4445 -0.2069
10156TIP3    H154663   5.667   7.046   1.363 -0.3466  1.9371  1.1360
10156TIP3    H254664   5.543   7.073   1.281 -0.5782  1.5283  1.3478
10157TIP3   OH254665   0.390   2.467   2.871 -0.1429 -0.1762  0.4786
10157TIP3    H154666   0.377   2.372   2.874 -0.1161 -0.2376 -0.9043
10157TIP3    H254667   0.308   2.503   2.903 -1.8476 -0.6398 -2.9401
10158TIP3   OH254668   2.496   5.624   1.783  0.1156  0.5504  0.3948
10158TIP3    H154669   2.452   5.608   1.867 -1.9387 -1.5165 -0.9722
10158TIP3    H254670   2.575   5.569   1.786 -0.1031  0.2604  0.8381
10159TIP3   OH254671   2.685   2.611   1.492 -0.2253  0.0697  0.0698
10159TIP3    H154672   2.673   2.522   1.527  1.4925 -0.7281 -1.1844
10159TIP3    H254673   2.752   2.650   1.549 -0.5713  0.3587  0.2796
10160TIP3   OH254674   0.469   2.925   0.575 -0.0124 -0.3248 -0.4395
10160TIP3    H154675   0.546   2.875   0.549  0.9675  0.5243  0.7176
10160TIP3    H254676   0.470   3.003   0.519  1.3976  0.8898  1.1674
10161TIP3   OH254677   3.295   5.334   2.067  0.1098 -0.2006 -0.1947
10161TIP3    H154678   3.268   5.423   2.090  0.7162 -0.3186  1.0797
10161TIP3    H254679   3.263   5.322   1.978 -2.8294  0.1398  0.6933
10162TIP3   OH254680   3.293   5.597   0.432 -0.0063  0.0614 -0.8747
10162TIP3    H154681   3.235   5.524   0.453  0.2946  0.1649  0.4630
10162TIP3    H254682   3.271   5.621   0.342 -1.4629 -0.4231 -0.6777
10163TIP3   OH254683   2.314   5.929   1.784  0.1547 -0.5635 -0.2030
10163TIP3    H154684   2.267   5.994   1.732  1.6401  0.7117 -0.0051
10163TIP3    H254685   2.318   5.966   1.872 -1.4030 -2.2344  0.6488
10164TIP3   OH254686   6.042   2.423   1.666  0.4063  0.2536 -0.0253
10164TIP3    H154687   5.985   2.354   1.634 -0.2555  0.6792  0.2304
10164TIP3    H254688   6.063   2.397   1.756  0.0247  0.4670  0.1264
10165TIP3   OH254689   2.323   6.287   1.258  0.5725 -0.5123  0.0722
10165TIP3    H154690   2.253   6.246   1.208  0.5348 -0.5802  0.1804
10165TIP3    H254691   2.331   6.374   1.220  0.1701 -0.3688  0.3090
10166TIP3   OH254692   3.345   3.282   1.764 -0.0181  0.0554 -0.3754
10166TIP3    H154693   3.337   3.375   1.785  0.1014  0.1737 -0.8498
10166TIP3    H254694   3.424   3.254   1.811 -0.5972 -0.0447  0.5746
10167TIP3   OH254695   0.652   2.551   0.660 -0.5264  0.0715 -0.3068
10167TIP3    H154696   0.633   2.481   0.723 -0.3442 -0.2036 -0.5557
10167TIP3    H254697   0.585   2.542   0.593 -2.0183  1.6547  0.8587
10168TIP3   OH254698   0.984   3.909   2.113 -0.0645  0.1826 -0.3574
10168TIP3    H154699   1.041   3.842   2.075 -1.2792  0.5039 -2.9732
10168TIP3    H254700   0.951   3.870   2.193 -0.8405 -2.4878 -1.8651
10169TIP3   OH254701   3.501   7.258   0.848  0.2262  0.0712  0.0318
10169TIP3    H154702   3.452   7.177   0.833  1.8040 -0.6484 -1.6383
10169TIP3    H254703   3.443   7.328   0.817 -1.0063 -0.4178  1.1521
10170TIP3   OH254704   0.465   6.659   1.847  0.0431 -0.8034 -0.0239
10170TIP3    H154705   0.395   6.595   1.838 -0.4466 -0.3704  0.5354
10170TIP3    H254706   0.497   6.647   1.937  1.9990 -2.2836 -0.8651
10171TIP3   OH254707   5.124   1.022   0.622  0.1658  0.3220 -0.5121
10171TIP3    H154708   5.034   1.018   0.655  0.6656  0.0507  0.9030
10171TIP3    H254709   5.125   0.962   0.547 -0.9734  0.8139 -0.9499
10172TIP3   OH254710   4.850   5.452   2.887 -0.0435  0.0822 -0.1340
10172TIP3    H154711   4.822   5.407   2.807  1.0233 -1.7203  0.4374
10172TIP3    H254712   4.769   5.490   2.923 -0.9510 -1.1159 -0.8403
10173TIP3   OH254713   2.630   6.026   1.623 -0.4774 -0.2538 -0.0283
10173TIP3    H154714   2.566   6.025   1.695 -1.2472 -0.7362 -0.6937
10173TIP3    H254715   2.582   6.064   1.549  0.9837  2.4290  0.2716
10174TIP3   OH254716   2.832   0.145   2.541 -0.7404 -0.3951 -0.1694
10174TIP3    H154717   2.789   0.170   2.623 -3.2653  0.6522 -1.7375
10174TIP3    H254718   2.925   0.138   2.565 -1.3855 -0.1938  2.7787
10175TIP3   OH254719   3.097   7.196   0.944 -0.0468 -0.0209 -0.6085
10175TIP3    H154720   3.035   7.126   0.964  1.0952 -0.8987 -0.0023
10175TIP3    H254721   3.069   7.270   0.996 -1.2136 -0.0445 -1.1742
10176TIP3   OH254722   3.303   3.910   2.976 -0.0554 -0.4137 -0.3104
10176TIP3    H154723   3.218   3.953   2.965  1.3811  3.0194  0.4397
10176TIP3    H254724   3.354   3.973   3.027  2.2327 -3.3619  1.3370
10177TIP3   OH254725   6.723   3.675   1.602  0.8209  1.0985  0.9234
10177TIP3    H154726   6.678   3.662   1.685 -0.8912 -0.9627 -0.2400
10177TIP3    H254727   6.698   3.764   1.574  0.2542  1.2588  1.9094
10178TIP3   OH254728   2.861   0.124   2.004 -0.6464 -0.2586  0.1030
10178TIP3    H154729   2.895   0.084   1.924  0.2912 -1.6751  1.1520
10178TIP3    H254730   2.905   0.077   2.075 -2.0862  0.3460  1.4726
10179TIP3   OH254731   3.953   7.673   0.563  0.3094 -0.0634  0.3993
10179TIP3    H154732   3.899   7.612   0.613 -0.8212  0.6502  0.0896
10179TIP3    H254733   3.976   7.742   0.625 -0.5052  0.4594  0.1384
10180TIP3   OH254734   2.685   0.361   1.988 -0.4128  0.3088 -0.5056
10180TIP3    H154735   2.743   0.295   2.027 -1.9043 -0.4071  0.6189
10180TIP3    H254736   2.629   0.312   1.929 -3.1592 -0.0173  2.1084
10181TIP3   OH254737   2.452   2.175   0.689  0.1283  0.7356 -0.4559
10181TIP3    H154738   2.374   2.178   0.634 -0.1831 -0.4629 -0.1170
10181TIP3    H254739   2.459   2.262   0.727  1.6056  2.3828 -4.0390
10182TIP3   OH254740   0.169   0.139   1.423 -0.3607 -0.1120 -0.3939
10182TIP3    H154741   0.197   0.168   1.336  0.2322  0.3571 -0.0586
10182TIP3    H254742   0.175   0.218   1.477  1.6675 -0.8795  0.6404
10183TIP3   OH254743   0.256   3.270   0.369  0.1429  0.0016 -0.2550
10183TIP3    H154744   0.194   3.270   0.442 -1.1340 -2.2594 -1.2400
10183TIP3    H254745   0.202   3.275   0.291  0.9536 -3.1310 -1.1960
10184TIP3   OH254746   5.086   2.191   1.031 -0.2723 -0.0352  0.0181
10184TIP3    H154747   5.076   2.212   0.938 -0.5116  1.2194  0.3082
10184TIP3    H254748   5.154   2.251   1.061  0.0458 -0.6704  0.5930
10185TIP3   OH254749   4.193   1.550   1.578  0.3127  0.8057  0.0069
10185TIP3    H154750   4.176   1.521   1.488  1.2162 -0.9099  0.3550
10185TIP3    H254751   4.218   1.471   1.625  3.6769  2.1455  0.8323
10186TIP3   OH254752   4.718   2.364   1.908  0.1161  0.0391  0.2338
10186TIP3    H154753   4.768   2.359   1.990 -0.4990 -0.1810  0.6007
10186TIP3    H254754   4.628   2.347   1.934  0.2275 -2.8257 -0.8257
10187TIP3   OH254755   7.672   6.178   2.149 -0.1191 -0.1346  0.2954
10187TIP3    H154756   7.625   6.096   2.136  0.4236 -0.4169  0.1047
10187TIP3    H254757   7.681   6.187   2.244  0.4105 -0.6321  0.2942
10188TIP3   OH254758   0.683   1.374   3.673  0.3890  0.6547 -0.1432
10188TIP3    H154759   0.664   1.299   3.730  1.1160 -0.2317 -1.0307
10188TIP3    H254760   0.753   1.421   3.718  0.7247  0.1497 -0.1269
10189TIP3   OH254761   5.560   3.008   1.435 -0.1302  0.0042  0.3057
10189TIP3    H154762   5.647   2.993   1.472  0.4789  1.8159 -0.2788
10189TIP3    H254763   5.564   3.096   1.398 -1.1776 -1.0481 -2.6681
10190TIP3   OH254764   3.345   0.963   2.154  0.2479 -0.0827 -0.4729
10190TIP3    H154765   3.410   0.892   2.153 -0.1939 -0.4930 -0.5803
10190TIP3    H254766   3.270   0.927   2.107 -1.0384 -0.5565  1.7885
10191TIP3   OH254767   1.667   4.026   0.979 -0.0300  0.1760  0.0363
10191TIP3    H154768   1.606   4.004   1.049 -1.5400 -2.8026 -1.9945
10191TIP3    H254769   1.732   3.955   0.980  0.9976  1.0780 -0.4351
10192TIP3   OH254770   1.659   6.253   1.001 -0.0981 -0.2558  0.3690
10192TIP3    H154771   1.612   6.170   1.005  0.5327 -0.7687 -1.5844
10192TIP3    H254772   1.604   6.309   0.946  0.9646 -0.4901 -0.9965
10193TIP3   OH254773   3.065   5.213   2.780 -0.2536 -0.3696 -0.5236
10193TIP3    H154774   3.025   5.156   2.714 -0.1930 -0.7919 -0.1995
10193TIP3    H254775   3.000   5.219   2.849  0.4600 -1.5753  0.3023
10194TIP3   OH254776   1.731   6.632   2.974 -0.1500  0.2060  0.1401
10194TIP3    H154777   1.786   6.657   3.047 -0.3314  0.3063  0.2434
10194TIP3    H254778   1.701   6.544   2.995 -0.2997  0.2819  0.2444
10195TIP3   OH254779   3.350   3.238   1.293 -0.1080  0.3670  0.7613
10195TIP3    H154780   3.373   3.149   1.264 -0.4466 -1.1192  4.4669
10195TIP3    H254781   3.357   3.291   1.214  0.9046 -2.7800 -1.4964
10196TIP3   OH254782   4.376   6.706   2.602  0.4345  0.7897  0.6677
10196TIP3    H154783   4.337   6.790   2.577 -1.4780  0.5632  2.5767
10196TIP3    H254784   4.336   6.685   2.687 -0.1833 -2.6726 -0.3106
10197TIP3   OH254785   7.643   5.866   2.267 -0.2656  0.6370  0.1678
10197TIP3    H154786   7.608   5.831   2.185 -0.1418  0.2972  0.2546
10197TIP3    H254787   7.576   5.847   2.332  1.0859 -2.3884  0.8625
10198TIP3   OH254788   0.899   0.192   3.241  0.4571 -0.2693  0.1954
10198TIP3    H154789   0.826   0.245   3.273  0.0804 -0.4247 -0.4043
10198TIP3    H254790   0.896   0.112   3.293  1.2333  0.4189  1.3437
10199TIP3   OH254791   6.470   6.296   1.475  0.0539 -0.4029 -0.2750
10199TIP3    H154792   6.471   6.249   1.392 -0.9992 -3.2581  1.2097
10199TIP3    H254793   6.377   6.304   1.496  0.3115  0.2754  0.6481
10200TIP3   OH254794   2.521   4.943   2.634  0.0271  0.1912  0.7871
10200TIP3    H154795   2.477   5.027   2.619 -1.3786 -0.9100 -1.9556
10200TIP3    H254796   2.476   4.907   2.711 -1.9930  0.3898 -0.2197
10201TIP3   OH254797   5.680   6.168   1.084 -0.1893  0.1879 -0.1048
10201TIP3    H154798   5.729   6.126   1.154 -0.4696  1.3085  0.7906
10201TIP3    H254799   5.632   6.239   1.127 -0.7085  0.6323 -1.3599
10202TIP3   OH254800   3.952   0.774   1.818  0.0835 -0.5997  0.0763
10202TIP3    H154801   3.880   0.717   1.845 -0.1590 -0.9838 -1.3089
10202TIP3    H254802   3.908   0.851   1.781  0.4025 -0.0815  0.7721
10203TIP3   OH254803   1.838   0.295   0.841  0.4350 -0.2419  0.8962
10203TIP3    H154804   1.919   0.245   0.831  1.5921  1.8443 -0.9844
10203TIP3    H254805   1.773   0.246   0.791  1.0515 -0.8268  0.6535
10204TIP3   OH254806   6.272   2.238   1.061  0.2943 -0.1325 -0.1954
10204TIP3    H154807   6.264   2.175   0.989 -0.4684 -0.9429  0.5651
10204TIP3    H254808   6.235   2.192   1.137  0.8123  0.8053  0.6497
10205TIP3   OH254809   0.586   5.230   2.832 -0.3980 -0.1812  0.7391
10205TIP3    H154810   0.528   5.183   2.771 -3.3079  3.9036 -0.0857
10205TIP3    H254811   0.629   5.296   2.778  2.8747 -1.1192  1.9568
10206TIP3   OH254812   6.370   5.438   1.739  0.2904  0.2308 -0.5316
10206TIP3    H154813   6.298   5.425   1.678  0.2210  2.1649 -0.9322
10206TIP3    H254814   6.416   5.515   1.706  1.7114 -0.1201  0.5154
10207TIP3   OH254815   1.586   7.198   1.791 -0.5348 -0.4414  0.0590
10207TIP3    H154816   1.557   7.240   1.710  0.3174 -0.5198 -0.3034
10207TIP3    H254817   1.670   7.158   1.768 -0.8983 -1.5851  0.6337
10208TIP3   OH254818   7.356   1.087   1.791 -0.2778  0.4507  0.2949
10208TIP3    H154819   7.320   1.133   1.714  3.0891 -0.9967 -2.3976
10208TIP3    H254820   7.447   1.116   1.796  0.3633 -1.6101  2.0446
10209TIP3   OH254821   0.504   7.301   2.356  0.0525 -0.1667  0.4146
10209TIP3    H154822   0.411   7.318   2.366 -0.0704 -0.0346 -0.8032
10209TIP3    H254823   0.509   7.207   2.336  0.0062  0.1485 -1.2404
10210TIP3   OH254824   6.977   0.576   1.658  0.3006  0.0792  0.5354
10210TIP3    H154825   6.913   0.515   1.621  0.1321  1.1151 -1.0118
10210TIP3    H254826   7.052   0.521   1.681 -0.0152 -0.7880 -0.4059
10211TIP3   OH254827   3.568   6.140   0.760  0.1154  0.1088 -0.3237
10211TIP3    H154828   3.653   6.142   0.716  0.9552 -0.7082  1.1849
10211TIP3    H254829   3.537   6.050   0.746  1.1790 -0.7109  2.0659
10212TIP3   OH254830   1.670   1.818   3.389 -0.1595  0.2218 -0.0655
10212TIP3    H154831   1.722   1.744   3.358 -0.3173  0.1962 -0.2730
10212TIP3    H254832   1.676   1.814   3.484  1.6615  1.2559 -0.1027
10213TIP3   OH254833   2.632   7.241   2.981  0.4502  0.1163  0.6802
10213TIP3    H154834   2.669   7.315   2.933  1.3792 -0.7578  0.0070
10213TIP3    H254835   2.589   7.280   3.056 -1.3394  1.5728 -0.9933
10214TIP3   OH254836   3.779   3.097   2.098  0.5675  0.2099 -0.4091
10214TIP3    H154837   3.799   3.015   2.051 -0.2381  0.0207 -0.4304
10214TIP3    H254838   3.865   3.133   2.119  0.9450  0.0739 -1.6347
10215TIP3   OH254839   3.982   2.746   1.405  0.1281 -0.1678  0.0324
10215TIP3    H154840   3.936   2.775   1.485 -0.2873  1.0018 -0.5976
10215TIP3    H254841   3.959   2.654   1.396  1.2256 -0.6802  1.9627
10216TIP3   OH254842   1.024   6.396   1.460 -0.1687  0.4878 -0.5352
10216TIP3    H154843   1.116   6.406   1.433 -0.3381  2.3554 -0.5938
10216TIP3    H254844   0.983   6.345   1.391  1.0226 -1.3123  0.0096
10217TIP3   OH254845   6.218   3.549   1.370 -0.2260 -0.0560 -0.9674
10217TIP3    H154846   6.246   3.546   1.278  2.0114 -0.7709 -0.3167
10217TIP3    H254847   6.257   3.471   1.409 -1.2990  0.1383  0.5800
10218TIP3   OH254848   0.407   1.002   1.494 -0.2728 -0.0716 -0.6272
10218TIP3    H154849   0.335   1.054   1.460  0.1607 -0.9989 -3.1395
10218TIP3    H254850   0.437   1.050   1.572 -0.2831  3.1165 -2.4406
10219TIP3   OH254851   0.524   5.163   2.089  0.0094  0.1073  0.4417
10219TIP3    H154852   0.484   5.083   2.055  0.0862  0.9347 -1.7968
10219TIP3    H254853   0.458   5.231   2.073  0.2989  0.6539  1.4760
10220TIP3   OH254854   6.755   2.101   1.782  0.1236 -0.4566  0.0261
10220TIP3    H154855   6.815   2.173   1.803  2.8163 -2.0185 -1.6922
10220TIP3    H254856   6.765   2.089   1.688 -1.7820 -1.8112 -0.0508
10221TIP3   OH254857   7.038   1.027   2.951  0.3496 -0.1056 -0.1200
10221TIP3    H154858   7.014   1.116   2.927  1.0106 -0.7211 -3.6465
10221TIP3    H254859   7.132   1.022   2.937  0.6496 -0.8776  1.9090
10222TIP3   OH254860   5.701   5.048   1.412  0.2482  0.4827  0.6088
10222TIP3    H154861   5.751   5.054   1.330  0.1482  0.9465  0.5828
10222TIP3    H254862   5.611   5.034   1.384  0.2691  0.2654  0.6477
10223TIP3   OH254863   2.113   6.201   3.510 -0.1808 -0.1661  0.8660
10223TIP3    H154864   2.114   6.139   3.437  0.7329 -0.0932  0.8072
10223TIP3    H254865   2.044   6.169   3.568 -1.5429  0.2710 -0.4448
10224TIP3   OH254866   5.991   4.860   1.508 -0.3707 -0.3615  0.0966
10224TIP3    H154867   5.982   4.955   1.498  1.8243 -0.2327 -1.4337
10224TIP3    H254868   6.006   4.828   1.419 -1.7817 -2.2824  0.4907
10225TIP3   OH254869   0.592   0.792   1.509 -0.2254 -0.0582 -0.8380
10225TIP3    H154870   0.556   0.746   1.584 -0.4229 -0.6543 -1.2915
10225TIP3    H254871   0.525   0.856   1.486 -0.4277 -0.2792 -0.8690
10226TIP3   OH254872   5.050   2.208   1.499 -0.2010 -0.0663  0.2638
10226TIP3    H154873   5.027   2.296   1.469  1.1656  0.1225 -0.2945
10226TIP3    H254874   4.970   2.157   1.488 -0.1611  0.3179 -2.4717
10227TIP3   OH254875   2.027   2.563   2.091  0.1176 -0.3330 -0.1179
10227TIP3    H154876   1.949   2.609   2.059 -0.2786 -0.8908  0.0302
10227TIP3    H254877   2.031   2.584   2.184  0.2734 -0.1185 -0.1739
10228TIP3   OH254878   1.042   0.510   1.575  0.3402  0.7454 -0.0149
10228TIP3    H154879   0.958   0.549   1.550 -0.7290 -0.8788  0.7732
10228TIP3    H254880   1.020   0.455   1.650  2.2663  0.7847  0.6211
10229TIP3   OH254881   3.605   1.237   0.871  0.2409 -0.1718 -0.3407
10229TIP3    H154882   3.512   1.233   0.892 -0.0396 -4.4342 -1.5183
10229TIP3    H254883   3.611   1.300   0.799 -1.7678  0.0617 -0.3500
10230TIP3   OH254884   3.676   2.353   1.850  0.0108 -0.0918 -0.6517
10230TIP3    H154885   3.689   2.259   1.860 -1.0514 -0.2952 -1.0015
10230TIP3    H254886   3.679   2.367   1.755 -2.6719 -0.2696 -0.8447
10231TIP3   OH254887   0.647   5.463   0.751  0.0220 -0.1631  0.1121
10231TIP3    H154888   0.723   5.410   0.777 -0.9306 -0.8930  1.5447
10231TIP3    H254889   0.585   5.451   0.823 -0.1974  3.0044  0.5876
10232TIP3   OH254890   5.270   0.108   2.191 -0.0479 -0.1990  0.5802
10232TIP3    H154891   5.215   0.149   2.258  1.0077  0.9628  0.7635
10232TIP3    H254892   5.260   0.165   2.114 -0.0128 -0.6395  0.2442
10233TIP3   OH254893   2.831   1.770   0.367  0.0135 -0.5217  0.6611
10233TIP3    H154894   2.871   1.835   0.310  0.0687 -0.8329  0.3388
10233TIP3    H254895   2.890   1.764   0.442  0.4545 -0.8094  0.2945
10234TIP3   OH254896   4.572   5.975   1.189  0.1730 -0.1405  0.2459
10234TIP3    H154897   4.567   5.890   1.234 -0.6970  0.4262  1.2398
10234TIP3    H254898   4.483   5.991   1.157 -0.2985  1.5171  2.1993
10235TIP3   OH254899   7.086   5.769   3.199  0.5539  0.5442  0.6463
10235TIP3    H154900   7.177   5.772   3.227  0.9895  0.0451 -0.6027
10235TIP3    H254901   7.089   5.725   3.113 -0.9379 -0.1446  0.9043
10236TIP3   OH254902   2.218   2.272   0.884  0.4904 -0.0840 -0.4249
10236TIP3    H154903   2.234   2.204   0.950  0.8850  0.8936  0.4994
10236TIP3    H254904   2.190   2.223   0.806  1.5113 -1.3604 -0.0219
10237TIP3   OH254905   4.723   0.624   0.876 -0.1832  0.1285 -0.1895
10237TIP3    H154906   4.719   0.538   0.835  2.5768 -0.6787  0.9804
10237TIP3    H254907   4.676   0.613   0.959 -1.6105  0.3932 -0.9328
10238TIP3   OH254908   4.477   7.095   1.230 -0.6389 -0.1283 -0.1735
10238TIP3    H154909   4.499   7.042   1.306  0.5072 -0.2483 -0.5748
10238TIP3    H254910   4.393   7.061   1.201 -0.0795 -1.5118 -0.2259
10239TIP3   OH254911   2.607   6.888   2.391  0.0229 -0.3172  0.0551
10239TIP3    H154912   2.611   6.806   2.342  2.2872 -0.4100  0.3249
10239TIP3    H254913   2.637   6.954   2.329  2.5128 -0.3784  1.1053
10240TIP3   OH254914   2.005   3.307   2.589  0.0651 -0.3722  0.2357
10240TIP3    H154915   2.012   3.393   2.547  0.4021  0.3549  1.7282
10240TIP3    H254916   1.917   3.276   2.565  0.0471  0.2555 -0.5443
10241TIP3   OH254917   5.864   4.301   1.707 -0.2220 -0.2552  0.5011
10241TIP3    H154918   5.771   4.280   1.718 -0.0947 -1.2041 -0.0742
10241TIP3    H254919   5.877   4.299   1.612  0.3184  0.1796  0.5649
10242TIP3   OH254920   1.808   2.022   2.948  0.0775  0.2843 -0.2058
10242TIP3    H154921   1.748   2.087   2.985 -0.8490 -0.4924 -0.2911
10242TIP3    H254922   1.796   1.944   3.003  2.4463  0.6739  0.9848
10243TIP3   OH254923   1.738   6.219   2.120 -0.4657 -0.0342  0.1379
10243TIP3    H154924   1.743   6.124   2.106 -1.3058  0.0451 -0.8459
10243TIP3    H254925   1.800   6.236   2.190 -0.5383 -1.3582  0.5526
10244TIP3   OH254926   2.785   1.005   2.354  0.5504 -0.5298 -0.2472
10244TIP3    H154927   2.723   0.933   2.364 -1.2406  0.5589 -2.5609
10244TIP3    H254928   2.830   0.987   2.271 -0.3052  1.2292 -1.1437
10245TIP3   OH254929   7.256   5.879   0.617 -0.3836  0.5049  0.1080
10245TIP3    H154930   7.271   5.902   0.525 -1.7639  0.6441 -0.1043
10245TIP3    H254931   7.167   5.844   0.619 -0.1065 -0.2047  1.2787
10246TIP3   OH254932   6.813   4.819   1.697 -0.5445 -0.4425  0.4117
10246TIP3    H154933   6.803   4.836   1.603  0.5212 -1.9010 -0.0090
10246TIP3    H254934   6.907   4.829   1.713 -0.5596 -1.2995  1.0776
10247TIP3   OH254935   5.870   0.824   1.246 -0.0088  0.0122 -0.1409
10247TIP3    H154936   5.950   0.772   1.250  0.7589  1.0758 -1.1779
10247TIP3    H254937   5.801   0.760   1.231  1.0335 -0.6792 -2.4829
10248TIP3   OH254938   3.181   2.763   2.307 -0.4280  0.4474  0.2391
10248TIP3    H154939   3.263   2.780   2.355 -0.9579 -0.9129  1.7021
10248TIP3    H254940   3.201   2.689   2.250 -0.8546 -0.4891  1.2710
10249TIP3   OH254941   0.878   6.716   1.617 -0.1465 -0.1626 -0.4060
10249TIP3    H154942   0.876   6.757   1.530  0.6274 -1.7300 -1.1957
10249TIP3    H254943   0.966   6.679   1.624  0.2437  1.0183  1.5968
10250TIP3   OH254944   6.449   3.596   0.529 -0.2448 -0.1192  0.2015
10250TIP3    H154945   6.521   3.536   0.547 -0.0822  0.3240  1.0863
10250TIP3    H254946   6.371   3.541   0.527  0.0655 -0.5465 -0.3736
10251TIP3   OH254947   1.755   5.025   2.965  0.1008 -0.0964  0.0064
10251TIP3    H154948   1.683   4.991   2.911  0.2263 -0.3897  0.0253
10251TIP3    H254949   1.749   4.976   3.047 -0.3575  0.6518  0.4357
10252TIP3   OH254950   5.525   4.385   0.528 -0.5127 -0.2138  0.2481
10252TIP3    H154951   5.582   4.416   0.458 -1.1843  0.6262  0.0689
10252TIP3    H254952   5.567   4.304   0.558  2.3467  1.6903  1.9489
10253TIP3   OH254953   0.549   6.025   2.655  0.5965  0.1919  0.0911
10253TIP3    H154954   0.515   6.076   2.729 -0.6100 -0.9916  0.3783
10253TIP3    H254955   0.616   5.969   2.694  2.4787  2.0025 -0.3519
10254TIP3   OH254956   0.721   2.648   2.613  0.1860 -0.0958 -0.0346
10254TIP3    H154957   0.637   2.633   2.571  0.9508  0.0265 -1.6594
10254TIP3    H254958   0.705   2.629   2.706 -1.7158  0.3174 -0.2440
10255TIP3   OH254959   2.921   5.181   1.052  0.0214 -0.0630 -0.6495
10255TIP3    H154960   2.990   5.131   1.007  1.5636  2.4555 -1.2877
10255TIP3    H254961   2.963   5.214   1.131 -1.3473 -0.7865  0.4025
10256TIP3   OH254962   0.963   5.275   2.449 -0.1184 -0.3671 -0.8492
10256TIP3    H154963   0.889   5.329   2.421 -0.4788 -1.4142 -1.9957
10256TIP3    H254964   1.025   5.338   2.486 -1.7094  0.5103  0.5161
10257TIP3   OH254965   5.290   5.116   1.059 -0.1411  0.3774 -0.3037
10257TIP3    H154966   5.279   5.081   0.971 -1.5582 -1.8053  0.6572
10257TIP3    H254967   5.225   5.185   1.067  0.6288  1.2372 -1.2393
10258TIP3   OH254968   1.381   5.959   3.126 -0.4315 -0.0514  0.1970
10258TIP3    H154969   1.413   5.910   3.050 -1.9624 -0.5129 -0.1939
10258TIP3    H254970   1.348   5.891   3.186 -1.6955  0.4324  0.0746
10259TIP3   OH254971   7.180   7.210   1.423  0.0375  0.5504 -0.2006
10259TIP3    H154972   7.232   7.223   1.344 -1.3205  0.9360 -1.0700
10259TIP3    H254973   7.236   7.158   1.480  1.4776  1.1959 -0.9625
10260TIP3   OH254974   0.713   4.800   0.788 -0.2338 -0.0688 -0.6003
10260TIP3    H154975   0.769   4.874   0.766 -1.8431  0.9982 -1.2604
10260TIP3    H254976   0.678   4.771   0.704  1.1269 -2.2689 -0.4886
10261TIP3   OH254977   0.721   4.495   2.860  0.5888 -0.2933  0.8743
10261TIP3    H154978   0.646   4.545   2.830  1.3276  0.3122  0.0048
10261TIP3    H254979   0.715   4.412   2.814  0.4247 -0.2743  0.8601
10262TIP3   OH254980   3.007   6.126   1.259 -0.4765 -0.2082 -0.0810
10262TIP3    H154981   3.031   6.057   1.197 -0.0336 -0.5773  0.5008
10262TIP3    H254982   3.087   6.176   1.271 -0.2912 -0.7217  0.9361
10263TIP3   OH254983   1.122   7.597   1.701 -0.2300  0.2175  0.2644
10263TIP3    H154984   1.037   7.555   1.713  0.1116 -0.3633  0.7126
10263TIP3    H254985   1.175   7.532   1.654  0.0376  0.4809  0.1970
10264TIP3   OH254986   0.117   2.451   0.931  0.1350 -0.1755  0.2632
10264TIP3    H154987   0.166   2.527   0.964  0.2854 -0.5063  0.8154
10264TIP3    H254988   0.159   2.376   0.973 -0.3547 -0.5235  0.1351
10265TIP3   OH254989   1.062   5.926   0.902 -0.3420  0.3549  0.0149
10265TIP3    H154990   1.018   5.977   0.835  0.3339  3.4713  1.7427
10265TIP3    H254991   0.993   5.872   0.941 -1.1540  0.1001 -1.7135
10266TIP3   OH254992   2.880   7.197   2.786  0.1823 -0.1200  0.5233
10266TIP3    H154993   2.790   7.166   2.797 -0.3672 -0.3104 -3.0887
10266TIP3    H254994   2.872   7.292   2.777  0.2542 -0.1811 -0.2551
10267TIP3   OH254995   4.300   3.245   1.197 -0.1169  0.2776  0.5676
10267TIP3    H154996   4.385   3.287   1.183 -0.3326  0.8382  0.9241
10267TIP3    H254997   4.238   3.317   1.206 -0.5310 -0.1195  0.9452
10268TIP3   OH254998   6.017   2.756   2.498  0.1751 -0.1176  0.5204
10268TIP3    H154999   6.099   2.708   2.508  1.6269  1.4639 -2.6300
10268TIP3    H255000   6.042   2.848   2.500 -1.5778  0.4152 -0.1034
10269TIP3   OH255001   6.687   0.741   3.170  0.2974 -0.4826  0.5197
10269TIP3    H155002   6.733   0.688   3.235  0.2539  1.6516  2.4347
10269TIP3    H255003   6.596   0.742   3.199  0.2040  0.2076  0.2304
10270TIP3   OH255004   0.640   2.582   1.829 -0.3517  0.4814  0.7311
10270TIP3    H155005   0.727   2.587   1.869 -0.3216  0.1493  0.7082
10270TIP3    H255006   0.645   2.507   1.770  0.0860  1.8191 -1.0446
10271TIP3   OH255007   4.082   4.908   2.406 -0.0132 -0.2258  0.0961
10271TIP3    H155008   4.127   4.859   2.475  1.0776  2.3006  1.3488
10271TIP3    H255009   4.046   4.842   2.348  2.3130 -2.4557  1.0042
10272TIP3   OH255010   2.740   4.630   3.161  0.0562 -0.0241  0.1908
10272TIP3    H155011   2.695   4.552   3.193 -0.0117  0.6015  1.6790
10272TIP3    H255012   2.833   4.609   3.168  0.0334 -0.1513  0.1196
10273TIP3   OH255013   2.696   6.357   0.820 -0.0667 -0.4951  0.0689
10273TIP3    H155014   2.605   6.337   0.800  0.0046 -2.8483  1.6910
10273TIP3    H255015   2.733   6.388   0.738 -1.9570 -0.9618 -0.9986
10274TIP3   OH255016   3.239   5.392   2.541 -0.3168 -0.0694 -0.3624
10274TIP3    H155017   3.149   5.380   2.514 -0.3339  1.1719 -0.9274
10274TIP3    H255018   3.255   5.322   2.604 -1.0807 -1.4216 -1.6281
10275TIP3   OH255019   5.851   5.751   2.218 -0.0250  0.0486 -0.1113
10275TIP3    H155020   5.869   5.762   2.311 -1.1674  0.8248  0.0271
10275TIP3    H255021   5.775   5.806   2.201  0.0747 -0.2020 -1.4753
10276TIP3   OH255022   1.917   4.417   1.424  0.3364  0.5301 -0.0508
10276TIP3    H155023   1.965   4.499   1.432 -0.4991  1.2530 -1.8693
10276TIP3    H255024   1.833   4.434   1.468  0.5338  0.3041  0.4233
10277TIP3   OH255025   3.655   2.156   2.925  0.0674  0.3241 -0.0702
10277TIP3    H155026   3.727   2.209   2.958  1.1059 -0.3758 -1.1577
10277TIP3    H255027   3.697   2.080   2.885 -1.0952  0.9591 -2.7427
10278TIP3   OH255028   5.506   7.212   1.128  0.5646  0.0597 -0.2406
10278TIP3    H155029   5.506   7.127   1.085 -0.1007  0.3222 -0.7782
10278TIP3    H255030   5.416   7.244   1.119  0.1698 -0.2135  2.0565
10279TIP3   OH255031   1.163   4.892   1.966  0.3540  0.8489  0.0399
10279TIP3    H155032   1.121   4.821   1.918 -1.0683  1.7035 -0.0581
10279TIP3    H255033   1.090   4.942   2.003  1.3621  1.2688  1.5540
10280TIP3   OH255034   3.802   3.603   1.421 -0.0292 -0.0607  0.7069
10280TIP3    H155035   3.794   3.535   1.488 -1.5240  1.2385  1.9275
10280TIP3    H255036   3.721   3.597   1.371  1.6632 -1.9942 -2.0914
10281TIP3   OH255037   1.673   1.060   1.602  0.1832  0.1223  0.2953
10281TIP3    H155038   1.617   0.996   1.557 -0.9388  0.0196  1.7342
10281TIP3    H255039   1.761   1.044   1.568 -0.7041  0.6946 -2.5062
10282TIP3   OH255040   5.875   3.756   0.799  0.7760  0.3965 -0.1023
10282TIP3    H155041   5.841   3.803   0.875  0.8882 -1.1307  0.9343
10282TIP3    H255042   5.801   3.704   0.768  0.7861  0.8623 -0.9357
10283TIP3   OH255043   4.471   4.368   3.417 -0.1244  0.0425 -0.1601
10283TIP3    H155044   4.508   4.317   3.489  1.2783 -0.5950 -1.2730
10283TIP3    H255045   4.547   4.411   3.376 -0.9104  0.5851 -1.0984
10284TIP3   OH255046   2.132   0.407   2.748  0.1906  0.0857  0.2265
10284TIP3    H155047   2.105   0.355   2.824  0.3372 -2.3156 -1.2394
10284TIP3    H255048   2.079   0.373   2.676  0.3727  1.9740 -0.8758
10285TIP3   OH255049   3.758   5.609   2.669 -0.7631  0.1847 -0.0055
10285TIP3    H155050   3.805   5.685   2.703  0.9544 -0.7556 -0.1833
10285TIP3    H255051   3.817   5.535   2.684 -1.9327 -0.9671 -0.8206
10286TIP3   OH255052   1.177   2.759   1.727 -0.1213  0.2711  0.8832
10286TIP3    H155053   1.169   2.664   1.721 -2.6002  0.5338 -1.8729
10286TIP3    H255054   1.089   2.790   1.745  0.6329  2.1106  1.6833
10287TIP3   OH255055   1.094   4.819   1.144 -0.2121  0.3580 -0.0975
10287TIP3    H155056   1.045   4.861   1.214  1.0147 -1.6770  2.1355
10287TIP3    H255057   1.185   4.821   1.174  0.1109 -2.2439 -0.6543
10288TIP3   OH255058   1.896   1.765   2.587  0.3566  0.2465  0.1326
10288TIP3    H155059   1.884   1.736   2.497  0.9474 -2.4356  0.8184
10288TIP3    H255060   1.991   1.777   2.596  0.1686  2.3452 -0.0345
10289TIP3   OH255061   2.092   1.261   1.329 -0.4425 -0.2095 -0.0468
10289TIP3    H155062   2.073   1.205   1.254 -0.6002 -1.1755  0.6914
10289TIP3    H255063   2.138   1.204   1.390  0.5945  0.8249  0.1863
10290TIP3   OH255064   1.034   1.683   2.543 -0.2255 -0.2506 -0.1860
10290TIP3    H155065   1.089   1.762   2.538 -1.6340  0.7179 -3.3037
10290TIP3    H255066   1.096   1.610   2.543  1.1169  0.8320 -1.0291
10291TIP3   OH255067   2.312   0.828   2.613  0.6392  0.5878  0.1504
10291TIP3    H155068   2.406   0.833   2.597  0.5190  1.3327 -0.4047
10291TIP3    H255069   2.273   0.827   2.526  0.1972 -1.8717  0.3217
10292TIP3   OH255070   2.611   1.188   2.574 -0.0549 -0.5568  0.3087
10292TIP3    H155071   2.562   1.135   2.511  1.6395  0.4955 -1.9951
10292TIP3    H255072   2.636   1.125   2.642 -1.2582 -1.9074 -0.4234
10293TIP3   OH255073   5.372   2.417   2.109  0.4411  0.1065  0.0348
10293TIP3    H155074   5.283   2.403   2.144  0.2964  0.7632 -0.0622
10293TIP3    H255075   5.429   2.408   2.186  0.1156  1.6311  0.4907
10294TIP3   OH255076   4.461   2.227   1.927  0.2642 -0.0831 -0.4490
10294TIP3    H155077   4.467   2.157   1.992 -0.7281 -0.2067 -0.4821
10294TIP3    H255078   4.431   2.184   1.847  0.6625  0.2093 -0.7617
10295TIP3   OH255079   6.126   2.074   1.226 -0.1722 -0.5229 -0.0942
10295TIP3    H155080   6.085   1.989   1.243 -0.4912 -0.2432  0.5792
10295TIP3    H255081   6.081   2.135   1.286  1.4142 -0.2567  0.8911
10296TIP3   OH255082   5.481   2.651   2.022  0.2718  0.2986 -0.1372
10296TIP3    H155083   5.488   2.640   1.927 -0.5783 -1.3657 -0.0468
10296TIP3    H255084   5.481   2.561   2.056  0.9221  0.8744  1.4726
10297TIP3   OH255085   7.168   0.403   1.376 -0.8943  0.4652  0.2711
10297TIP3    H155086   7.210   0.384   1.291  1.0180  1.3608  0.9593
10297TIP3    H255087   7.174   0.321   1.424  0.4061  0.6568  0.4682
10298TIP3   OH255088   3.119   0.341   2.296  0.2498 -0.1589  0.4990
10298TIP3    H155089   3.150   0.370   2.210  1.1693 -0.0307  0.8563
10298TIP3    H255090   3.114   0.245   2.288  0.0567 -0.1243  0.2122
10299TIP3   OH255091   5.354   4.889   1.778 -0.0904 -0.0167 -0.5921
10299TIP3    H155092   5.369   4.941   1.857  1.2097 -2.0521  0.5989
10299TIP3    H255093   5.428   4.908   1.721 -0.7345  1.0184 -1.1147
10300TIP3   OH255094   0.777   3.391   1.732 -0.1462  0.8021 -0.0250
10300TIP3    H155095   0.856   3.441   1.752  1.2369 -1.0541 -0.5543
10300TIP3    H255096   0.763   3.336   1.809 -0.3850  0.4628 -0.3066
10301TIP3   OH255097   6.472   0.197   1.738 -0.2118 -0.2381 -0.2945
10301TIP3    H155098   6.554   0.171   1.780 -1.2271  0.2237  2.0857
10301TIP3    H255099   6.498   0.269   1.679  1.6831 -2.7093 -2.7723
10302TIP3   OH255100   7.381   1.439   2.489 -0.6282  0.6505 -0.8920
10302TIP3    H155101   7.341   1.510   2.539  0.3453  0.7064 -0.1528
10302TIP3    H255102   7.360   1.458   2.398 -2.8645  0.2972 -0.5122
10303TIP3   OH255103   3.079   4.874   2.248 -0.1963  0.4347  0.1915
10303TIP3    H155104   3.074   4.778   2.244  1.8598  0.2988 -1.0800
10303TIP3    H255105   3.112   4.899   2.162 -0.5244  2.2889  0.5705
10304TIP3   OH255106   1.674   0.438   1.609  0.0929  0.3456 -0.2704
10304TIP3    H155107   1.629   0.357   1.630 -0.0274  1.3825  4.7620
10304TIP3    H255108   1.761   0.411   1.578 -0.4397 -1.6504 -0.1492
10305TIP3   OH255109   7.321   5.512   2.140  0.3363 -0.0120  0.0932
10305TIP3    H155110   7.371   5.465   2.073  0.0203 -0.0307 -0.1302
10305TIP3    H255111   7.296   5.594   2.098 -0.6136 -0.4004 -0.1099
10306TIP3   OH255112   0.731   5.542   1.689 -0.0923 -0.4866  0.5305
10306TIP3    H155113   0.795   5.472   1.694 -0.2583 -0.6010  1.0901
10306TIP3    H255114   0.725   5.576   1.778  0.2089  0.4372  0.2128
10307TIP3   OH255115   3.241   3.019   2.513 -0.5122 -0.1180  0.1877
10307TIP3    H155116   3.248   2.945   2.573  0.1040 -0.5030 -0.3400
10307TIP3    H255117   3.323   3.067   2.525 -0.7163  0.2301  0.2014
10308TIP3   OH255118   5.734   7.658   1.229 -0.3920 -0.0234 -0.1440
10308TIP3    H155119   5.660   7.644   1.288 -0.3126 -1.2023 -0.2941
10308TIP3    H255120   5.774   7.740   1.258 -1.1722  0.1122  0.5557
10309TIP3   OH255121   0.127   0.537   1.819  0.1021  0.4602  0.4277
10309TIP3    H155122   0.121   0.450   1.778 -0.8869  0.0417  1.3951
10309TIP3    H255123   0.170   0.520   1.903 -0.8894  0.7491  1.0090
10310TIP3   OH255124   6.302   2.872   2.062  0.1767 -0.4260  0.4891
10310TIP3    H155125   6.319   2.783   2.092  0.9090  0.2423  2.2061
10310TIP3    H255126   6.381   2.921   2.085  0.3016  0.4323 -1.5572
10311TIP3   OH255127   3.409   1.627   1.068 -0.3586  0.3480  0.1512
10311TIP3    H155128   3.325   1.584   1.053  0.2775 -0.7711 -0.3443
10311TIP3    H255129   3.390   1.721   1.063 -2.0860  0.2330  2.7935
10312TIP3   OH255130   2.220   0.533   1.962  0.7662 -0.8342  0.4520
10312TIP3    H155131   2.125   0.541   1.961  0.7544  0.8701  3.6169
10312TIP3    H255132   2.247   0.557   1.873 -1.6229  1.8091  0.3051
10313TIP3   OH255133   4.888   4.199   1.798 -0.1613 -0.4813 -0.3846
10313TIP3    H155134   4.855   4.124   1.846  0.6503 -1.0456 -0.6976
10313TIP3    H255135   4.949   4.242   1.858 -1.2804  0.4420  0.1170
10314TIP3   OH255136   5.341   7.531   0.948  0.4468 -0.0487  0.4052
10314TIP3    H155137   5.318   7.620   0.977  1.0255  0.2958 -0.1545
10314TIP3    H255138   5.433   7.522   0.973 -0.2569 -1.4888  2.8438
10315TIP3   OH255139   0.178   5.584   0.687 -0.3096  0.2162 -0.8472
10315TIP3    H155140   0.095   5.606   0.728 -0.2302 -0.8815 -0.0567
10315TIP3    H255141   0.245   5.616   0.748 -0.1870 -0.4074 -0.6347
10316TIP3   OH255142   0.119   6.760   3.256  0.4154  0.1869  0.0890
10316TIP3    H155143   0.213   6.748   3.263  0.5313  1.1572  0.3634
10316TIP3    H255144   0.090   6.780   3.346 -0.3015 -1.6454  0.3104
10317TIP3   OH255145   4.955   6.221   2.685  0.0510  0.4224 -0.3603
10317TIP3    H155146   4.922   6.311   2.691 -0.4945  0.1769  0.3652
10317TIP3    H255147   4.951   6.200   2.592 -1.4957  0.5368 -0.3456
10318TIP3   OH255148   0.439   2.928   1.376  0.0296 -0.2440 -0.4567
10318TIP3    H155149   0.470   2.854   1.428  0.0585 -0.4413 -0.7569
10318TIP3    H255150   0.439   3.002   1.437 -2.2630 -0.9563  0.5259
10319TIP3   OH255151   2.627   3.673   2.099  0.0092  0.7612 -0.5390
10319TIP3    H155152   2.576   3.593   2.087  2.1256 -0.7998  0.2663
10319TIP3    H255153   2.596   3.709   2.182 -0.9275  0.7771 -0.8856
10320TIP3   OH255154   3.646   0.425   1.732  0.1713 -0.4911 -0.6233
10320TIP3    H155155   3.559   0.420   1.692  0.0886 -1.2585 -0.3627
10320TIP3    H255156   3.639   0.497   1.794 -0.2420 -0.4511 -0.7094
10321TIP3   OH255157   6.183   5.174   2.538  0.5417 -0.1342  0.1117
10321TIP3    H155158   6.186   5.106   2.605  1.9788  0.0577  0.2629
10321TIP3    H255159   6.241   5.243   2.570 -1.3084  1.4620  0.2314
10322TIP3   OH255160   5.870   6.611   1.745  0.0065  0.2376  0.0661
10322TIP3    H155161   5.795   6.670   1.753 -1.1314 -1.0323 -0.7532
10322TIP3    H255162   5.832   6.524   1.738  1.6432 -0.6493  1.3144
10323TIP3   OH255163   6.543   0.818   1.817 -0.0082 -0.2063 -0.6922
10323TIP3    H155164   6.580   0.813   1.729 -0.8801  0.6129 -1.1226
10323TIP3    H255165   6.452   0.789   1.806  0.3875 -2.0102  0.3055
10324TIP3   OH255166   4.315   5.270   2.229 -0.0455 -0.4982  0.2022
10324TIP3    H155167   4.405   5.297   2.245 -0.4782  0.9649  0.3346
10324TIP3    H255168   4.295   5.212   2.303  0.8859 -1.1330 -0.0251
10325TIP3   OH255169   3.129   0.785   1.451 -0.7262 -0.0892  0.0701
10325TIP3    H155170   3.112   0.703   1.404  3.1769  0.1031 -2.1001
10325TIP3    H255171   3.105   0.854   1.389 -0.0784  0.2899  0.2350
10326TIP3   OH255172   5.082   5.560   1.877  0.0932 -0.0493  0.3467
10326TIP3    H155173   5.102   5.586   1.787  1.0386 -0.8458  0.3088
10326TIP3    H255174   5.091   5.640   1.928 -0.5863  0.4393 -0.2866
10327TIP3   OH255175   6.678   2.043   2.039  0.6658  0.0656 -0.5399
10327TIP3    H155176   6.751   2.051   2.099 -0.6675  0.2020  1.1206
10327TIP3    H255177   6.718   2.050   1.952  2.6473 -0.2390  0.2960
10328TIP3   OH255178   2.295   4.244   1.941 -0.4511 -0.2211  0.0985
10328TIP3    H155179   2.213   4.224   1.896 -0.6943 -0.5643  0.6869
10328TIP3    H255180   2.289   4.198   2.025 -0.4688  1.2692  0.9534
10329TIP3   OH255181   0.569   1.558   1.662  0.4525 -0.1743 -0.0642
10329TIP3    H155182   0.491   1.601   1.626 -0.4383 -1.4267  0.2991
10329TIP3    H255183   0.572   1.474   1.618 -0.8903 -1.9438  2.9233
10330TIP3   OH255184   6.276   6.109   3.147  0.3848  0.2505 -0.0567
10330TIP3    H155185   6.360   6.076   3.180  1.0660  2.5508  0.6744
10330TIP3    H255186   6.277   6.088   3.054  1.0032 -1.2414  0.2521
10331TIP3   OH255187   5.115   2.063   1.774 -0.3918  0.1381 -0.1219
10331TIP3    H155188   5.148   1.999   1.711  0.0878  0.5149 -0.2568
10331TIP3    H255189   5.060   2.122   1.723  2.3090  2.2360 -0.8487
10332TIP3   OH255190   4.301   0.916   2.331  0.1621  0.0863  0.1086
10332TIP3    H155191   4.213   0.900   2.364  1.0557  0.8650  3.1774
10332TIP3    H255192   4.298   1.004   2.294 -0.0550  0.6645  1.4583
10333TIP3   OH255193   7.600   1.031   2.688  0.1634  0.6366  0.2013
10333TIP3    H155194   7.620   1.118   2.653 -1.1598  1.2661  0.9280
10333TIP3    H255195   7.505   1.023   2.679  0.3472 -1.0884 -0.6169
10334TIP3   OH255196   1.492   6.676   3.765 -0.3821  0.4339 -0.2284
10334TIP3    H155197   1.398   6.655   3.762 -0.3214  0.2228 -0.6963
10334TIP3    H255198   1.535   6.594   3.740 -0.1292  0.9567 -1.5929
10335TIP3   OH255199   2.208   5.542   0.608 -0.8458  0.0362 -0.2400
10335TIP3    H155200   2.264   5.601   0.558  0.5336 -0.9473  0.0682
10335TIP3    H255201   2.262   5.465   0.623 -2.0869 -0.7087  0.6296
10336TIP3   OH255202   4.869   5.029   1.018  0.2894  0.3202 -0.5186
10336TIP3    H155203   4.831   5.001   1.101  1.5850 -0.8878 -0.2853
10336TIP3    H255204   4.798   5.020   0.954  0.0523 -1.5017 -0.0467
10337TIP3   OH255205   4.910   0.835   3.068 -0.1389  0.0133 -0.5007
10337TIP3    H155206   4.865   0.897   3.011 -0.6795  0.0688 -0.0271
10337TIP3    H255207   4.979   0.886   3.111 -0.4498  0.2469 -0.2681
10338TIP3   OH255208   2.559   6.912   0.533  0.1709 -0.2479  0.4972
10338TIP3    H155209   2.496   6.840   0.538 -0.6015  0.4440  1.0068
10338TIP3    H255210   2.532   6.972   0.602 -2.7688  3.3725 -3.2991
10339TIP3   OH255211   2.114   1.358   1.870 -0.2823 -0.3705 -0.2533
10339TIP3    H155212   2.049   1.315   1.814 -1.8605  2.5110 -0.8391
10339TIP3    H255213   2.108   1.450   1.847  2.5490  0.3088  1.2574
10340TIP3   OH255214   4.313   4.708   3.044 -0.2341  0.4444 -0.4787
10340TIP3    H155215   4.405   4.718   3.020 -0.4782  1.4611 -1.0486
10340TIP3    H255216   4.311   4.726   3.138  0.2129 -0.1038 -0.3563
10341TIP3   OH255217   4.514   2.810   0.802  0.3262 -0.3203  0.1424
10341TIP3    H155218   4.580   2.807   0.734  0.7904 -1.4737  0.6178
10341TIP3    H255219   4.557   2.851   0.877  1.0240 -2.3661  0.9382
10342TIP3   OH255220   2.316   1.530   3.179 -0.3972 -0.6758 -0.0422
10342TIP3    H155221   2.355   1.494   3.259 -0.2756 -0.7425 -0.1299
10342TIP3    H255222   2.222   1.532   3.196 -0.2656  0.8018  0.7170
10343TIP3   OH255223   0.106   3.456   1.898  0.4304 -0.7369  0.1581
10343TIP3    H155224   0.052   3.377   1.901 -1.2646  0.3862  1.0196
10343TIP3    H255225   0.174   3.441   1.963  0.3197 -1.6239  0.0752
10344TIP3   OH255226   3.340   4.867   0.626 -0.5391 -0.7942 -0.3378
10344TIP3    H155227   3.339   4.849   0.720  0.0907 -0.0075 -0.1706
10344TIP3    H255228   3.361   4.783   0.585 -0.1090 -0.9846  0.2673
10345TIP3   OH255229   5.970   4.541   1.860 -0.2422  0.2166  0.0982
10345TIP3    H155230   5.927   4.484   1.796  1.7303 -1.7812  0.4242
10345TIP3    H255231   6.011   4.609   1.807 -2.1776  1.0995 -0.3512
10346TIP3   OH255232   2.608   4.118   1.991  0.3911 -0.1657 -0.0620
10346TIP3    H155233   2.688   4.119   1.938 -0.1540 -0.2354 -0.8924
10346TIP3    H255234   2.571   4.031   1.978 -0.9375  0.5519 -1.3900
10347TIP3   OH255235   2.296   7.459   2.059 -0.2792  0.0741 -0.1049
10347TIP3    H155236   2.384   7.435   2.029  0.0749  0.5392  0.5426
10347TIP3    H255237   2.263   7.518   1.991 -0.8244 -1.5160 -1.2752
10348TIP3   OH255238   0.782   0.588   1.466 -0.0829 -0.4612  0.4632
10348TIP3    H155239   0.720   0.659   1.480 -1.1569 -0.9227 -1.6652
10348TIP3    H255240   0.753   0.519   1.526 -1.4501 -0.5314 -0.2350
10349TIP3   OH255241   6.808   5.650   0.839  0.7704 -0.0953  0.1935
10349TIP3    H155242   6.869   5.715   0.873 -0.0970  0.3159  1.0092
10349TIP3    H255243   6.770   5.609   0.916 -1.0490  0.6725 -0.2392
10350TIP3   OH255244   6.858   2.255   3.006 -0.1421 -0.4264  0.0059
10350TIP3    H155245   6.914   2.325   3.038 -0.9223 -0.6597  2.0638
10350TIP3    H255246   6.770   2.293   3.008 -0.5244 -1.3010  0.7758
10351TIP3   OH255247   4.128   7.458   2.033  0.2276  0.8412  0.5835
10351TIP3    H155248   4.045   7.413   2.051  0.8987  0.3235  2.7179
10351TIP3    H255249   4.150   7.435   1.943  0.0400 -2.3606  1.2526
10352TIP3   OH255250   3.961   6.408   2.464  0.1593 -0.1803 -0.5403
10352TIP3    H155251   3.952   6.323   2.420 -0.8577 -0.0775 -0.5514
10352TIP3    H255252   4.011   6.389   2.543  1.0497 -0.5610 -1.1707
10353TIP3   OH255253   1.111   2.106   1.110  0.0243 -0.4604  0.0960
10353TIP3    H155254   1.139   2.025   1.069  4.1208  1.3709 -1.2551
10353TIP3    H255255   1.175   2.171   1.081 -0.1107  2.2672  4.8660
10354TIP3   OH255256   1.128   2.209   2.848 -0.0165 -0.2098  0.2720
10354TIP3    H155257   1.206   2.258   2.819 -0.2685 -1.3889 -2.7187
10354TIP3    H255258   1.151   2.179   2.936  1.3843  2.5434  0.9793
10355TIP3   OH255259   0.482   5.384   0.951 -0.1281 -0.2141  0.3480
10355TIP3    H155260   0.393   5.386   0.985 -1.3217 -0.5924 -2.4829
10355TIP3    H255261   0.537   5.407   1.026 -2.5322 -0.4501  2.3031
10356TIP3   OH255262   3.109   3.759   1.991  0.0321 -0.3551  0.5507
10356TIP3    H155263   3.138   3.841   1.952  0.2839 -0.6620  0.0901
10356TIP3    H255264   3.022   3.744   1.954  0.0519 -0.3779  0.5136
10357TIP3   OH255265   3.253   1.362   3.527 -0.3217 -0.4118 -0.0283
10357TIP3    H155266   3.236   1.336   3.437  1.3344 -2.6571  0.2093
10357TIP3    H255267   3.336   1.410   3.523 -0.4576 -0.1457  0.2580
10358TIP3   OH255268   0.560   2.581   1.024  0.4967 -0.0973 -0.2189
10358TIP3    H155269   0.615   2.550   0.953  1.3604 -0.1937  0.4812
10358TIP3    H255270   0.572   2.676   1.024 -1.0736  0.1434 -1.4727
10359TIP3   OH255271   5.239   0.900   3.394  0.6017 -0.4411 -0.0527
10359TIP3    H155272   5.221   0.946   3.311  1.7139 -0.9587 -0.5962
10359TIP3    H255273   5.310   0.840   3.373 -0.0590 -1.6175  0.9303
10360TIP3   OH255274   5.183   1.012   1.186  0.0890  0.2171 -0.7850
10360TIP3    H155275   5.177   1.070   1.261 -0.7264  0.3610 -0.9552
10360TIP3    H255276   5.275   1.015   1.160 -0.1335  2.3530 -1.5171
10361TIP3   OH255277   0.477   0.909   3.035  0.1573 -0.0966  0.6991
10361TIP3    H155278   0.570   0.917   3.052  0.1628  0.4466  0.4316
10361TIP3    H255279   0.470   0.905   2.939 -0.1482  0.7690  0.6723
10362TIP3   OH255280   3.872   7.647   1.425  0.2581 -0.0934  0.3313
10362TIP3    H155281   3.874   7.551   1.422  2.9740 -0.1604  1.5011
10362TIP3    H255282   3.963   7.673   1.438 -0.1303  2.7706 -1.6316
10363TIP3   OH255283   0.168   4.480   1.613  0.8540 -0.4453  0.1305
10363TIP3    H155284   0.203   4.403   1.658  0.4098 -0.4253  0.5213
10363TIP3    H255285   0.159   4.546   1.682  3.5706  0.8382 -0.5811
10364TIP3   OH255286   7.485   5.445   1.691 -0.0554 -0.7462 -0.3854
10364TIP3    H155287   7.538   5.386   1.637  0.7414 -1.0526  0.6861
10364TIP3    H255288   7.396   5.411   1.684 -0.0392 -0.5705 -1.7643
10365TIP3   OH255289   5.600   4.999   1.678  0.0058  0.0365 -0.1791
10365TIP3    H155290   5.614   5.030   1.588  1.0900  1.3955  0.4203
10365TIP3    H255291   5.582   5.078   1.728 -2.0707 -0.8463  0.5919
10366TIP3   OH255292   7.541   5.838   1.378 -0.4226  0.3010 -0.5594
10366TIP3    H155293   7.548   5.743   1.382  1.5178  0.4523  2.0305
10366TIP3    H255294   7.523   5.865   1.469  1.2163  2.4998 -0.8105
10367TIP3   OH255295   6.374   1.943   1.115  0.6344 -0.1632 -0.6633
10367TIP3    H155296   6.298   1.952   1.173  1.7990  0.3778  0.8399
10367TIP3    H255297   6.362   1.857   1.074 -0.4791 -0.3516 -0.0002
10368TIP3   OH255298   2.264   7.184   1.813  0.4968  0.0780 -0.2694
10368TIP3    H155299   2.187   7.127   1.812  0.7587 -0.2850 -0.7863
10368TIP3    H255300   2.318   7.151   1.884 -0.1968  0.8629  0.6470
10369TIP3   OH255301   6.504   3.839   1.653 -0.1788  0.1714 -0.2494
10369TIP3    H155302   6.423   3.801   1.685 -0.6339  1.3206  0.0100
10369TIP3    H255303   6.478   3.921   1.611  0.7357  0.0764 -1.0514
10370TIP3   OH255304   0.811   5.665   0.723 -0.2954  0.4519 -0.4604
10370TIP3    H155305   0.881   5.624   0.672  0.4707  0.2908  0.6963
10370TIP3    H255306   0.746   5.595   0.733  0.7117 -0.3224  0.9476
10371TIP3   OH255307   7.530   0.084   1.618 -0.6086 -0.3034 -0.3103
10371TIP3    H155308   7.445   0.040   1.610 -0.1326 -0.9729 -2.0537
10371TIP3    H255309   7.594   0.014   1.617  0.0003  0.2155  0.7741
10372TIP3   OH255310   0.190   6.359   0.987 -0.1369  0.1290 -0.3210
10372TIP3    H155311   0.207   6.371   0.894  1.1213  2.5302  0.1463
10372TIP3    H255312   0.276   6.336   1.024 -0.0083  1.9197  0.5885
10373TIP3   OH255313   3.482   5.903   2.471  0.1995  0.3350 -0.9713
10373TIP3    H155314   3.432   5.981   2.493 -0.6013  0.0658 -1.7783
10373TIP3    H255315   3.502   5.862   2.556  0.2269  1.1632 -0.5744
10374TIP3   OH255316   2.527   5.064   0.562 -0.2015 -0.3356 -0.3178
10374TIP3    H155317   2.599   5.009   0.529  0.3059 -0.3178  0.7014
10374TIP3    H255318   2.454   5.003   0.573 -0.1846 -0.4610 -0.8489
10375TIP3   OH255319   3.918   0.069   2.130  0.1335  0.2270 -0.6804
10375TIP3    H155320   3.864   0.139   2.167 -0.1223 -0.0874 -0.4521
10375TIP3    H255321   3.856   0.000   2.106  0.5008 -0.6455  0.6941
10376TIP3   OH255322   5.083   6.338   0.767 -0.1612 -0.2567  0.0904
10376TIP3    H155323   5.100   6.371   0.854  0.8208 -0.3988 -0.0398
10376TIP3    H255324   5.167   6.302   0.737 -0.2536  0.5293 -1.2303
10377TIP3   OH255325   7.241   2.195   1.218 -0.1208  0.0636 -0.3102
10377TIP3    H155326   7.276   2.270   1.168 -1.7709  1.2786  0.2676
10377TIP3    H255327   7.225   2.128   1.152  2.5556 -0.3283 -0.6947
10378TIP3   OH255328   4.459   4.387   0.861 -0.2310  0.0585  0.2697
10378TIP3    H155329   4.427   4.298   0.846  0.6378 -0.5234  1.5822
10378TIP3    H255330   4.549   4.385   0.828 -0.7658  0.9941 -1.3134
10379TIP3   OH255331   7.125   7.288   0.867  0.0311  0.3083 -0.5326
10379TIP3    H155332   7.124   7.238   0.785  1.8912  1.0229 -1.0456
10379TIP3    H255333   7.034   7.312   0.881 -0.3423  0.1751 -2.4158
10380TIP3   OH255334   2.776   0.739   2.456 -0.4239  0.5736  0.6153
10380TIP3    H155335   2.866   0.719   2.431 -1.0249  0.4691 -1.6836
10380TIP3    H255336   2.739   0.655   2.483 -0.4144  0.1950 -0.4995
10381TIP3   OH255337   4.047   1.408   2.338  0.2658  0.2930 -0.1715
10381TIP3    H155338   4.050   1.482   2.277 -2.3762  1.3107  0.7892
10381TIP3    H255339   3.970   1.358   2.311  1.1663 -1.3268  0.1123
10382TIP3   OH255340   1.186   0.763   1.123  0.1558  1.0321 -0.2911
10382TIP3    H155341   1.100   0.802   1.114  0.8007  2.2481 -1.6666
10382TIP3    H255342   1.210   0.777   1.215 -0.3062  2.4682 -0.3720
10383TIP3   OH255343   7.054   4.849   1.496  0.2656 -0.2254 -0.5569
10383TIP3    H155344   7.118   4.839   1.425 -1.4548  0.7346 -2.3223
10383TIP3    H255345   7.102   4.823   1.575  2.6910  0.0631 -1.8468
10384TIP3   OH255346   0.714   5.424   2.698 -0.9333 -0.7966 -0.0961
10384TIP3    H155347   0.755   5.493   2.751  0.8577 -0.3368 -1.9361
10384TIP3    H255348   0.736   5.447   2.608 -1.4935 -3.0235 -0.8709
10385TIP3   OH255349   3.800   0.454   1.045 -0.3012  0.1148  0.0986
10385TIP3    H155350   3.710   0.478   1.065  0.4925  1.8367  2.0640
10385TIP3    H255351   3.814   0.371   1.091 -0.8142 -0.0368 -0.0213
10386TIP3   OH255352   7.662   7.422   2.789  0.0003 -0.0582 -0.4679
10386TIP3    H155353   7.655   7.478   2.866  0.6211 -2.3860  1.3921
10386TIP3    H255354   7.572   7.396   2.770 -0.1440  0.4387 -0.4832
10387TIP3   OH255355   3.350   5.055   2.030  0.5446 -0.2714 -0.7004
10387TIP3    H155356   3.269   5.034   1.984 -0.4551 -0.3021  0.9790
10387TIP3    H255357   3.338   5.145   2.060  1.5862  0.0878 -1.3190
10388TIP3   OH255358   6.062   1.809   1.192  0.5888  0.0624 -0.2965
10388TIP3    H155359   6.112   1.737   1.154 -1.3404 -2.0193  0.8584
10388TIP3    H255360   5.982   1.813   1.139 -0.5995 -0.6362  1.3570
10389TIP3   OH255361   4.927   6.606   1.905 -0.4670  0.2043  0.1213
10389TIP3    H155362   4.974   6.656   1.838  1.1024 -2.4681 -0.9679
10389TIP3    H255363   4.976   6.622   1.985 -0.2677  0.7711 -0.1069
10390TIP3   OH255364   4.297   6.290   1.377  0.2959 -0.2678 -0.3008
10390TIP3    H155365   4.354   6.343   1.433 -0.0901 -0.6822  0.5132
10390TIP3    H255366   4.351   6.215   1.353  1.1718  0.8918 -2.2450
10391TIP3   OH255367   2.436   6.719   0.794 -0.0662 -0.4511 -0.3857
10391TIP3    H155368   2.365   6.655   0.788  0.1159 -0.7713  0.8391
10391TIP3    H255369   2.483   6.697   0.874  1.1746  0.0255 -0.9651
10392TIP3   OH255370   1.117   6.386   3.911 -0.0086 -0.2290  0.0981
10392TIP3    H155371   1.072   6.416   3.990  0.3660 -0.6783  0.4905
10392TIP3    H255372   1.160   6.464   3.876 -2.7639  0.7171 -1.4769
10393TIP3   OH255373   5.287   4.777   2.511 -0.9994 -0.0481  0.6178
10393TIP3    H155374   5.273   4.734   2.596 -2.7171 -1.0187 -0.0946
10393TIP3    H255375   5.338   4.714   2.460 -0.8402  0.0942  0.6014
10394TIP3   OH255376   7.000   7.673   0.905  0.2068  0.2972 -0.5509
10394TIP3    H155377   6.959   7.600   0.858  2.4105 -1.0959 -0.4626
10394TIP3    H255378   6.981   7.750   0.852 -0.3262 -0.6761 -1.8244
10395TIP3   OH255379   2.013   4.325   0.665  0.8280 -0.3270  0.4319
10395TIP3    H155380   1.969   4.322   0.750  1.3424  0.3610  0.7401
10395TIP3    H255381   1.969   4.259   0.612 -0.3145  0.0767  0.8470
10396TIP3   OH255382   4.574   4.947   1.420  0.3763 -0.2269 -0.4584
10396TIP3    H155383   4.532   4.861   1.425 -1.4465  0.5981 -0.7770
10396TIP3    H255384   4.601   4.965   1.510 -0.9730 -0.3309 -0.0010
10397TIP3   OH255385   6.645   1.045   0.917 -0.1839  0.3330  0.0299
10397TIP3    H155386   6.712   1.040   0.985 -0.9090  0.6725  0.7705
10397TIP3    H255387   6.562   1.052   0.964 -0.7265  0.2245 -0.8809
10398TIP3   OH255388   4.670   3.744   3.534  0.0283  0.4278 -0.1068
10398TIP3    H155389   4.728   3.767   3.461  1.4691  1.3070  1.2484
10398TIP3    H255390   4.644   3.654   3.516  1.4459  0.1569 -1.0084
10399TIP3   OH255391   3.822   6.159   0.674 -0.1357 -0.0402 -0.5656
10399TIP3    H155392   3.869   6.132   0.753 -0.0005 -0.5816 -0.8288
10399TIP3    H255393   3.847   6.251   0.662 -0.6752  0.2519  0.3853
10400TIP3   OH255394   6.510   2.666   0.906 -0.2660  0.4556 -0.3641
10400TIP3    H155395   6.487   2.609   0.979  0.2540 -0.9602 -1.2683
10400TIP3    H255396   6.600   2.693   0.923 -0.6165  1.2924  0.2249
10401TIP3   OH255397   1.944   4.689   2.640  0.1488  0.0906 -0.2791
10401TIP3    H155398   1.885   4.634   2.692 -0.2550 -0.2904 -1.1221
10401TIP3    H255399   1.953   4.643   2.556  0.6037  0.8084 -0.6394
10402TIP3   OH255400   4.827   3.977   1.923 -0.8248  0.5500  0.7337
10402TIP3    H155401   4.902   3.979   1.983 -0.6013  1.7255  0.4491
10402TIP3    H255402   4.797   3.886   1.924  0.0540  0.2566  1.5359
10403TIP3   OH255403   3.692   0.490   0.434  0.2262  0.2925 -0.1303
10403TIP3    H155404   3.617   0.461   0.381  1.0617 -1.7099 -0.3013
10403TIP3    H255405   3.668   0.578   0.464 -2.5321 -0.5835  0.4850
10404TIP3   OH255406   3.714   6.036   2.657  0.6789  0.6254 -0.2040
10404TIP3    H155407   3.705   5.970   2.726 -0.3637 -1.2711 -2.0541
10404TIP3    H255408   3.646   6.101   2.676  0.6067  0.2943  0.7067
10405TIP3   OH255409   2.432   2.094   2.025  0.2310 -0.0897  0.4672
10405TIP3    H155410   2.369   2.100   1.953 -0.3057 -2.3544  0.6425
10405TIP3    H255411   2.444   1.999   2.038  2.2178  0.2755  1.7202
10406TIP3   OH255412   0.603   1.337   1.451 -0.8737 -0.2765 -0.4985
10406TIP3    H155413   0.648   1.257   1.424 -0.0708  0.2082 -0.6287
10406TIP3    H255414   0.653   1.408   1.411 -0.8201  0.3582  0.6513
10407TIP3   OH255415   3.402   2.735   0.554  0.3920  0.5057  0.6544
10407TIP3    H155416   3.480   2.679   0.552  0.0908  0.0694  0.8856
10407TIP3    H255417   3.419   2.802   0.488  0.3435 -0.4216 -0.3333
10408TIP3   OH255418   4.633   1.727   1.128  0.3401 -0.4170  0.1065
10408TIP3    H155419   4.554   1.767   1.164  0.2931 -0.6710  0.2894
10408TIP3    H255420   4.670   1.677   1.201  0.5313 -0.5058 -0.0499
10409TIP3   OH255421   2.675   4.729   2.505  0.3918 -0.1088 -0.1937
10409TIP3    H155422   2.592   4.681   2.512  0.8131 -0.6844  1.1446
10409TIP3    H255423   2.652   4.820   2.520 -0.1005 -0.1749 -0.5272
10410TIP3   OH255424   4.607   2.330   0.886  0.8376 -0.0583 -0.5608
10410TIP3    H155425   4.577   2.264   0.824  0.5752 -0.7258  0.2556
10410TIP3    H255426   4.546   2.403   0.875 -2.0880 -1.8811  2.0156
10411TIP3   OH255427   5.142   4.545   0.811 -0.4285 -0.1975  0.6714
10411TIP3    H155428   5.087   4.610   0.855 -0.9814  0.8667 -1.4219
10411TIP3    H255429   5.100   4.532   0.726  0.9023 -1.6753  0.1824
10412TIP3   OH255430   4.911   0.453   1.647 -0.1225  0.5696 -0.0103
10412TIP3    H155431   4.969   0.382   1.620  1.0124 -0.1325  3.7165
10412TIP3    H255432   4.970   0.526   1.668 -0.1575 -0.3844  4.5421
10413TIP3   OH255433   0.686   3.377   0.421 -0.3510  0.3576  0.6387
10413TIP3    H155434   0.767   3.331   0.445 -0.6038  0.2407  1.2979
10413TIP3    H255435   0.716   3.464   0.393  0.0631  0.0519  0.1313
10414TIP3   OH255436   5.320   5.796   1.519  0.1900  0.0046 -0.2067
10414TIP3    H155437   5.254   5.858   1.489 -1.8396 -0.3569  3.0254
10414TIP3    H255438   5.326   5.811   1.613  2.6761 -1.9750  0.0743
10415TIP3   OH255439   5.806   7.528   1.751  0.0238 -0.2477  0.3724
10415TIP3    H155440   5.893   7.567   1.756  0.0088 -0.2445  0.6181
10415TIP3    H255441   5.778   7.521   1.842  0.1073 -1.0050  0.3443
10416TIP3   OH255442   6.887   0.672   0.944  0.6425  0.0113 -0.0090
10416TIP3    H155443   6.812   0.618   0.967 -1.3023  2.9828  1.0962
10416TIP3    H255444   6.902   0.727   1.021  2.1818  1.4356 -1.2552
10417TIP3   OH255445   0.141   7.245   1.317  0.5598  0.0846 -0.5090
10417TIP3    H155446   0.227   7.277   1.343  1.7113 -2.7379 -0.4686
10417TIP3    H255447   0.158   7.161   1.275 -2.2155 -0.7744 -0.1424
10418TIP3   OH255448   5.253   1.239   0.745  0.1813  0.4048 -0.7974
10418TIP3    H155449   5.238   1.160   0.692  1.1181  0.4459 -1.1342
10418TIP3    H255450   5.170   1.287   0.739 -0.9720 -1.2790  0.6816
10419TIP3   OH255451   2.295   3.670   1.295  0.1768 -0.2374  0.2747
10419TIP3    H155452   2.234   3.742   1.281  0.4278 -0.1564 -0.4373
10419TIP3    H255453   2.270   3.633   1.380  1.2716  1.9388  1.6460
10420TIP3   OH255454   2.517   1.775   2.527 -0.0359  0.2288 -0.2193
10420TIP3    H155455   2.583   1.843   2.541  0.8323 -0.4681 -0.7680
10420TIP3    H255456   2.528   1.715   2.601  2.7830 -2.0537 -2.2016
10421TIP3   OH255457   1.751   4.188   1.730 -0.2003  0.5352  0.3433
10421TIP3    H155458   1.791   4.115   1.682 -1.0403 -0.4905  1.1451
10421TIP3    H255459   1.671   4.208   1.680 -1.3085 -0.8278  1.4860
10422TIP3   OH255460   0.748   5.308   1.927  0.2669  0.3234  0.7827
10422TIP3    H155461   0.670   5.267   1.964 -0.4190  0.9541  0.1008
10422TIP3    H255462   0.771   5.252   1.852 -0.4276  0.9219  0.0972
10423TIP3   OH255463   5.909   1.658   1.372  0.6167 -0.3998 -0.2068
10423TIP3    H155464   5.909   1.734   1.429 -0.2267 -0.6262  0.1149
10423TIP3    H255465   5.972   1.679   1.303  2.3680 -0.5081  1.2918
10424TIP3   OH255466   1.608   6.152   2.827 -0.2608 -0.5292 -0.2139
10424TIP3    H155467   1.647   6.086   2.885  1.6445 -0.6666 -1.5234
10424TIP3    H255468   1.537   6.106   2.782  0.2510 -1.3392 -0.2108
10425TIP3   OH255469   6.217   6.849   0.813  0.2267 -0.0029 -0.0989
10425TIP3    H155470   6.264   6.888   0.887  1.3216 -0.1946 -0.6671
10425TIP3    H255471   6.171   6.922   0.772  1.0067  0.4222 -0.2334
10426TIP3   OH255472   5.817   1.870   1.895  0.1430  0.1497 -0.1845
10426TIP3    H155473   5.866   1.936   1.846  0.6996 -0.2923 -0.2318
10426TIP3    H255474   5.726   1.889   1.876  0.3116  0.6576 -0.5181
10427TIP3   OH255475   5.019   5.032   1.561  0.5467 -0.1358 -0.2265
10427TIP3    H155476   5.037   5.050   1.469 -0.0785 -0.4513 -0.4129
10427TIP3    H255477   4.927   5.053   1.572  0.9989  1.5579  0.7449
10428TIP3   OH255478   5.688   3.086   1.806  0.7055 -0.8801  0.1866
10428TIP3    H155479   5.637   3.137   1.743  0.6195  1.2028  1.8220
10428TIP3    H255480   5.707   3.004   1.761 -0.5788 -0.0740 -1.9785
10429TIP3   OH255481   1.489   4.057   0.733  0.0484  0.1419  0.0139
10429TIP3    H155482   1.457   4.124   0.672  1.6381 -0.7862 -1.9608
10429TIP3    H255483   1.534   4.107   0.801  0.5771  1.1595 -1.0271
10430TIP3   OH255484   2.515   7.480   2.493 -0.4806  0.0275 -0.3520
10430TIP3    H155485   2.597   7.523   2.472 -0.5717 -0.2139 -1.2047
10430TIP3    H255486   2.500   7.501   2.586  1.0133 -0.7365  0.0818
10431TIP3   OH255487   2.803   1.671   1.948 -0.1945  0.5750  0.1216
10431TIP3    H155488   2.755   1.711   2.021 -1.8644 -0.0782 -0.5617
10431TIP3    H255489   2.755   1.699   1.870  0.5592 -0.0949 -0.5976
10432TIP3   OH255490   0.273   1.557   1.612  0.2626  0.4083 -0.2014
10432TIP3    H155491   0.279   1.501   1.689  0.6964  0.6627 -0.0500
10432TIP3    H255492   0.265   1.496   1.539  2.1263  0.0687 -0.1832
10433TIP3   OH255493   0.483   2.375   2.398 -0.2003  0.7199  0.0632
10433TIP3    H155494   0.412   2.310   2.399  0.7712 -0.4302 -1.2055
10433TIP3    H255495   0.559   2.327   2.365  0.5042  2.5577 -1.1925
10434TIP3   OH255496   3.266   3.537   1.884  0.4451 -0.7513  0.5327
10434TIP3    H155497   3.246   3.572   1.797  1.3266 -0.7859  0.3028
10434TIP3    H255498   3.222   3.595   1.945  0.9315  0.0833  0.1113
10435TIP3   OH255499   4.390   4.684   1.309 -0.5966 -0.1367 -0.0926
10435TIP3    H155500   4.385   4.611   1.247 -0.2917 -0.6457  0.4779
10435TIP3    H255501   4.444   4.651   1.380 -0.1383  0.7811 -0.0086
10436TIP3   OH255502   3.006   1.703   3.645  0.3227 -0.7031 -0.1198
10436TIP3    H155503   3.009   1.615   3.682 -0.7726 -0.5483  0.3810
10436TIP3    H255504   2.913   1.720   3.630  0.5582  0.1870 -0.6594
10437TIP3   OH255505   4.906   1.351   1.156 -0.0901 -0.1504 -0.0472
10437TIP3    H155506   4.937   1.307   1.077 -0.2317 -0.1005 -0.1297
10437TIP3    H255507   4.818   1.317   1.170  0.1490 -0.6036  0.4206
10438TIP3   OH255508   7.416   5.805   2.393  0.4425 -0.4589  0.4761
10438TIP3    H155509   7.423   5.800   2.488 -0.4141  1.3401  0.6780
10438TIP3    H255510   7.345   5.868   2.378  1.9670  0.9575 -1.3394
10439TIP3   OH255511   4.797   2.287   2.175 -0.3017 -0.1683 -0.4084
10439TIP3    H155512   4.758   2.201   2.191  0.6464 -0.5468 -0.0500
10439TIP3    H255513   4.826   2.317   2.262 -0.9633  0.6903 -0.4714
   7.68049   7.68049  30.00000
